 Entering Link 1 = C:\G09W\l1.exe PID=     21864.
  
 Copyright (c) 1988,1990,1992,1993,1995,1998,2003,2009, Gaussian, Inc.
                  All Rights Reserved.
  
 This is part of the Gaussian(R) 09 program.  It is based on
 the Gaussian(R) 03 system (copyright 2003, Gaussian, Inc.),
 the Gaussian(R) 98 system (copyright 1998, Gaussian, Inc.),
 the Gaussian(R) 94 system (copyright 1995, Gaussian, Inc.),
 the Gaussian 92(TM) system (copyright 1992, Gaussian, Inc.),
 the Gaussian 90(TM) system (copyright 1990, Gaussian, Inc.),
 the Gaussian 88(TM) system (copyright 1988, Gaussian, Inc.),
 the Gaussian 86(TM) system (copyright 1986, Carnegie Mellon
 University), and the Gaussian 82(TM) system (copyright 1983,
 Carnegie Mellon University). Gaussian is a federally registered
 trademark of Gaussian, Inc.
  
 This software contains proprietary and confidential information,
 including trade secrets, belonging to Gaussian, Inc.
  
 This software is provided under written license and may be
 used, copied, transmitted, or stored only in accord with that
 written license.
  
 The following legend is applicable only to US Government
 contracts under FAR:
  
                    RESTRICTED RIGHTS LEGEND
  
 Use, reproduction and disclosure by the US Government is
 subject to restrictions as set forth in subparagraphs (a)
 and (c) of the Commercial Computer Software - Restricted
 Rights clause in FAR 52.227-19.
  
 Gaussian, Inc.
 340 Quinnipiac St., Bldg. 40, Wallingford CT 06492
  
  
 ---------------------------------------------------------------
 Warning -- This program may not be used in any manner that
 competes with the business of Gaussian, Inc. or will provide
 assistance to any competitor of Gaussian, Inc.  The licensee
 of this program is prohibited from giving any competitor of
 Gaussian, Inc. access to this program.  By using this program,
 the user acknowledges that Gaussian, Inc. is engaged in the
 business of creating and licensing software in the field of
 computational chemistry and represents and warrants to the
 licensee that it is not a competitor of Gaussian, Inc. and that
 it will not use this program in any manner prohibited above.
 ---------------------------------------------------------------
  

 Cite this work as:
 Gaussian 09, Revision A.02,
 M. J. Frisch, G. W. Trucks, H. B. Schlegel, G. E. Scuseria, 
 M. A. Robb, J. R. Cheeseman, G. Scalmani, V. Barone, B. Mennucci, 
 G. A. Petersson, H. Nakatsuji, M. Caricato, X. Li, H. P. Hratchian, 
 A. F. Izmaylov, J. Bloino, G. Zheng, J. L. Sonnenberg, M. Hada, 
 M. Ehara, K. Toyota, R. Fukuda, J. Hasegawa, M. Ishida, T. Nakajima, 
 Y. Honda, O. Kitao, H. Nakai, T. Vreven, J. A. Montgomery, Jr., 
 J. E. Peralta, F. Ogliaro, M. Bearpark, J. J. Heyd, E. Brothers, 
 K. N. Kudin, V. N. Staroverov, R. Kobayashi, J. Normand, 
 K. Raghavachari, A. Rendell, J. C. Burant, S. S. Iyengar, J. Tomasi, 
 M. Cossi, N. Rega, J. M. Millam, M. Klene, J. E. Knox, J. B. Cross, 
 V. Bakken, C. Adamo, J. Jaramillo, R. Gomperts, R. E. Stratmann, 
 O. Yazyev, A. J. Austin, R. Cammi, C. Pomelli, J. W. Ochterski, 
 R. L. Martin, K. Morokuma, V. G. Zakrzewski, G. A. Voth, 
 P. Salvador, J. J. Dannenberg, S. Dapprich, A. D. Daniels, 
 O. Farkas, J. B. Foresman, J. V. Ortiz, J. Cioslowski, 
 and D. J. Fox, Gaussian, Inc., Wallingford CT, 2009.
 
 ******************************************
 Gaussian 09:  IA32W-G09RevA.02 11-Jun-2009
                21-Mar-2019 
 ******************************************
 %chk=C:\Google Drive\Rob Paton CSU\Project GoodVibes Guilian\media test\H2O.chk
 -----------------------
 # opt freq b3lyp/sto-3g
 -----------------------
 1/14=-1,18=20,19=15,26=3,38=1/1,3;
 2/9=110,12=2,17=6,18=5,40=1/2;
 3/6=3,11=2,16=1,25=1,30=1,71=1,74=-5/1,2,3;
 4//1;
 5/5=2,38=5/2;
 6/7=2,8=2,9=2,10=2,28=1/1;
 7//1,2,3,16;
 1/14=-1,18=20,19=15/3(2);
 2/9=110/2;
 99//99;
 2/9=110/2;
 3/6=3,11=2,16=1,25=1,30=1,71=1,74=-5/1,2,3;
 4/5=5,16=3/1;
 5/5=2,38=5/2;
 7//1,2,3,16;
 1/14=-1,18=20,19=15/3(-5);
 2/9=110/2;
 6/7=2,8=2,9=2,10=2,19=2,28=1/1;
 99/9=1/99;
 -------------------
 Title Card Required
 -------------------
 Symbolic Z-matrix:
 Charge =  0 Multiplicity = 1
 O                    -0.20048   0.41613  -0.05544 
 H                     0.75952   0.41613  -0.05544 
 H                    -0.52093   1.32107  -0.05544 
 

 GradGradGradGradGradGradGradGradGradGradGradGradGradGradGradGradGradGrad
 Berny optimization.
 Initialization pass.
                           ----------------------------
                           !    Initial Parameters    !
                           ! (Angstroms and Degrees)  !
 --------------------------                            --------------------------
 ! Name  Definition              Value          Derivative Info.                !
 --------------------------------------------------------------------------------
 ! R1    R(1,2)                  0.96           estimate D2E/DX2                !
 ! R2    R(1,3)                  0.96           estimate D2E/DX2                !
 ! A1    A(2,1,3)              109.5            estimate D2E/DX2                !
 --------------------------------------------------------------------------------
 Trust Radius=3.00D-01 FncErr=1.00D-07 GrdErr=1.00D-06
 Number of steps in this run=  20 maximum allowed number of steps= 100.
 GradGradGradGradGradGradGradGradGradGradGradGradGradGradGradGradGradGrad

                          Input orientation:                          
 ---------------------------------------------------------------------
 Center     Atomic      Atomic             Coordinates (Angstroms)
 Number     Number       Type             X           Y           Z
 ---------------------------------------------------------------------
      1          8           0       -0.200477    0.416134   -0.055442
      2          1           0        0.759523    0.416134   -0.055442
      3          1           0       -0.520931    1.321070   -0.055442
 ---------------------------------------------------------------------
                    Distance matrix (angstroms):
                    1          2          3
     1  O    0.000000
     2  H    0.960000   0.000000
     3  H    0.960000   1.567952   0.000000
 Stoichiometry    H2O
 Framework group  C2V[C2(O),SGV(H2)]
 Deg. of freedom     2
 Full point group                 C2V     NOp   4
 Largest Abelian subgroup         C2V     NOp   4
 Largest concise Abelian subgroup C2      NOp   2
                         Standard orientation:                         
 ---------------------------------------------------------------------
 Center     Atomic      Atomic             Coordinates (Angstroms)
 Number     Number       Type             X           Y           Z
 ---------------------------------------------------------------------
      1          8           0        0.000000    0.000000    0.110812
      2          1           0        0.000000    0.783976   -0.443248
      3          1           0        0.000000   -0.783976   -0.443248
 ---------------------------------------------------------------------
 Rotational constants (GHZ):    919.6759643    407.9403261    282.5913749
 Standard basis: STO-3G (5D, 7F)
 There are     4 symmetry adapted basis functions of A1  symmetry.
 There are     0 symmetry adapted basis functions of A2  symmetry.
 There are     1 symmetry adapted basis functions of B1  symmetry.
 There are     2 symmetry adapted basis functions of B2  symmetry.
 Integral buffers will be    262144 words long.
 Raffenetti 2 integral format.
 Two-electron integral symmetry is turned on.
     7 basis functions,    21 primitive gaussians,     7 cartesian basis functions
     5 alpha electrons        5 beta electrons
       nuclear repulsion energy         9.1571159843 Hartrees.
 NAtoms=    3 NActive=    3 NUniq=    2 SFac= 1.69D+00 NAtFMM=   80 NAOKFM=F Big=F
 One-electron integrals computed using PRISM.
 NBasis=     7 RedAO= T  NBF=     4     0     1     2
 NBsUse=     7 1.00D-06 NBFU=     4     0     1     2
 Harris functional with IExCor=  402 diagonalized for initial guess.
 ExpMin= 1.69D-01 ExpMax= 1.31D+02 ExpMxC= 1.31D+02 IAcc=1 IRadAn=         1 AccDes= 0.00D+00
 HarFok:  IExCor=  402 AccDes= 0.00D+00 IRadAn=         1 IDoV= 1
 ScaDFX=  1.000000  1.000000  1.000000  1.000000
 FoFCou: FMM=F IPFlag=           0 FMFlag=      100000 FMFlg1=           0
         NFxFlg=           0 DoJE=T BraDBF=F KetDBF=T FulRan=T
         Omega=  0.000000  0.000000  1.000000  0.000000  0.000000 ICntrl=     500 IOpCl=  0
         NMat0=    1 NMatS0=    1 NMatT0=    0 NMatD0=    1 NMtDS0=    0 NMtDT0=    0
         I1Cent=           4 NGrid=           0.
 Petite list used in FoFCou.
 Initial guess orbital symmetries:
       Occupied  (A1) (A1) (B2) (A1) (B1)
       Virtual   (A1) (B2)
 The electronic state of the initial guess is 1-A1.
 Requested convergence on RMS density matrix=1.00D-08 within 128 cycles.
 Requested convergence on MAX density matrix=1.00D-06.
 Requested convergence on             energy=1.00D-06.
 No special actions if energy rises.
 Keep R1 ints in memory in canonical form, NReq=886806.
 Integral accuracy reduced to 1.0D-05 until final iterations.
 Initial convergence to 1.0D-05 achieved.  Increase integral accuracy.
 SCF Done:  E(RB3LYP) =  -75.3100149305     A.U. after    9 cycles
             Convg  =    0.3393D-08             -V/T =  2.0097

 **********************************************************************

            Population analysis using the SCF density.

 **********************************************************************

 Orbital symmetries:
       Occupied  (A1) (A1) (B2) (A1) (B1)
       Virtual   (A1) (B2)
 The electronic state is 1-A1.
 Alpha  occ. eigenvalues --  -18.82862  -0.92845  -0.45058  -0.21666  -0.14044
 Alpha virt. eigenvalues --    0.34549   0.48114
          Condensed to atoms (all electrons):
              1          2          3
     1  O    7.857735   0.258010   0.258010
     2  H    0.258010   0.597452  -0.042340
     3  H    0.258010  -0.042340   0.597452
 Mulliken atomic charges:
              1
     1  O   -0.373756
     2  H    0.186878
     3  H    0.186878
 Sum of Mulliken atomic charges =   0.00000
 Mulliken charges with hydrogens summed into heavy atoms:
              1
     1  O    0.000000
 Sum of Mulliken charges with hydrogens summed into heavy atoms =   0.00000
 Electronic spatial extent (au):  <R**2>=             17.8699
 Charge=              0.0000 electrons
 Dipole moment (field-independent basis, Debye):
    X=              0.0000    Y=              0.0000    Z=             -1.6464  Tot=              1.6464
 Quadrupole moment (field-independent basis, Debye-Ang):
   XX=             -6.0960   YY=             -4.2164   ZZ=             -5.4597
   XY=              0.0000   XZ=              0.0000   YZ=              0.0000
 Traceless Quadrupole moment (field-independent basis, Debye-Ang):
   XX=             -0.8386   YY=              1.0409   ZZ=             -0.2024
   XY=              0.0000   XZ=              0.0000   YZ=              0.0000
 Octapole moment (field-independent basis, Debye-Ang**2):
  XXX=              0.0000  YYY=              0.0000  ZZZ=             -0.1385  XYY=              0.0000
  XXY=              0.0000  XXZ=              0.0018  XZZ=              0.0000  YZZ=              0.0000
  YYZ=             -0.5670  XYZ=              0.0000
 Hexadecapole moment (field-independent basis, Debye-Ang**3):
 XXXX=             -3.2334 YYYY=             -6.6026 ZZZZ=             -4.7242 XXXY=              0.0000
 XXXZ=              0.0000 YYYX=              0.0000 YYYZ=              0.0000 ZZZX=              0.0000
 ZZZY=              0.0000 XXYY=             -1.8189 XXZZ=             -1.3544 YYZZ=             -1.7134
 XXYZ=              0.0000 YYXZ=              0.0000 ZZXY=              0.0000
 N-N= 9.157115984281D+00 E-N=-1.969202109042D+02  KE= 7.458763675590D+01
 Symmetry A1   KE= 6.662671184106D+01
 Symmetry A2   KE= 0.000000000000D+00
 Symmetry B1   KE= 5.057462452019D+00
 Symmetry B2   KE= 2.903462462818D+00
 Calling FoFJK, ICntrl=      2127 FMM=F ISym2X=1 I1Cent= 0 IOpClX= 0 NMat=1 NMatS=1 NMatT=0.
 ***** Axes restored to original set *****
 -------------------------------------------------------------------
 Center     Atomic                   Forces (Hartrees/Bohr)
 Number     Number              X              Y              Z
 -------------------------------------------------------------------
      1        8          -0.066312869   -0.093830539    0.000000000
      2        1           0.063939823    0.025159721    0.000000000
      3        1           0.002373045    0.068670818    0.000000000
 -------------------------------------------------------------------
 Cartesian Forces:  Max     0.093830539 RMS     0.050159957

 GradGradGradGradGradGradGradGradGradGradGradGradGradGradGradGradGradGrad
 Berny optimization.
 Internal  Forces:  Max     0.063939823 RMS     0.058480488
 Search for a local minimum.
 Step number   1 out of a maximum of   20
 All quantities printed in internal units (Hartrees-Bohrs-Radians)
 Mixed Optimization -- RFO/linear search
 Second derivative matrix not updated -- first step.
 The second derivative matrix:
                          R1        R2        A1
           R1           0.55473
           R2           0.00000   0.55473
           A1           0.00000   0.00000   0.16000
     Eigenvalues ---    0.16000   0.55473   0.55473
 RFO step:  Lambda=-2.53365118D-02 EMin= 1.60000000D-01
 Linear search not attempted -- first point.
 Iteration  1 RMS(Cart)=  0.10054563 RMS(Int)=  0.03436358
 Iteration  2 RMS(Cart)=  0.03934246 RMS(Int)=  0.00068686
 Iteration  3 RMS(Cart)=  0.00051001 RMS(Int)=  0.00000005
 Iteration  4 RMS(Cart)=  0.00000006 RMS(Int)=  0.00000000
 ClnCor:  largest displacement from symmetrization is 2.89D-15 for atom     3.
 Variable       Old X    -DE/DX   Delta X   Delta X   Delta X     New X
                                 (Linear)    (Quad)   (Total)
    R1        1.81414   0.06394   0.00000   0.11023   0.11023   1.92436
    R2        1.81414   0.06394   0.00000   0.11023   0.11023   1.92436
    A1        1.91114  -0.04564   0.00000  -0.24627  -0.24627   1.66486
         Item               Value     Threshold  Converged?
 Maximum Force            0.063940     0.000450     NO 
 RMS     Force            0.058480     0.000300     NO 
 Maximum Displacement     0.135143     0.001800     NO 
 RMS     Displacement     0.126327     0.001200     NO 
 Predicted change in Energy=-1.374443D-02
 GradGradGradGradGradGradGradGradGradGradGradGradGradGradGradGradGradGrad

                          Input orientation:                          
 ---------------------------------------------------------------------
 Center     Atomic      Atomic             Coordinates (Angstroms)
 Number     Number       Type             X           Y           Z
 ---------------------------------------------------------------------
      1          8           0       -0.251018    0.344619   -0.055442
      2          1           0        0.759601    0.469696   -0.055442
      3          1           0       -0.470468    1.339023   -0.055442
 ---------------------------------------------------------------------
                    Distance matrix (angstroms):
                    1          2          3
     1  O    0.000000
     2  H    1.018330   0.000000
     3  H    1.018330   1.506253   0.000000
 Stoichiometry    H2O
 Framework group  C2V[C2(O),SGV(H2)]
 Deg. of freedom     2
 Full point group                 C2V     NOp   4
 Largest Abelian subgroup         C2V     NOp   4
 Largest concise Abelian subgroup C2      NOp   2
                         Standard orientation:                         
 ---------------------------------------------------------------------
 Center     Atomic      Atomic             Coordinates (Angstroms)
 Number     Number       Type             X           Y           Z
 ---------------------------------------------------------------------
      1          8           0        0.000000    0.000000    0.137083
      2          1           0        0.000000    0.753127   -0.548333
      3          1           0        0.000000   -0.753127   -0.548333
 ---------------------------------------------------------------------
 Rotational constants (GHZ):    600.9495048    442.0445365    254.6960335
 Standard basis: STO-3G (5D, 7F)
 There are     4 symmetry adapted basis functions of A1  symmetry.
 There are     0 symmetry adapted basis functions of A2  symmetry.
 There are     1 symmetry adapted basis functions of B1  symmetry.
 There are     2 symmetry adapted basis functions of B2  symmetry.
 Integral buffers will be    262144 words long.
 Raffenetti 2 integral format.
 Two-electron integral symmetry is turned on.
     7 basis functions,    21 primitive gaussians,     7 cartesian basis functions
     5 alpha electrons        5 beta electrons
       nuclear repulsion energy         8.6657522513 Hartrees.
 NAtoms=    3 NActive=    3 NUniq=    2 SFac= 1.69D+00 NAtFMM=   80 NAOKFM=F Big=F
 One-electron integrals computed using PRISM.
 NBasis=     7 RedAO= T  NBF=     4     0     1     2
 NBsUse=     7 1.00D-06 NBFU=     4     0     1     2
 Initial guess read from the read-write file.
 B after Tr=     0.000000    0.000000    0.000000
         Rot=    1.000000    0.000000    0.000000    0.000000 Ang=   0.00 deg.
 Initial guess orbital symmetries:
       Occupied  (A1) (A1) (B2) (A1) (B1)
       Virtual   (A1) (B2)
 Harris functional with IExCor=  402 diagonalized for initial guess.
 ExpMin= 1.69D-01 ExpMax= 1.31D+02 ExpMxC= 1.31D+02 IAcc=1 IRadAn=         1 AccDes= 0.00D+00
 HarFok:  IExCor=  402 AccDes= 0.00D+00 IRadAn=         1 IDoV= 1
 ScaDFX=  1.000000  1.000000  1.000000  1.000000
 FoFCou: FMM=F IPFlag=           0 FMFlag=      100000 FMFlg1=           0
         NFxFlg=           0 DoJE=T BraDBF=F KetDBF=T FulRan=T
         Omega=  0.000000  0.000000  1.000000  0.000000  0.000000 ICntrl=     500 IOpCl=  0
         NMat0=    1 NMatS0=    1 NMatT0=    0 NMatD0=    1 NMtDS0=    0 NMtDT0=    0
         I1Cent=           4 NGrid=           0.
 Petite list used in FoFCou.
 Requested convergence on RMS density matrix=1.00D-08 within 128 cycles.
 Requested convergence on MAX density matrix=1.00D-06.
 Requested convergence on             energy=1.00D-06.
 No special actions if energy rises.
 Keep R1 ints in memory in canonical form, NReq=886514.
 Integral accuracy reduced to 1.0D-05 until final iterations.
 Initial convergence to 1.0D-05 achieved.  Increase integral accuracy.
 SCF Done:  E(RB3LYP) =  -75.3224644174     A.U. after    9 cycles
             Convg  =    0.1871D-08             -V/T =  2.0112
 Calling FoFJK, ICntrl=      2127 FMM=F ISym2X=1 I1Cent= 0 IOpClX= 0 NMat=1 NMatS=1 NMatT=0.
 ***** Axes restored to original set *****
 -------------------------------------------------------------------
 Center     Atomic                   Forces (Hartrees/Bohr)
 Number     Number              X              Y              Z
 -------------------------------------------------------------------
      1        8          -0.002712693   -0.003838372    0.000000000
      2        1           0.009812205   -0.004056823    0.000000000
      3        1          -0.007099511    0.007895196    0.000000000
 -------------------------------------------------------------------
 Cartesian Forces:  Max     0.009812205 RMS     0.005244745

 GradGradGradGradGradGradGradGradGradGradGradGradGradGradGradGradGradGrad
 Berny optimization.
 Using GEDIIS/GDIIS optimizer.
 Internal  Forces:  Max     0.010066912 RMS     0.009523379
 Search for a local minimum.
 Step number   2 out of a maximum of   20
 All quantities printed in internal units (Hartrees-Bohrs-Radians)
 Mixed Optimization -- RFO/linear search
 Update second derivatives using D2CorX and points    1    2
 DE= -1.24D-02 DEPred=-1.37D-02 R= 9.06D-01
 SS=  1.41D+00  RLast= 2.91D-01 DXNew= 5.0454D-01 8.7439D-01
 Trust test= 9.06D-01 RLast= 2.91D-01 DXMaxT set to 5.05D-01
 The second derivative matrix:
                          R1        R2        A1
           R1           0.50953
           R2          -0.04520   0.50953
           A1          -0.01429  -0.01429   0.21342
 Use linear search instead of GDIIS.
     Eigenvalues ---    0.21181   0.46594   0.55473
 RFO step:  Lambda=-8.89449364D-04 EMin= 2.11807815D-01
 Quartic linear search produced a step of -0.01715.
 Iteration  1 RMS(Cart)=  0.04050605 RMS(Int)=  0.00058004
 Iteration  2 RMS(Cart)=  0.00038309 RMS(Int)=  0.00000012
 Iteration  3 RMS(Cart)=  0.00000014 RMS(Int)=  0.00000000
 ClnCor:  largest displacement from symmetrization is 6.89D-15 for atom     3.
 Variable       Old X    -DE/DX   Delta X   Delta X   Delta X     New X
                                 (Linear)    (Quad)   (Total)
    R1        1.92436   0.00924  -0.00189   0.02328   0.02139   1.94575
    R2        1.92436   0.00924  -0.00189   0.02328   0.02139   1.94575
    A1        1.66486   0.01007   0.00422   0.04562   0.04984   1.71470
         Item               Value     Threshold  Converged?
 Maximum Force            0.010067     0.000450     NO 
 RMS     Force            0.009523     0.000300     NO 
 Maximum Displacement     0.043408     0.001800     NO 
 RMS     Displacement     0.040528     0.001200     NO 
 Predicted change in Energy=-4.499476D-04
 GradGradGradGradGradGradGradGradGradGradGradGradGradGradGradGradGradGrad

                          Input orientation:                          
 ---------------------------------------------------------------------
 Center     Atomic      Atomic             Coordinates (Angstroms)
 Number     Number       Type             X           Y           Z
 ---------------------------------------------------------------------
      1          8           0       -0.246566    0.350919   -0.055442
      2          1           0        0.778120    0.451885   -0.055442
      3          1           0       -0.493439    1.350534   -0.055442
 ---------------------------------------------------------------------
                    Distance matrix (angstroms):
                    1          2          3
     1  O    0.000000
     2  H    1.029648   0.000000
     3  H    1.029648   1.557058   0.000000
 Stoichiometry    H2O
 Framework group  C2V[C2(O),SGV(H2)]
 Deg. of freedom     2
 Full point group                 C2V     NOp   4
 Largest Abelian subgroup         C2V     NOp   4
 Largest concise Abelian subgroup C2      NOp   2
                         Standard orientation:                         
 ---------------------------------------------------------------------
 Center     Atomic      Atomic             Coordinates (Angstroms)
 Number     Number       Type             X           Y           Z
 ---------------------------------------------------------------------
      1          8           0        0.000000    0.000000    0.134769
      2          1           0        0.000000    0.778529   -0.539077
      3          1           0        0.000000   -0.778529   -0.539077
 ---------------------------------------------------------------------
 Rotational constants (GHZ):    621.7653892    413.6683904    248.4028364
 Standard basis: STO-3G (5D, 7F)
 There are     4 symmetry adapted basis functions of A1  symmetry.
 There are     0 symmetry adapted basis functions of A2  symmetry.
 There are     1 symmetry adapted basis functions of B1  symmetry.
 There are     2 symmetry adapted basis functions of B2  symmetry.
 Integral buffers will be    262144 words long.
 Raffenetti 2 integral format.
 Two-electron integral symmetry is turned on.
     7 basis functions,    21 primitive gaussians,     7 cartesian basis functions
     5 alpha electrons        5 beta electrons
       nuclear repulsion energy         8.5628933817 Hartrees.
 NAtoms=    3 NActive=    3 NUniq=    2 SFac= 1.69D+00 NAtFMM=   80 NAOKFM=F Big=F
 One-electron integrals computed using PRISM.
 NBasis=     7 RedAO= T  NBF=     4     0     1     2
 NBsUse=     7 1.00D-06 NBFU=     4     0     1     2
 Initial guess read from the read-write file.
 B after Tr=     0.000000    0.000000    0.000000
         Rot=    1.000000    0.000000    0.000000    0.000000 Ang=   0.00 deg.
 Initial guess orbital symmetries:
       Occupied  (A1) (A1) (B2) (A1) (B1)
       Virtual   (A1) (B2)
 Harris functional with IExCor=  402 diagonalized for initial guess.
 ExpMin= 1.69D-01 ExpMax= 1.31D+02 ExpMxC= 1.31D+02 IAcc=1 IRadAn=         1 AccDes= 0.00D+00
 HarFok:  IExCor=  402 AccDes= 0.00D+00 IRadAn=         1 IDoV= 1
 ScaDFX=  1.000000  1.000000  1.000000  1.000000
 FoFCou: FMM=F IPFlag=           0 FMFlag=      100000 FMFlg1=           0
         NFxFlg=           0 DoJE=T BraDBF=F KetDBF=T FulRan=T
         Omega=  0.000000  0.000000  1.000000  0.000000  0.000000 ICntrl=     500 IOpCl=  0
         NMat0=    1 NMatS0=    1 NMatT0=    0 NMatD0=    1 NMtDS0=    0 NMtDT0=    0
         I1Cent=           4 NGrid=           0.
 Petite list used in FoFCou.
 Requested convergence on RMS density matrix=1.00D-08 within 128 cycles.
 Requested convergence on MAX density matrix=1.00D-06.
 Requested convergence on             energy=1.00D-06.
 No special actions if energy rises.
 Keep R1 ints in memory in canonical form, NReq=886514.
 Integral accuracy reduced to 1.0D-05 until final iterations.
 Initial convergence to 1.0D-05 achieved.  Increase integral accuracy.
 SCF Done:  E(RB3LYP) =  -75.3227108233     A.U. after    8 cycles
             Convg  =    0.4824D-08             -V/T =  2.0115
 Calling FoFJK, ICntrl=      2127 FMM=F ISym2X=1 I1Cent= 0 IOpClX= 0 NMat=1 NMatS=1 NMatT=0.
 ***** Axes restored to original set *****
 -------------------------------------------------------------------
 Center     Atomic                   Forces (Hartrees/Bohr)
 Number     Number              X              Y              Z
 -------------------------------------------------------------------
      1        8          -0.000286874   -0.000405917    0.000000000
      2        1          -0.003073915    0.002476758    0.000000000
      3        1           0.003360788   -0.002070841    0.000000000
 -------------------------------------------------------------------
 Cartesian Forces:  Max     0.003360788 RMS     0.001868262

 GradGradGradGradGradGradGradGradGradGradGradGradGradGradGradGradGradGrad
 Berny optimization.
 Using GEDIIS/GDIIS optimizer.
 Internal  Forces:  Max     0.005382432 RMS     0.003865786
 Search for a local minimum.
 Step number   3 out of a maximum of   20
 All quantities printed in internal units (Hartrees-Bohrs-Radians)
 Mixed Optimization -- RFO/linear search
 Update second derivatives using D2CorX and points    1    2    3
 DE= -2.46D-04 DEPred=-4.50D-04 R= 5.48D-01
 SS=  1.41D+00  RLast= 5.83D-02 DXNew= 8.4853D-01 1.7490D-01
 Trust test= 5.48D-01 RLast= 5.83D-02 DXMaxT set to 5.05D-01
 The second derivative matrix:
                          R1        R2        A1
           R1           0.52283
           R2          -0.03191   0.52283
           A1           0.03122   0.03122   0.28319
 Use linear search instead of GDIIS.
     Eigenvalues ---    0.27420   0.49991   0.55473
 RFO step:  Lambda=-5.57626042D-06 EMin= 2.74200359D-01
 Quartic linear search produced a step of -0.31003.
 Iteration  1 RMS(Cart)=  0.01345069 RMS(Int)=  0.00007260
 Iteration  2 RMS(Cart)=  0.00005009 RMS(Int)=  0.00000000
 Iteration  3 RMS(Cart)=  0.00000000 RMS(Int)=  0.00000000
 ClnCor:  largest displacement from symmetrization is 6.41D-15 for atom     3.
 Variable       Old X    -DE/DX   Delta X   Delta X   Delta X     New X
                                 (Linear)    (Quad)   (Total)
    R1        1.94575  -0.00282  -0.00663   0.00194  -0.00469   1.94107
    R2        1.94575  -0.00282  -0.00663   0.00194  -0.00469   1.94107
    A1        1.71470  -0.00538  -0.01545  -0.00303  -0.01848   1.69622
         Item               Value     Threshold  Converged?
 Maximum Force            0.005382     0.000450     NO 
 RMS     Force            0.003866     0.000300     NO 
 Maximum Displacement     0.014542     0.001800     NO 
 RMS     Displacement     0.013463     0.001200     NO 
 Predicted change in Energy=-6.131702D-05
 GradGradGradGradGradGradGradGradGradGradGradGradGradGradGradGradGradGrad

                          Input orientation:                          
 ---------------------------------------------------------------------
 Center     Atomic      Atomic             Coordinates (Angstroms)
 Number     Number       Type             X           Y           Z
 ---------------------------------------------------------------------
      1          8           0       -0.248692    0.347911   -0.055442
      2          1           0        0.772550    0.458077   -0.055442
      3          1           0       -0.485743    1.347351   -0.055442
 ---------------------------------------------------------------------
                    Distance matrix (angstroms):
                    1          2          3
     1  O    0.000000
     2  H    1.027168   0.000000
     3  H    1.027168   1.540815   0.000000
 Stoichiometry    H2O
 Framework group  C2V[C2(O),SGV(H2)]
 Deg. of freedom     2
 Full point group                 C2V     NOp   4
 Largest Abelian subgroup         C2V     NOp   4
 Largest concise Abelian subgroup C2      NOp   2
                         Standard orientation:                         
 ---------------------------------------------------------------------
 Center     Atomic      Atomic             Coordinates (Angstroms)
 Number     Number       Type             X           Y           Z
 ---------------------------------------------------------------------
      1          8           0        0.000000    0.000000    0.135874
      2          1           0        0.000000    0.770408   -0.543497
      3          1           0        0.000000   -0.770408   -0.543497
 ---------------------------------------------------------------------
 Rotational constants (GHZ):    611.6923941    422.4360547    249.8731390
 Standard basis: STO-3G (5D, 7F)
 There are     4 symmetry adapted basis functions of A1  symmetry.
 There are     0 symmetry adapted basis functions of A2  symmetry.
 There are     1 symmetry adapted basis functions of B1  symmetry.
 There are     2 symmetry adapted basis functions of B2  symmetry.
 Integral buffers will be    262144 words long.
 Raffenetti 2 integral format.
 Two-electron integral symmetry is turned on.
     7 basis functions,    21 primitive gaussians,     7 cartesian basis functions
     5 alpha electrons        5 beta electrons
       nuclear repulsion energy         8.5863358512 Hartrees.
 NAtoms=    3 NActive=    3 NUniq=    2 SFac= 1.69D+00 NAtFMM=   80 NAOKFM=F Big=F
 One-electron integrals computed using PRISM.
 NBasis=     7 RedAO= T  NBF=     4     0     1     2
 NBsUse=     7 1.00D-06 NBFU=     4     0     1     2
 Initial guess read from the read-write file.
 B after Tr=     0.000000    0.000000    0.000000
         Rot=    1.000000    0.000000    0.000000    0.000000 Ang=   0.00 deg.
 Initial guess orbital symmetries:
       Occupied  (A1) (A1) (B2) (A1) (B1)
       Virtual   (A1) (B2)
 Requested convergence on RMS density matrix=1.00D-08 within 128 cycles.
 Requested convergence on MAX density matrix=1.00D-06.
 Requested convergence on             energy=1.00D-06.
 No special actions if energy rises.
 Keep R1 ints in memory in canonical form, NReq=886514.
 SCF Done:  E(RB3LYP) =  -75.3227738780     A.U. after    6 cycles
             Convg  =    0.2318D-11             -V/T =  2.0114
 Calling FoFJK, ICntrl=      2127 FMM=F ISym2X=1 I1Cent= 0 IOpClX= 0 NMat=1 NMatS=1 NMatT=0.
 ***** Axes restored to original set *****
 -------------------------------------------------------------------
 Center     Atomic                   Forces (Hartrees/Bohr)
 Number     Number              X              Y              Z
 -------------------------------------------------------------------
      1        8           0.000015493    0.000021922    0.000000000
      2        1          -0.000009387   -0.000009802    0.000000000
      3        1          -0.000006106   -0.000012120    0.000000000
 -------------------------------------------------------------------
 Cartesian Forces:  Max     0.000021922 RMS     0.000011000

 GradGradGradGradGradGradGradGradGradGradGradGradGradGradGradGradGradGrad
 Berny optimization.
 Using GEDIIS/GDIIS optimizer.
 Internal  Forces:  Max     0.000016962 RMS     0.000012953
 Search for a local minimum.
 Step number   4 out of a maximum of   20
 All quantities printed in internal units (Hartrees-Bohrs-Radians)
 Mixed Optimization -- En-DIIS/RFO-DIIS
 Update second derivatives using D2CorX and points    1    2    3    4
 DE= -6.31D-05 DEPred=-6.13D-05 R= 1.03D+00
 SS=  1.41D+00  RLast= 1.96D-02 DXNew= 8.4853D-01 5.8912D-02
 Trust test= 1.03D+00 RLast= 1.96D-02 DXMaxT set to 5.05D-01
 The second derivative matrix:
                          R1        R2        A1
           R1           0.51992
           R2          -0.03481   0.51992
           A1           0.02876   0.02876   0.27752
 Use linear search instead of GDIIS.
     Eigenvalues ---    0.26983   0.49280   0.55473
 RFO step:  Lambda= 0.00000000D+00 EMin= 2.69832843D-01
 Quartic linear search produced a step of -0.00170.
 Iteration  1 RMS(Cart)=  0.00003601 RMS(Int)=  0.00000000
 Iteration  2 RMS(Cart)=  0.00000000 RMS(Int)=  0.00000000
 ClnCor:  largest displacement from symmetrization is 6.89D-15 for atom     3.
 Variable       Old X    -DE/DX   Delta X   Delta X   Delta X     New X
                                 (Linear)    (Quad)   (Total)
    R1        1.94107  -0.00001   0.00001  -0.00003  -0.00003   1.94104
    R2        1.94107  -0.00001   0.00001  -0.00003  -0.00003   1.94104
    A1        1.69622   0.00002   0.00003   0.00003   0.00007   1.69628
         Item               Value     Threshold  Converged?
 Maximum Force            0.000017     0.000450     YES
 RMS     Force            0.000013     0.000300     YES
 Maximum Displacement     0.000035     0.001800     YES
 RMS     Displacement     0.000036     0.001200     YES
 Predicted change in Energy=-8.260179D-10
 Optimization completed.
    -- Stationary point found.
                           ----------------------------
                           !   Optimized Parameters   !
                           ! (Angstroms and Degrees)  !
 --------------------------                            --------------------------
 ! Name  Definition              Value          Derivative Info.                !
 --------------------------------------------------------------------------------
 ! R1    R(1,2)                  1.0272         -DE/DX =    0.0                 !
 ! R2    R(1,3)                  1.0272         -DE/DX =    0.0                 !
 ! A1    A(2,1,3)               97.1861         -DE/DX =    0.0                 !
 --------------------------------------------------------------------------------
 GradGradGradGradGradGradGradGradGradGradGradGradGradGradGradGradGradGrad

                          Input orientation:                          
 ---------------------------------------------------------------------
 Center     Atomic      Atomic             Coordinates (Angstroms)
 Number     Number       Type             X           Y           Z
 ---------------------------------------------------------------------
      1          8           0       -0.248692    0.347911   -0.055442
      2          1           0        0.772550    0.458077   -0.055442
      3          1           0       -0.485743    1.347351   -0.055442
 ---------------------------------------------------------------------
                    Distance matrix (angstroms):
                    1          2          3
     1  O    0.000000
     2  H    1.027168   0.000000
     3  H    1.027168   1.540815   0.000000
 Stoichiometry    H2O
 Framework group  C2V[C2(O),SGV(H2)]
 Deg. of freedom     2
 Full point group                 C2V     NOp   4
 Largest Abelian subgroup         C2V     NOp   4
 Largest concise Abelian subgroup C2      NOp   2
                         Standard orientation:                         
 ---------------------------------------------------------------------
 Center     Atomic      Atomic             Coordinates (Angstroms)
 Number     Number       Type             X           Y           Z
 ---------------------------------------------------------------------
      1          8           0        0.000000    0.000000    0.135874
      2          1           0        0.000000    0.770408   -0.543497
      3          1           0        0.000000   -0.770408   -0.543497
 ---------------------------------------------------------------------
 Rotational constants (GHZ):    611.6923941    422.4360547    249.8731390

 **********************************************************************

            Population analysis using the SCF density.

 **********************************************************************

 Orbital symmetries:
       Occupied  (A1) (A1) (B2) (A1) (B1)
       Virtual   (A1) (B2)
 The electronic state is 1-A1.
 Alpha  occ. eigenvalues --  -18.85229  -0.91218  -0.40446  -0.25485  -0.14608
 Alpha virt. eigenvalues --    0.30420   0.38671
          Condensed to atoms (all electrons):
              1          2          3
     1  O    7.833167   0.232514   0.232514
     2  H    0.232514   0.656031  -0.037642
     3  H    0.232514  -0.037642   0.656031
 Mulliken atomic charges:
              1
     1  O   -0.298194
     2  H    0.149097
     3  H    0.149097
 Sum of Mulliken atomic charges =   0.00000
 Mulliken charges with hydrogens summed into heavy atoms:
              1
     1  O    0.000000
 Sum of Mulliken charges with hydrogens summed into heavy atoms =   0.00000
 Electronic spatial extent (au):  <R**2>=             18.7970
 Charge=              0.0000 electrons
 Dipole moment (field-independent basis, Debye):
    X=              0.0000    Y=              0.0000    Z=             -1.5936  Tot=              1.5936
 Quadrupole moment (field-independent basis, Debye-Ang):
   XX=             -6.1630   YY=             -4.5851   ZZ=             -5.2859
   XY=              0.0000   XZ=              0.0000   YZ=              0.0000
 Traceless Quadrupole moment (field-independent basis, Debye-Ang):
   XX=             -0.8183   YY=              0.7596   ZZ=              0.0588
   XY=              0.0000   XZ=              0.0000   YZ=              0.0000
 Octapole moment (field-independent basis, Debye-Ang**2):
  XXX=              0.0000  YYY=              0.0000  ZZZ=             -0.0665  XYY=              0.0000
  XXY=              0.0000  XXZ=              0.0571  XZZ=              0.0000  YZZ=              0.0000
  YYZ=             -0.4953  XYZ=              0.0000
 Hexadecapole moment (field-independent basis, Debye-Ang**3):
 XXXX=             -3.3068 YYYY=             -7.0768 ZZZZ=             -5.5901 XXXY=              0.0000
 XXXZ=              0.0000 YYYX=              0.0000 YYYZ=              0.0000 ZZZX=              0.0000
 ZZZY=              0.0000 XXYY=             -1.8696 XXZZ=             -1.5378 YYZZ=             -1.8269
 XXYZ=              0.0000 YYXZ=              0.0000 ZZXY=              0.0000
 N-N= 8.586335851242D+00 E-N=-1.957070776717D+02  KE= 7.447170894541D+01
 Symmetry A1   KE= 6.646920963434D+01
 Symmetry A2   KE= 0.000000000000D+00
 Symmetry B1   KE= 5.057462452019D+00
 Symmetry B2   KE= 2.945036859053D+00
 1|1|UNPC-DESKTOP-NTK9DLK|FOpt|RB3LYP|STO-3G|H2O1|LEAHW|21-Mar-2019|0||
 # opt freq b3lyp/sto-3g||Title Card Required||0,1|O,-0.2486922439,0.34
 79108346,-0.05544247|H,0.7725504618,0.4580766427,-0.05544247|H,-0.4857
 432072,1.3473506827,-0.05544247||Version=IA32W-G09RevA.02|State=1-A1|H
 F=-75.3227739|RMSD=2.318e-012|RMSF=1.100e-005|Dipole=0.3618582,0.51201
 75,0.|Quadrupole=0.3911766,0.2172445,-0.608421,-0.2455846,0.,0.|PG=C02
 V [C2(O1),SGV(H2)]||@


 "ANNA, YOU MUSN'T SPEAK OF OXIDIZED MURIATIC ACID
 ANYMORE, FROM NOW ON YOU MUST SAY CHLORINE."
   -- JENS JACOB BERZELIUS, IN 1820, TO HIS COOK, WHO HAD
 COMPLAINED OF THE SMELL OF THE FLASK SHE WAS CLEANING.
 Job cpu time:  0 days  0 hours  0 minutes  4.0 seconds.
 File lengths (MBytes):  RWF=      5 Int=      0 D2E=      0 Chk=      1 Scr=      1
 Normal termination of Gaussian 09 at Thu Mar 21 12:59:07 2019.
 Link1:  Proceeding to internal job step number  2.
 ------------------------------------------------------------------
 #N Geom=AllCheck Guess=TCheck SCRF=Check GenChk RB3LYP/STO-3G Freq
 ------------------------------------------------------------------
 1/10=4,29=7,30=1,38=1,40=1/1,3;
 2/12=2,40=1/2;
 3/6=3,11=2,14=-4,16=1,25=1,30=1,70=2,71=2,74=-5,116=1/1,2,3;
 4/5=101/1;
 5/5=2,98=1/2;
 8/6=4,10=90,11=11/1;
 11/6=1,8=1,9=11,15=111,16=1/1,2,10;
 10/6=1/2;
 6/7=2,8=2,9=2,10=2,18=1,28=1/1;
 7/8=1,10=1,25=1/1,2,3,16;
 1/10=4,30=1/3;
 99//99;
 -------------------
 Title Card Required
 -------------------
 Redundant internal coordinates taken from checkpoint file:
 C:\Google Drive\Rob Paton CSU\Project GoodVibes Guilian\media test\H2O.chk
 Charge =  0 Multiplicity = 1
 O,0,-0.2486922439,0.3479108346,-0.05544247
 H,0,0.7725504618,0.4580766427,-0.05544247
 H,0,-0.4857432072,1.3473506827,-0.05544247
 Recover connectivity data from disk.

 GradGradGradGradGradGradGradGradGradGradGradGradGradGradGradGradGradGrad
 Berny optimization.
 Initialization pass.
                           ----------------------------
                           !    Initial Parameters    !
                           ! (Angstroms and Degrees)  !
 --------------------------                            --------------------------
 ! Name  Definition              Value          Derivative Info.                !
 --------------------------------------------------------------------------------
 ! R1    R(1,2)                  1.0272         calculate D2E/DX2 analytically  !
 ! R2    R(1,3)                  1.0272         calculate D2E/DX2 analytically  !
 ! A1    A(2,1,3)               97.1861         calculate D2E/DX2 analytically  !
 --------------------------------------------------------------------------------
 Trust Radius=3.00D-01 FncErr=1.00D-07 GrdErr=1.00D-07
 Number of steps in this run=   2 maximum allowed number of steps=   2.
 GradGradGradGradGradGradGradGradGradGradGradGradGradGradGradGradGradGrad

                          Input orientation:                          
 ---------------------------------------------------------------------
 Center     Atomic      Atomic             Coordinates (Angstroms)
 Number     Number       Type             X           Y           Z
 ---------------------------------------------------------------------
      1          8           0       -0.248692    0.347911   -0.055442
      2          1           0        0.772550    0.458077   -0.055442
      3          1           0       -0.485743    1.347351   -0.055442
 ---------------------------------------------------------------------
                    Distance matrix (angstroms):
                    1          2          3
     1  O    0.000000
     2  H    1.027168   0.000000
     3  H    1.027168   1.540815   0.000000
 Stoichiometry    H2O
 Framework group  C2V[C2(O),SGV(H2)]
 Deg. of freedom     2
 Full point group                 C2V     NOp   4
 Largest Abelian subgroup         C2V     NOp   4
 Largest concise Abelian subgroup C2      NOp   2
                         Standard orientation:                         
 ---------------------------------------------------------------------
 Center     Atomic      Atomic             Coordinates (Angstroms)
 Number     Number       Type             X           Y           Z
 ---------------------------------------------------------------------
      1          8           0        0.000000    0.000000    0.135874
      2          1           0        0.000000    0.770408   -0.543497
      3          1           0        0.000000   -0.770408   -0.543497
 ---------------------------------------------------------------------
 Rotational constants (GHZ):    611.6923941    422.4360547    249.8731390
 Standard basis: STO-3G (5D, 7F)
 There are     4 symmetry adapted basis functions of A1  symmetry.
 There are     0 symmetry adapted basis functions of A2  symmetry.
 There are     1 symmetry adapted basis functions of B1  symmetry.
 There are     2 symmetry adapted basis functions of B2  symmetry.
 Integral buffers will be    262144 words long.
 Raffenetti 2 integral format.
 Two-electron integral symmetry is turned on.
     7 basis functions,    21 primitive gaussians,     7 cartesian basis functions
     5 alpha electrons        5 beta electrons
       nuclear repulsion energy         8.5863358512 Hartrees.
 NAtoms=    3 NActive=    3 NUniq=    2 SFac= 1.69D+00 NAtFMM=   80 NAOKFM=F Big=F
 One-electron integrals computed using PRISM.
 NBasis=     7 RedAO= T  NBF=     4     0     1     2
 NBsUse=     7 1.00D-06 NBFU=     4     0     1     2
 Initial guess read from the checkpoint file:  C:\Google Drive\Rob Paton CSU\Proj
 ect GoodVibes Guilian\media test\H2O.chk
 B after Tr=     0.000000    0.000000    0.000000
         Rot=    1.000000    0.000000    0.000000    0.000000 Ang=   0.00 deg.
 Initial guess orbital symmetries:
       Occupied  (A1) (A1) (B2) (A1) (B1)
       Virtual   (A1) (B2)
 Requested convergence on RMS density matrix=1.00D-08 within 128 cycles.
 Requested convergence on MAX density matrix=1.00D-06.
 Requested convergence on             energy=1.00D-06.
 No special actions if energy rises.
 Keep R1 ints in memory in canonical form, NReq=886514.
 SCF Done:  E(RB3LYP) =  -75.3227738780     A.U. after    1 cycles
             Convg  =    0.2729D-14             -V/T =  2.0114
 Range of M.O.s used for correlation:     1     7
 NBasis=     7 NAE=     5 NBE=     5 NFC=     0 NFV=     0
 NROrb=      7 NOA=     5 NOB=     5 NVA=     2 NVB=     2
 Symmetrizing basis deriv contribution to polar:
 IMax=3 JMax=2 DiffMx= 0.00D+00
 G2DrvN: will do     4 centers at a time, making    1 passes doing MaxLOS=1.
 Calling FoFCou, ICntrl=  3107 FMM=F I1Cent=   0 AccDes= 0.00D+00.
 FoFDir/FoFCou used for L=0 through L=1.
 End of G2Drv Frequency-dependent properties file   721 does not exist.
 End of G2Drv Frequency-dependent properties file   722 does not exist.
          IDoAtm=111
          Differentiating once with respect to electric field.
                with respect to dipole field.
          Differentiating once with respect to nuclear coordinates.
          Keep R1 ints in memory in canonical form, NReq=801055.
          There are     9 degrees of freedom in the 1st order CPHF.  IDoFFX=4.
      8 vectors produced by pass  0 Test12= 1.11D-16 1.11D-08 XBig12= 2.62D+00 1.14D+00.
 AX will form     8 AO Fock derivatives at one time.
      2 vectors produced by pass  1 Test12= 1.11D-16 1.11D-08 XBig12= 2.05D-03 4.42D-02.
 Inverted reduced A of dimension    10 with in-core refinement.
 Isotropic polarizability for W=    0.000000        2.91 Bohr**3.
 End of Minotr Frequency-dependent properties file   721 does not exist.
 End of Minotr Frequency-dependent properties file   722 does not exist.

 **********************************************************************

            Population analysis using the SCF density.

 **********************************************************************

 Orbital symmetries:
       Occupied  (A1) (A1) (B2) (A1) (B1)
       Virtual   (A1) (B2)
 The electronic state is 1-A1.
 Alpha  occ. eigenvalues --  -18.85229  -0.91218  -0.40446  -0.25485  -0.14608
 Alpha virt. eigenvalues --    0.30420   0.38671
          Condensed to atoms (all electrons):
              1          2          3
     1  O    7.833167   0.232514   0.232514
     2  H    0.232514   0.656031  -0.037642
     3  H    0.232514  -0.037642   0.656031
 Mulliken atomic charges:
              1
     1  O   -0.298194
     2  H    0.149097
     3  H    0.149097
 Sum of Mulliken atomic charges =   0.00000
 Mulliken charges with hydrogens summed into heavy atoms:
              1
     1  O    0.000000
 Sum of Mulliken charges with hydrogens summed into heavy atoms =   0.00000
 APT atomic charges:
              1
     1  O   -0.093149
     2  H    0.046574
     3  H    0.046574
 Sum of APT charges=   0.00000
 APT Atomic charges with hydrogens summed into heavy atoms:
              1
     1  O    0.000000
     2  H    0.000000
     3  H    0.000000
 Sum of APT charges=   0.00000
 Electronic spatial extent (au):  <R**2>=             18.7970
 Charge=              0.0000 electrons
 Dipole moment (field-independent basis, Debye):
    X=              0.0000    Y=              0.0000    Z=             -1.5936  Tot=              1.5936
 Quadrupole moment (field-independent basis, Debye-Ang):
   XX=             -6.1630   YY=             -4.5851   ZZ=             -5.2859
   XY=              0.0000   XZ=              0.0000   YZ=              0.0000
 Traceless Quadrupole moment (field-independent basis, Debye-Ang):
   XX=             -0.8183   YY=              0.7596   ZZ=              0.0588
   XY=              0.0000   XZ=              0.0000   YZ=              0.0000
 Octapole moment (field-independent basis, Debye-Ang**2):
  XXX=              0.0000  YYY=              0.0000  ZZZ=             -0.0665  XYY=              0.0000
  XXY=              0.0000  XXZ=              0.0571  XZZ=              0.0000  YZZ=              0.0000
  YYZ=             -0.4953  XYZ=              0.0000
 Hexadecapole moment (field-independent basis, Debye-Ang**3):
 XXXX=             -3.3068 YYYY=             -7.0768 ZZZZ=             -5.5901 XXXY=              0.0000
 XXXZ=              0.0000 YYYX=              0.0000 YYYZ=              0.0000 ZZZX=              0.0000
 ZZZY=              0.0000 XXYY=             -1.8696 XXZZ=             -1.5378 YYZZ=             -1.8269
 XXYZ=              0.0000 YYXZ=              0.0000 ZZXY=              0.0000
 N-N= 8.586335851242D+00 E-N=-1.957070776717D+02  KE= 7.447170894541D+01
 Symmetry A1   KE= 6.646920963434D+01
 Symmetry A2   KE= 0.000000000000D+00
 Symmetry B1   KE= 5.057462452019D+00
 Symmetry B2   KE= 2.945036859053D+00
  Exact polarizability:   0.033   0.000   5.646   0.000   0.000   3.051
 Approx polarizability:   0.030   0.000   7.097   0.000   0.000   5.373
 Calling FoFJK, ICntrl=    100127 FMM=F ISym2X=1 I1Cent= 0 IOpClX= 0 NMat=1 NMatS=1 NMatT=0.
 Full mass-weighted force constant matrix:
 Low frequencies ---  -45.4269  -37.6669    0.0006    0.0011    0.0016   10.5744
 Low frequencies --- 2016.9478 3611.8777 3836.4905
 Diagonal vibrational polarizability:
        0.0000000       0.0980762       0.1614211
 Harmonic frequencies (cm**-1), IR intensities (KM/Mole), Raman scattering
 activities (A**4/AMU), depolarization ratios for plane and unpolarized
 incident light, reduced masses (AMU), force constants (mDyne/A),
 and normal coordinates:
                     1                      2                      3
                    A1                     A1                     B2
 Frequencies --  2016.9478              3611.8777              3836.4905
 Red. masses --     1.0771                 1.0504                 1.0745
 Frc consts  --     2.5816                 8.0739                 9.3178
 IR Inten    --     2.7107                69.5590                53.6412
  Atom  AN      X      Y      Z        X      Y      Z        X      Y      Z
     1   8     0.00   0.00   0.07     0.00   0.00   0.05     0.00   0.07   0.00
     2   1     0.00  -0.45  -0.54     0.00   0.57  -0.42     0.00  -0.53   0.47
     3   1     0.00   0.45  -0.54     0.00  -0.57  -0.42     0.00  -0.53  -0.47

 -------------------
 - Thermochemistry -
 -------------------
 Temperature   298.150 Kelvin.  Pressure   1.00000 Atm.
 Atom     1 has atomic number  8 and mass  15.99491
 Atom     2 has atomic number  1 and mass   1.00783
 Atom     3 has atomic number  1 and mass   1.00783
 Molecular mass:    18.01056 amu.
 Principal axes and moments of inertia in atomic units:
                           1         2         3
     Eigenvalues --     2.95041   4.27222   7.22263
           X            0.00000   0.00000   1.00000
           Y            1.00000   0.00000   0.00000
           Z            0.00000   1.00000   0.00000
 This molecule is an asymmetric top.
 Rotational symmetry number  2.
 Rotational temperatures (Kelvin)     29.35657    20.27371    11.99201
 Rotational constants (GHZ):         611.69239   422.43605   249.87314
 Zero-point vibrational energy      56615.2 (Joules/Mol)
                                   13.53135 (Kcal/Mol)
 Vibrational temperatures:   2901.93  5196.68  5519.85
          (Kelvin)
 
 Zero-point correction=                           0.021564 (Hartree/Particle)
 Thermal correction to Energy=                    0.024397
 Thermal correction to Enthalpy=                  0.025341
 Thermal correction to Gibbs Free Energy=         0.003714
 Sum of electronic and zero-point Energies=            -75.301210
 Sum of electronic and thermal Energies=               -75.298377
 Sum of electronic and thermal Enthalpies=             -75.297433
 Sum of electronic and thermal Free Energies=          -75.319060
 
                     E (Thermal)             CV                S
                      KCal/Mol        Cal/Mol-Kelvin    Cal/Mol-Kelvin
 Total                   15.309              5.973             45.518
 Electronic               0.000              0.000              0.000
 Translational            0.889              2.981             34.608
 Rotational               0.889              2.981             10.908
 Vibrational             13.532              0.011              0.001
                       Q            Log10(Q)             Ln(Q)
 Total Bot       0.195735D-01         -1.708331         -3.933578
 Total V=0       0.162257D+09          8.210204         18.904693
 Vib (Bot)       0.120640D-09         -9.918510        -22.838212
 Vib (V=0)       0.100006D+01          0.000026          0.000059
 Electronic      0.100000D+01          0.000000          0.000000
 Translational   0.300432D+07          6.477746         14.915562
 Rotational      0.540048D+02          1.732432          3.989072
 ***** Axes restored to original set *****
 -------------------------------------------------------------------
 Center     Atomic                   Forces (Hartrees/Bohr)
 Number     Number              X              Y              Z
 -------------------------------------------------------------------
      1        8           0.000015493    0.000021922    0.000000000
      2        1          -0.000009387   -0.000009802    0.000000000
      3        1          -0.000006106   -0.000012120    0.000000000
 -------------------------------------------------------------------
 Cartesian Forces:  Max     0.000021922 RMS     0.000011000

 GradGradGradGradGradGradGradGradGradGradGradGradGradGradGradGradGradGrad
 Berny optimization.
 Internal  Forces:  Max     0.000016962 RMS     0.000012953
 Search for a local minimum.
 Step number   1 out of a maximum of    2
 All quantities printed in internal units (Hartrees-Bohrs-Radians)
 Second derivative matrix not updated -- analytic derivatives used.
 The second derivative matrix:
                          R1        R2        A1
           R1           0.49863
           R2          -0.02560   0.49863
           A1           0.03373   0.03373   0.27783
     Eigenvalues ---    0.26680   0.48407   0.52423
 Angle between quadratic step and forces=  11.62 degrees.
 Linear search not attempted -- first point.
 Iteration  1 RMS(Cart)=  0.00003681 RMS(Int)=  0.00000000
 Iteration  2 RMS(Cart)=  0.00000000 RMS(Int)=  0.00000000
 ClnCor:  largest displacement from symmetrization is 7.87D-15 for atom     3.
 Variable       Old X    -DE/DX   Delta X   Delta X   Delta X     New X
                                 (Linear)    (Quad)   (Total)
    R1        1.94107  -0.00001   0.00000  -0.00003  -0.00003   1.94104
    R2        1.94107  -0.00001   0.00000  -0.00003  -0.00003   1.94104
    A1        1.69622   0.00002   0.00000   0.00007   0.00007   1.69629
         Item               Value     Threshold  Converged?
 Maximum Force            0.000017     0.000450     YES
 RMS     Force            0.000013     0.000300     YES
 Maximum Displacement     0.000036     0.001800     YES
 RMS     Displacement     0.000037     0.001200     YES
 Predicted change in Energy=-8.508354D-10
 Optimization completed.
    -- Stationary point found.
                           ----------------------------
                           !   Optimized Parameters   !
                           ! (Angstroms and Degrees)  !
 --------------------------                            --------------------------
 ! Name  Definition              Value          Derivative Info.                !
 --------------------------------------------------------------------------------
 ! R1    R(1,2)                  1.0272         -DE/DX =    0.0                 !
 ! R2    R(1,3)                  1.0272         -DE/DX =    0.0                 !
 ! A1    A(2,1,3)               97.1861         -DE/DX =    0.0                 !
 --------------------------------------------------------------------------------
 GradGradGradGradGradGradGradGradGradGradGradGradGradGradGradGradGradGrad

 1|1|UNPC-DESKTOP-NTK9DLK|Freq|RB3LYP|STO-3G|H2O1|LEAHW|21-Mar-2019|0||
 #N Geom=AllCheck Guess=TCheck SCRF=Check GenChk RB3LYP/STO-3G Freq||Ti
 tle Card Required||0,1|O,-0.2486922439,0.3479108346,-0.05544247|H,0.77
 25504618,0.4580766427,-0.05544247|H,-0.4857432072,1.3473506827,-0.0554
 4247||Version=IA32W-G09RevA.02|State=1-A1|HF=-75.3227739|RMSD=2.729e-0
 15|RMSF=1.100e-005|ZeroPoint=0.0215636|Thermal=0.0243967|Dipole=0.3618
 582,0.5120175,0.|DipoleDeriv=0.0835756,0.0589816,0.,0.0589816,0.125348
 5,0.,0.,0.,-0.4883702,-0.23293,-0.0661663,0.,-0.1281893,0.128468,0.,0.
 ,0.,0.2441851,0.1493544,0.0071847,0.,0.0692077,-0.2538165,0.,0.,0.,0.2
 441851|Polar=4.7813808,-1.2230008,3.9152062,0.,0.,0.0325412|PG=C02V [C
 2(O1),SGV(H2)]|NImag=0||0.56353118,-0.03724123,0.53715556,0.,0.,-0.000
 13979,-0.47839276,0.00043339,0.,0.49744110,-0.10245082,-0.07195061,0.,
 0.02830947,0.07492250,0.,0.,0.00006990,0.,0.,-0.00006200,-0.08513842,0
 .03680785,0.,-0.01904834,0.07414135,0.,0.10418676,0.13969205,-0.465204
 95,0.,-0.02874286,-0.00297189,0.,-0.11094919,0.46817683,0.,0.,0.000069
 90,0.,0.,-0.00000789,0.,0.,-0.00006200||-0.00001549,-0.00002192,0.,0.0
 0000939,0.00000980,0.,0.00000611,0.00001212,0.|||@


 "ANNA, YOU MUSN'T SPEAK OF OXIDIZED MURIATIC ACID
 ANYMORE, FROM NOW ON YOU MUST SAY CHLORINE."
   -- JENS JACOB BERZELIUS, IN 1820, TO HIS COOK, WHO HAD
 COMPLAINED OF THE SMELL OF THE FLASK SHE WAS CLEANING.
 Job cpu time:  0 days  0 hours  0 minutes  2.0 seconds.
 File lengths (MBytes):  RWF=      5 Int=      0 D2E=      0 Chk=      1 Scr=      1
 Normal termination of Gaussian 09 at Thu Mar 21 12:59:09 2019.
