Job Start Time: Tue Jun 21 10:35:38 MDT 2022
SLURM Job ID: 40877
SLURM Job Name: DATS_13_exo_ii
 Entering Gaussian System, Link 0=/opt/apps/Gaussian/G16C/g16/g16
 Initial command:
 /opt/apps/Gaussian/G16C/g16/l1.exe "/tmp/Gau-341925.inp" -scrdir="/tmp/"
 Entering Link 1 = /opt/apps/Gaussian/G16C/g16/l1.exe PID=    341926.
  
 Copyright (c) 1988-2019, Gaussian, Inc.  All Rights Reserved.
  
 This is part of the Gaussian(R) 16 program.  It is based on
 the Gaussian(R) 09 system (copyright 2009, Gaussian, Inc.),
 the Gaussian(R) 03 system (copyright 2003, Gaussian, Inc.),
 the Gaussian(R) 98 system (copyright 1998, Gaussian, Inc.),
 the Gaussian(R) 94 system (copyright 1995, Gaussian, Inc.),
 the Gaussian 92(TM) system (copyright 1992, Gaussian, Inc.),
 the Gaussian 90(TM) system (copyright 1990, Gaussian, Inc.),
 the Gaussian 88(TM) system (copyright 1988, Gaussian, Inc.),
 the Gaussian 86(TM) system (copyright 1986, Carnegie Mellon
 University), and the Gaussian 82(TM) system (copyright 1983,
 Carnegie Mellon University). Gaussian is a federally registered
 trademark of Gaussian, Inc.
  
 This software contains proprietary and confidential information,
 including trade secrets, belonging to Gaussian, Inc.
  
 This software is provided under written license and may be
 used, copied, transmitted, or stored only in accord with that
 written license.
  
 The following legend is applicable only to US Government
 contracts under FAR:
  
                    RESTRICTED RIGHTS LEGEND
  
 Use, reproduction and disclosure by the US Government is
 subject to restrictions as set forth in subparagraphs (a)
 and (c) of the Commercial Computer Software - Restricted
 Rights clause in FAR 52.227-19.
  
 Gaussian, Inc.
 340 Quinnipiac St., Bldg. 40, Wallingford CT 06492
  
  
 ---------------------------------------------------------------
 Warning -- This program may not be used in any manner that
 competes with the business of Gaussian, Inc. or will provide
 assistance to any competitor of Gaussian, Inc.  The licensee
 of this program is prohibited from giving any competitor of
 Gaussian, Inc. access to this program.  By using this program,
 the user acknowledges that Gaussian, Inc. is engaged in the
 business of creating and licensing software in the field of
 computational chemistry and represents and warrants to the
 licensee that it is not a competitor of Gaussian, Inc. and that
 it will not use this program in any manner prohibited above.
 ---------------------------------------------------------------
  

 Cite this work as:
 Gaussian 16, Revision C.01,
 M. J. Frisch, G. W. Trucks, H. B. Schlegel, G. E. Scuseria, 
 M. A. Robb, J. R. Cheeseman, G. Scalmani, V. Barone, 
 G. A. Petersson, H. Nakatsuji, X. Li, M. Caricato, A. V. Marenich, 
 J. Bloino, B. G. Janesko, R. Gomperts, B. Mennucci, H. P. Hratchian, 
 J. V. Ortiz, A. F. Izmaylov, J. L. Sonnenberg, D. Williams-Young, 
 F. Ding, F. Lipparini, F. Egidi, J. Goings, B. Peng, A. Petrone, 
 T. Henderson, D. Ranasinghe, V. G. Zakrzewski, J. Gao, N. Rega, 
 G. Zheng, W. Liang, M. Hada, M. Ehara, K. Toyota, R. Fukuda, 
 J. Hasegawa, M. Ishida, T. Nakajima, Y. Honda, O. Kitao, H. Nakai, 
 T. Vreven, K. Throssell, J. A. Montgomery, Jr., J. E. Peralta, 
 F. Ogliaro, M. J. Bearpark, J. J. Heyd, E. N. Brothers, K. N. Kudin, 
 V. N. Staroverov, T. A. Keith, R. Kobayashi, J. Normand, 
 K. Raghavachari, A. P. Rendell, J. C. Burant, S. S. Iyengar, 
 J. Tomasi, M. Cossi, J. M. Millam, M. Klene, C. Adamo, R. Cammi, 
 J. W. Ochterski, R. L. Martin, K. Morokuma, O. Farkas, 
 J. B. Foresman, and D. J. Fox, Gaussian, Inc., Wallingford CT, 2019.
 
 ******************************************
 Gaussian 16:  AS64L-G16RevC.01  3-Jul-2019
                21-Jun-2022 
 ******************************************
 %chk=DATS_13_exo_ii.chk
 %nprocshared=16
 Will use up to   16 processors via shared memory.
 -------------------------------------------------
 # opt=(calcfc,ts,noeigentest) freq 6-31g(d) m062x
 -------------------------------------------------
 1/5=1,10=4,11=1,18=20,26=3,38=1/1,3;
 2/9=110,12=2,17=6,18=5,40=1/2;
 3/5=1,6=6,7=1,11=2,25=1,30=1,71=2,74=-55,140=1/1,2,3;
 4//1;
 5/5=2,38=5/2;
 8/6=4,10=90,11=11/1;
 11/6=1,8=1,9=11,15=111,16=1/1,2,10;
 10/6=1,13=1/2;
 6/7=2,8=2,9=2,10=2,28=1/1;
 7/10=1,25=1/1,2,3,16;
 1/5=1,10=4,11=1,18=20,26=3/3(2);
 2/9=110/2;
 99//99;
 2/9=110/2;
 3/5=1,6=6,7=1,11=2,25=1,30=1,71=1,74=-55/1,2,3;
 4/5=5,16=3,69=1/1;
 5/5=2,38=5/2;
 7//1,2,3,16;
 1/5=1,11=1,18=20,26=3/3(-5);
 2/9=110/2;
 6/7=2,8=2,9=2,10=2,19=2,28=1/1;
 99/9=1/99;
 -------------------
 Title Card Required
 -------------------
 Symbolic Z-matrix:
 Charge =  0 Multiplicity = 1
 C                    -0.65472  -1.21953  -0.75681 
 C                     0.53005  -0.66952   0.75872 
 C                    -0.71546   1.85777   0.23984 
 C                    -1.61489  -0.24838  -1.04517 
 H                     0.0893   -1.45837  -1.51165 
 H                    -0.99825  -2.06562  -0.16637 
 H                    -1.56873   0.35482  -1.94397 
 C                     1.24349   0.41887   0.26737 
 C                     0.59649   1.64482  -0.04017 
 H                     1.05543  -1.58685   1.00166 
 H                    -1.21132   2.75564  -0.11606 
 H                    -0.33099  -0.4757    1.39145 
 H                    -1.25099   1.28121   0.98387 
 C                    -2.7743   -0.15562  -0.18713 
 O                    -2.85319  -0.70371   0.90692 
 H                    -3.60524   0.48585  -0.5466 
 O                     1.33423   2.56505  -0.84876 
 C                     0.71862   3.85429  -0.78737 
 H                     1.37685   4.58433  -1.21006 
 H                    -0.19799   3.83849  -1.33917 
 H                     0.51636   4.10473   0.23306 
 H                     2.2475    0.36057  -0.09795 
 
 Add virtual bond connecting atoms C2         and C1         Dist= 3.78D+00.

 GradGradGradGradGradGradGradGradGradGradGradGradGradGradGradGradGradGrad
 Berny optimization.
 Initialization pass.
                           ----------------------------
                           !    Initial Parameters    !
                           ! (Angstroms and Degrees)  !
 --------------------------                            --------------------------
 ! Name  Definition              Value          Derivative Info.                !
 --------------------------------------------------------------------------------
 ! R1    R(1,2)                  2.0008         calculate D2E/DX2 analytically  !
 ! R2    R(1,4)                  1.3958         calculate D2E/DX2 analytically  !
 ! R3    R(1,5)                  1.0865         calculate D2E/DX2 analytically  !
 ! R4    R(1,6)                  1.0874         calculate D2E/DX2 analytically  !
 ! R5    R(2,8)                  1.391          calculate D2E/DX2 analytically  !
 ! R6    R(2,10)                 1.0847         calculate D2E/DX2 analytically  !
 ! R7    R(2,12)                 1.086          calculate D2E/DX2 analytically  !
 ! R8    R(3,9)                  1.3583         calculate D2E/DX2 analytically  !
 ! R9    R(3,11)                 1.0857         calculate D2E/DX2 analytically  !
 ! R10   R(3,13)                 1.083          calculate D2E/DX2 analytically  !
 ! R11   R(4,7)                  1.0834         calculate D2E/DX2 analytically  !
 ! R12   R(4,14)                 1.4454         calculate D2E/DX2 analytically  !
 ! R13   R(8,9)                  1.4199         calculate D2E/DX2 analytically  !
 ! R14   R(8,22)                 1.07           calculate D2E/DX2 analytically  !
 ! R15   R(9,17)                 1.43           calculate D2E/DX2 analytically  !
 ! R16   R(14,15)                1.2262         calculate D2E/DX2 analytically  !
 ! R17   R(14,16)                1.1096         calculate D2E/DX2 analytically  !
 ! R18   R(17,18)                1.43           calculate D2E/DX2 analytically  !
 ! R19   R(18,19)                1.07           calculate D2E/DX2 analytically  !
 ! R20   R(18,20)                1.07           calculate D2E/DX2 analytically  !
 ! R21   R(18,21)                1.07           calculate D2E/DX2 analytically  !
 ! A1    A(2,1,4)              111.8743         calculate D2E/DX2 analytically  !
 ! A2    A(2,1,5)              100.4388         calculate D2E/DX2 analytically  !
 ! A3    A(2,1,6)               89.408          calculate D2E/DX2 analytically  !
 ! A4    A(4,1,5)              118.7188         calculate D2E/DX2 analytically  !
 ! A5    A(4,1,6)              115.8627         calculate D2E/DX2 analytically  !
 ! A6    A(5,1,6)              114.9945         calculate D2E/DX2 analytically  !
 ! A7    A(1,2,8)              104.5509         calculate D2E/DX2 analytically  !
 ! A8    A(1,2,10)             102.9436         calculate D2E/DX2 analytically  !
 ! A9    A(1,2,12)              91.1976         calculate D2E/DX2 analytically  !
 ! A10   A(8,2,10)             119.4982         calculate D2E/DX2 analytically  !
 ! A11   A(8,2,12)             118.217          calculate D2E/DX2 analytically  !
 ! A12   A(10,2,12)            113.8588         calculate D2E/DX2 analytically  !
 ! A13   A(9,3,11)             120.2132         calculate D2E/DX2 analytically  !
 ! A14   A(9,3,13)             122.3982         calculate D2E/DX2 analytically  !
 ! A15   A(11,3,13)            116.0819         calculate D2E/DX2 analytically  !
 ! A16   A(1,4,7)              121.9683         calculate D2E/DX2 analytically  !
 ! A17   A(1,4,14)             118.2823         calculate D2E/DX2 analytically  !
 ! A18   A(7,4,14)             119.4021         calculate D2E/DX2 analytically  !
 ! A19   A(2,8,9)              121.2218         calculate D2E/DX2 analytically  !
 ! A20   A(2,8,22)             124.0019         calculate D2E/DX2 analytically  !
 ! A21   A(9,8,22)             113.6188         calculate D2E/DX2 analytically  !
 ! A22   A(3,9,8)              122.0611         calculate D2E/DX2 analytically  !
 ! A23   A(3,9,17)             120.929          calculate D2E/DX2 analytically  !
 ! A24   A(8,9,17)             116.2962         calculate D2E/DX2 analytically  !
 ! A25   A(4,14,15)            123.5456         calculate D2E/DX2 analytically  !
 ! A26   A(4,14,16)            116.4555         calculate D2E/DX2 analytically  !
 ! A27   A(15,14,16)           119.9518         calculate D2E/DX2 analytically  !
 ! A28   A(9,17,18)            109.5            calculate D2E/DX2 analytically  !
 ! A29   A(17,18,19)           109.4712         calculate D2E/DX2 analytically  !
 ! A30   A(17,18,20)           109.4712         calculate D2E/DX2 analytically  !
 ! A31   A(17,18,21)           109.4712         calculate D2E/DX2 analytically  !
 ! A32   A(19,18,20)           109.4713         calculate D2E/DX2 analytically  !
 ! A33   A(19,18,21)           109.4712         calculate D2E/DX2 analytically  !
 ! A34   A(20,18,21)           109.4712         calculate D2E/DX2 analytically  !
 ! D1    D(4,1,2,8)            -66.5011         calculate D2E/DX2 analytically  !
 ! D2    D(4,1,2,10)           167.9334         calculate D2E/DX2 analytically  !
 ! D3    D(4,1,2,12)            53.1036         calculate D2E/DX2 analytically  !
 ! D4    D(5,1,2,8)             60.4025         calculate D2E/DX2 analytically  !
 ! D5    D(5,1,2,10)           -65.163          calculate D2E/DX2 analytically  !
 ! D6    D(5,1,2,12)          -179.9928         calculate D2E/DX2 analytically  !
 ! D7    D(6,1,2,8)            175.7281         calculate D2E/DX2 analytically  !
 ! D8    D(6,1,2,10)            50.1626         calculate D2E/DX2 analytically  !
 ! D9    D(6,1,2,12)           -64.6672         calculate D2E/DX2 analytically  !
 ! D10   D(2,1,4,7)            108.7345         calculate D2E/DX2 analytically  !
 ! D11   D(2,1,4,14)           -78.0764         calculate D2E/DX2 analytically  !
 ! D12   D(5,1,4,7)             -7.5355         calculate D2E/DX2 analytically  !
 ! D13   D(5,1,4,14)           165.6536         calculate D2E/DX2 analytically  !
 ! D14   D(6,1,4,7)           -150.7646         calculate D2E/DX2 analytically  !
 ! D15   D(6,1,4,14)            22.4245         calculate D2E/DX2 analytically  !
 ! D16   D(1,2,8,9)             66.7481         calculate D2E/DX2 analytically  !
 ! D17   D(1,2,8,22)          -100.1598         calculate D2E/DX2 analytically  !
 ! D18   D(10,2,8,9)          -178.8757         calculate D2E/DX2 analytically  !
 ! D19   D(10,2,8,22)           14.2163         calculate D2E/DX2 analytically  !
 ! D20   D(12,2,8,9)           -32.6784         calculate D2E/DX2 analytically  !
 ! D21   D(12,2,8,22)          160.4136         calculate D2E/DX2 analytically  !
 ! D22   D(11,3,9,8)          -172.4632         calculate D2E/DX2 analytically  !
 ! D23   D(11,3,9,17)           -2.5034         calculate D2E/DX2 analytically  !
 ! D24   D(13,3,9,8)            21.1062         calculate D2E/DX2 analytically  !
 ! D25   D(13,3,9,17)         -168.9339         calculate D2E/DX2 analytically  !
 ! D26   D(1,4,14,15)           13.758          calculate D2E/DX2 analytically  !
 ! D27   D(1,4,14,16)         -168.7459         calculate D2E/DX2 analytically  !
 ! D28   D(7,4,14,15)         -172.8734         calculate D2E/DX2 analytically  !
 ! D29   D(7,4,14,16)            4.6227         calculate D2E/DX2 analytically  !
 ! D30   D(2,8,9,3)              6.0632         calculate D2E/DX2 analytically  !
 ! D31   D(2,8,9,17)          -164.3344         calculate D2E/DX2 analytically  !
 ! D32   D(22,8,9,3)           174.2363         calculate D2E/DX2 analytically  !
 ! D33   D(22,8,9,17)            3.8387         calculate D2E/DX2 analytically  !
 ! D34   D(3,9,17,18)           24.1945         calculate D2E/DX2 analytically  !
 ! D35   D(8,9,17,18)         -165.2913         calculate D2E/DX2 analytically  !
 ! D36   D(9,17,18,19)         167.7617         calculate D2E/DX2 analytically  !
 ! D37   D(9,17,18,20)         -72.2383         calculate D2E/DX2 analytically  !
 ! D38   D(9,17,18,21)          47.7617         calculate D2E/DX2 analytically  !
 --------------------------------------------------------------------------------
 Trust Radius=3.00D-01 FncErr=1.00D-07 GrdErr=1.00D-06 EigMax=2.50D+02 EigMin=1.00D-04
 Number of steps in this run=    103 maximum allowed number of steps=    132.
 Search for a saddle point of order  1.
 GradGradGradGradGradGradGradGradGradGradGradGradGradGradGradGradGradGrad

                          Input orientation:                          
 ---------------------------------------------------------------------
 Center     Atomic      Atomic             Coordinates (Angstroms)
 Number     Number       Type             X           Y           Z
 ---------------------------------------------------------------------
      1          6           0       -0.654719   -1.219530   -0.756811
      2          6           0        0.530045   -0.669520    0.758717
      3          6           0       -0.715460    1.857766    0.239837
      4          6           0       -1.614890   -0.248376   -1.045171
      5          1           0        0.089304   -1.458374   -1.511647
      6          1           0       -0.998247   -2.065619   -0.166366
      7          1           0       -1.568728    0.354823   -1.943970
      8          6           0        1.243486    0.418868    0.267372
      9          6           0        0.596492    1.644818   -0.040171
     10          1           0        1.055430   -1.586852    1.001663
     11          1           0       -1.211317    2.755636   -0.116057
     12          1           0       -0.330986   -0.475700    1.391452
     13          1           0       -1.250991    1.281209    0.983867
     14          6           0       -2.774297   -0.155623   -0.187132
     15          8           0       -2.853190   -0.703705    0.906919
     16          1           0       -3.605244    0.485849   -0.546595
     17          8           0        1.334232    2.565050   -0.848758
     18          6           0        0.718617    3.854294   -0.787369
     19          1           0        1.376850    4.584334   -1.210064
     20          1           0       -0.197990    3.838494   -1.339168
     21          1           0        0.516356    4.104733    0.233058
     22          1           0        2.247499    0.360571   -0.097950
 ---------------------------------------------------------------------
                    Distance matrix (angstroms):
                    1          2          3          4          5
     1  C    0.000000
     2  C    2.000750   0.000000
     3  C    3.235235   2.864907   0.000000
     4  C    1.395786   2.834100   2.626034   0.000000
     5  H    1.086459   2.443583   3.835639   2.141488   0.000000
     6  H    1.087430   2.267278   3.954481   2.110668   1.833383
     7  H    2.173326   3.571924   2.784945   1.083430   2.494726
     8  C    2.708594   1.391045   2.430773   3.215322   2.832152
     9  C    3.206804   2.449244   1.358296   3.079678   3.471640
    10  H    2.480275   1.084689   3.947382   3.621002   2.695669
    11  H    4.064765   3.940719   1.085682   3.170207   4.625707
    12  H    2.296328   1.085953   2.630418   2.763552   3.093586
    13  H    3.104705   2.651061   1.082955   2.566914   3.940723
    14  C    2.439066   3.475255   2.911159   1.445358   3.413460
    15  O    2.804879   3.386652   3.402355   2.356134   3.882944
    16  H    3.414397   4.487687   3.294159   2.179260   4.284975
    17  O    4.276380   3.700424   2.426217   4.080596   4.263474
    18  C    5.256489   4.784437   2.664180   4.726904   5.398616
    19  H    6.165837   5.674166   3.730167   5.686192   6.185713
    20  H    5.111883   5.025270   2.585404   4.335498   5.307456
    21  H    5.540670   4.803123   2.562475   5.012548   5.845898
    22  H    3.369523   2.178213   3.336887   4.023194   3.156724
                    6          7          8          9         10
     6  H    0.000000
     7  H    3.056773   0.000000
     8  C    3.374340   3.578084   0.000000
     9  C    4.040601   3.158594   1.419908   0.000000
    10  H    2.410622   4.396938   2.144169   3.426329   0.000000
    11  H    4.826223   3.038571   3.410801   2.123169   5.024405
    12  H    2.323763   3.653329   2.131377   2.721462   1.818995
    13  H    3.547982   3.087293   2.734851   2.143376   3.680444
    14  C    2.608231   2.190989   4.084017   3.824317   4.257753
    15  O    2.539205   3.301196   4.295573   4.279351   4.008271
    16  H    3.667560   2.473302   4.917033   4.387968   5.330579
    17  O    5.229648   3.809432   2.420760   1.430000   4.554128
    18  C    6.195049   4.337738   3.631820   2.335595   5.737608
    19  H    7.138086   5.206132   4.421731   3.258583   6.563428
    20  H    6.072431   3.792185   4.043843   2.670357   6.040275
    21  H    6.366066   4.811325   3.757059   2.476339   5.768491
    22  H    4.052893   4.239270   1.070000   2.092475   2.534291
                   11         12         13         14         15
    11  H    0.000000
    12  H    3.672751   0.000000
    13  H    1.839930   2.024664   0.000000
    14  C    3.305055   2.926456   2.399205   0.000000
    15  O    3.963492   2.578424   2.552028   1.226200   0.000000
    16  H    3.326888   3.924458   2.918462   1.109582   2.023197
    17  O    2.655747   4.127669   3.419085   4.971903   5.594789
    18  C    2.319990   4.959614   3.692885   5.351651   6.033554
    19  H    3.352551   5.940415   4.757049   6.383228   7.094943
    20  H    1.922345   5.107469   3.611787   4.890553   5.720713
    21  H    2.219639   4.800024   3.414603   5.399591   5.910076
    22  H    4.207145   3.092935   3.775888   5.049044   5.306550
                   16         17         18         19         20
    16  H    0.000000
    17  O    5.367756   0.000000
    18  C    5.486362   1.430000   0.000000
    19  H    6.485294   2.051796   1.070000   0.000000
    20  H    4.845387   2.051796   1.070000   1.747303   0.000000
    21  H    5.540015   2.051796   1.070000   1.747303   1.747303
    22  H    5.871250   2.501499   3.875420   4.453650   4.429106
                   21         22
    21  H    0.000000
    22  H    4.138256   0.000000
 Stoichiometry    C8H12O2
 Framework group  C1[X(C8H12O2)]
 Deg. of freedom    60
 Full point group                 C1      NOp   1
 Largest Abelian subgroup         C1      NOp   1
 Largest concise Abelian subgroup C1      NOp   1
                         Standard orientation:                         
 ---------------------------------------------------------------------
 Center     Atomic      Atomic             Coordinates (Angstroms)
 Number     Number       Type             X           Y           Z
 ---------------------------------------------------------------------
      1          6           0       -1.620524    0.948152    0.958983
      2          6           0       -0.672954    1.746423   -0.611965
      3          6           0        0.594017   -0.823070   -0.598364
      4          6           0       -1.417704   -0.430250    1.043198
      5          1           0       -1.244468    1.580947    1.758074
      6          1           0       -2.569822    1.262717    0.531918
      7          1           0       -0.797525   -0.872790    1.813493
      8          6           0        0.678395    1.590381   -0.321250
      9          6           0        1.274316    0.303007   -0.260558
     10          1           0       -1.095236    2.743893   -0.669253
     11          1           0        1.034879   -1.800122   -0.425985
     12          1           0       -1.139165    1.032753   -1.284732
     13          1           0       -0.285276   -0.802229   -1.230188
     14          6           0       -2.176901   -1.289210    0.162934
     15          8           0       -2.801263   -0.880453   -0.810029
     16          1           0       -2.140739   -2.376532    0.381098
     17          8           0        2.553674    0.226395    0.373693
     18          6           0        3.167333   -1.026753    0.060735
     19          1           0        4.197100   -1.001804    0.350316
     20          1           0        2.666994   -1.810856    0.589643
     21          1           0        3.097076   -1.205270   -0.991927
     22          1           0        1.301025    2.369678    0.065954
 ---------------------------------------------------------------------
 Rotational constants (GHZ):           2.2051554           0.8264340           0.7015286
 Standard basis: 6-31G(d) (6D, 7F)
 There are   174 symmetry adapted cartesian basis functions of A   symmetry.
 There are   174 symmetry adapted basis functions of A   symmetry.
   174 basis functions,   328 primitive gaussians,   174 cartesian basis functions
    38 alpha electrons       38 beta electrons
       nuclear repulsion energy       526.0620325203 Hartrees.
 NAtoms=   22 NActive=   22 NUniq=   22 SFac= 1.00D+00 NAtFMM=   60 NAOKFM=F Big=F
 Integral buffers will be    131072 words long.
 Raffenetti 2 integral format.
 Two-electron integral symmetry is turned on.
 One-electron integrals computed using PRISM.
 NBasis=   174 RedAO= T EigKep=  1.93D-03  NBF=   174
 NBsUse=   174 1.00D-06 EigRej= -1.00D+00 NBFU=   174
 ExpMin= 1.61D-01 ExpMax= 5.48D+03 ExpMxC= 8.25D+02 IAcc=3 IRadAn=         5 AccDes= 0.00D+00
 Harris functional with IExCor= 1009 and IRadAn=       5 diagonalized for initial guess.
 HarFok:  IExCor= 1009 AccDes= 0.00D+00 IRadAn=         5 IDoV= 1 UseB2=F ITyADJ=14
 ICtDFT=  3500011 ScaDFX=  1.000000  1.000000  1.000000  1.000000
 FoFCou: FMM=F IPFlag=           0 FMFlag=      100000 FMFlg1=           0
         NFxFlg=           0 DoJE=T BraDBF=F KetDBF=T FulRan=T
         wScrn=  0.000000 ICntrl=       500 IOpCl=  0 I1Cent=   200000004 NGrid=           0
         NMat0=    1 NMatS0=      1 NMatT0=    0 NMatD0=    1 NMtDS0=    0 NMtDT0=    0
 Petite list used in FoFCou.
 Requested convergence on RMS density matrix=1.00D-08 within 128 cycles.
 Requested convergence on MAX density matrix=1.00D-06.
 Requested convergence on             energy=1.00D-06.
 No special actions if energy rises.
 Integral accuracy reduced to 1.0D-05 until final iterations.
 Initial convergence to 1.0D-05 achieved.  Increase integral accuracy.
 SCF Done:  E(RM062X) =  -462.169713424     A.U. after   16 cycles
            NFock= 16  Conv=0.95D-08     -V/T= 2.0084
 DoSCS=F DFT=T ScalE2(SS,OS)=  1.000000  1.000000
 Range of M.O.s used for correlation:     1   174
 NBasis=   174 NAE=    38 NBE=    38 NFC=     0 NFV=     0
 NROrb=    174 NOA=    38 NOB=    38 NVA=   136 NVB=   136
 Symmetrizing basis deriv contribution to polar:
 IMax=3 JMax=2 DiffMx= 0.00D+00
 G2DrvN: will do    23 centers at a time, making    1 passes.
 Calling FoFCou, ICntrl=  3107 FMM=F I1Cent=   0 AccDes= 0.00D+00.
 End of G2Drv F.D. properties file   721 does not exist.
 End of G2Drv F.D. properties file   722 does not exist.
 End of G2Drv F.D. properties file   788 does not exist.
          IDoAtm=1111111111111111111111
          Differentiating once with respect to nuclear coordinates.
 CalDSu exits because no D1Ps are significant.
          There are    69 degrees of freedom in the 1st order CPHF.  IDoFFX=6 NUNeed=     0.
     63 vectors produced by pass  0 Test12= 7.49D-15 1.45D-09 XBig12= 8.25D-02 1.17D-01.
 AX will form    63 AO Fock derivatives at one time.
     63 vectors produced by pass  1 Test12= 7.49D-15 1.45D-09 XBig12= 7.14D-03 1.64D-02.
     63 vectors produced by pass  2 Test12= 7.49D-15 1.45D-09 XBig12= 1.17D-04 1.56D-03.
     63 vectors produced by pass  3 Test12= 7.49D-15 1.45D-09 XBig12= 7.37D-07 1.13D-04.
     63 vectors produced by pass  4 Test12= 7.49D-15 1.45D-09 XBig12= 2.61D-09 5.13D-06.
     63 vectors produced by pass  5 Test12= 7.49D-15 1.45D-09 XBig12= 6.91D-12 3.28D-07.
     30 vectors produced by pass  6 Test12= 7.49D-15 1.45D-09 XBig12= 1.89D-14 1.41D-08.
 InvSVY:  IOpt=1 It=  1 EMax= 4.44D-16
 Solved reduced A of dimension   408 with    69 vectors.
 End of Minotr F.D. properties file   721 does not exist.
 End of Minotr F.D. properties file   722 does not exist.
 End of Minotr F.D. properties file   788 does not exist.

 **********************************************************************

            Population analysis using the SCF Density.

 **********************************************************************

 Orbital symmetries:
       Occupied  (A) (A) (A) (A) (A) (A) (A) (A) (A) (A) (A) (A)
                 (A) (A) (A) (A) (A) (A) (A) (A) (A) (A) (A) (A)
                 (A) (A) (A) (A) (A) (A) (A) (A) (A) (A) (A) (A)
                 (A) (A)
       Virtual   (A) (A) (A) (A) (A) (A) (A) (A) (A) (A) (A) (A)
                 (A) (A) (A) (A) (A) (A) (A) (A) (A) (A) (A) (A)
                 (A) (A) (A) (A) (A) (A) (A) (A) (A) (A) (A) (A)
                 (A) (A) (A) (A) (A) (A) (A) (A) (A) (A) (A) (A)
                 (A) (A) (A) (A) (A) (A) (A) (A) (A) (A) (A) (A)
                 (A) (A) (A) (A) (A) (A) (A) (A) (A) (A) (A) (A)
                 (A) (A) (A) (A) (A) (A) (A) (A) (A) (A) (A) (A)
                 (A) (A) (A) (A) (A) (A) (A) (A) (A) (A) (A) (A)
                 (A) (A) (A) (A) (A) (A) (A) (A) (A) (A) (A) (A)
                 (A) (A) (A) (A) (A) (A) (A) (A) (A) (A) (A) (A)
                 (A) (A) (A) (A) (A) (A) (A) (A) (A) (A) (A) (A)
                 (A) (A) (A) (A)
 The electronic state is 1-A.
 Alpha  occ. eigenvalues --  -19.66650 -19.61708 -10.61837 -10.61115 -10.58978
 Alpha  occ. eigenvalues --  -10.57038 -10.56698 -10.56247 -10.55694 -10.54913
 Alpha  occ. eigenvalues --   -1.16606  -1.14004  -0.92446  -0.87058  -0.82800
 Alpha  occ. eigenvalues --   -0.80372  -0.73891  -0.70849  -0.61959  -0.60661
 Alpha  occ. eigenvalues --   -0.59477  -0.57305  -0.55138  -0.54466  -0.51583
 Alpha  occ. eigenvalues --   -0.50284  -0.48043  -0.47698  -0.46105  -0.45034
 Alpha  occ. eigenvalues --   -0.43387  -0.43142  -0.42169  -0.40744  -0.37738
 Alpha  occ. eigenvalues --   -0.31209  -0.29482  -0.26365
 Alpha virt. eigenvalues --   -0.03719   0.04094   0.10614   0.13746   0.14252
 Alpha virt. eigenvalues --    0.16099   0.16611   0.17888   0.18236   0.19414
 Alpha virt. eigenvalues --    0.20824   0.21212   0.22255   0.23206   0.24341
 Alpha virt. eigenvalues --    0.25467   0.27975   0.31668   0.32859   0.33883
 Alpha virt. eigenvalues --    0.37297   0.39887   0.40729   0.44790   0.52302
 Alpha virt. eigenvalues --    0.56275   0.57168   0.57913   0.59337   0.60872
 Alpha virt. eigenvalues --    0.62059   0.63234   0.64004   0.65237   0.66460
 Alpha virt. eigenvalues --    0.67331   0.68830   0.71525   0.72046   0.77553
 Alpha virt. eigenvalues --    0.80283   0.80912   0.82447   0.84553   0.87508
 Alpha virt. eigenvalues --    0.88520   0.90381   0.92368   0.92730   0.93785
 Alpha virt. eigenvalues --    0.95106   0.95471   0.95555   0.97693   1.00509
 Alpha virt. eigenvalues --    1.01415   1.02583   1.04466   1.05128   1.06647
 Alpha virt. eigenvalues --    1.07240   1.11082   1.15014   1.16222   1.18334
 Alpha virt. eigenvalues --    1.21222   1.23490   1.25615   1.27664   1.28289
 Alpha virt. eigenvalues --    1.32211   1.39722   1.41230   1.43651   1.44887
 Alpha virt. eigenvalues --    1.50151   1.54790   1.55423   1.60020   1.63088
 Alpha virt. eigenvalues --    1.64036   1.69357   1.75974   1.78318   1.81470
 Alpha virt. eigenvalues --    1.82794   1.87435   1.88441   1.90302   1.92913
 Alpha virt. eigenvalues --    1.94631   1.98387   1.99074   2.02371   2.05215
 Alpha virt. eigenvalues --    2.06554   2.11698   2.13453   2.14300   2.18062
 Alpha virt. eigenvalues --    2.19359   2.19984   2.24784   2.25076   2.30602
 Alpha virt. eigenvalues --    2.30702   2.33807   2.38140   2.39538   2.43298
 Alpha virt. eigenvalues --    2.44454   2.48521   2.55942   2.57370   2.58692
 Alpha virt. eigenvalues --    2.62190   2.62622   2.67715   2.68151   2.75441
 Alpha virt. eigenvalues --    2.81279   2.86453   2.97013   3.05943   3.09158
 Alpha virt. eigenvalues --    3.14549   3.96043   4.08139   4.16455   4.21600
 Alpha virt. eigenvalues --    4.27316   4.31848   4.34638   4.40086   4.55475
 Alpha virt. eigenvalues --    4.61392
          Condensed to atoms (all electrons):
               1          2          3          4          5          6
     1  C    5.173771   0.103739  -0.009126   0.476241   0.375421   0.385133
     2  C    0.103739   5.198837  -0.020839  -0.016637  -0.016261  -0.021828
     3  C   -0.009126  -0.020839   5.352134   0.057794   0.000583   0.000952
     4  C    0.476241  -0.016637   0.057794   5.290073  -0.029478  -0.045028
     5  H    0.375421  -0.016261   0.000583  -0.029478   0.515455  -0.029724
     6  H    0.385133  -0.021828   0.000952  -0.045028  -0.029724   0.489991
     7  H   -0.039964   0.000602  -0.002662   0.365661  -0.004023   0.003805
     8  C   -0.025676   0.519581  -0.087519  -0.024889  -0.004246   0.000821
     9  C   -0.015459  -0.036297   0.534376  -0.005271  -0.000232   0.000340
    10  H   -0.011585   0.374734   0.000417   0.001732  -0.000856  -0.001142
    11  H    0.000296   0.000255   0.367905  -0.000754  -0.000003  -0.000004
    12  H   -0.023719   0.368692   0.003084  -0.018031   0.002223  -0.004801
    13  H   -0.005474   0.004165   0.351866  -0.020353   0.000003  -0.000022
    14  C   -0.027836  -0.004021  -0.001168   0.359442   0.004010  -0.006706
    15  O    0.003872  -0.006411  -0.008511  -0.100662   0.000393   0.009761
    16  H    0.008631  -0.000276   0.000548  -0.115800  -0.000073   0.000613
    17  O    0.000061   0.002992  -0.069707   0.000097  -0.000008  -0.000000
    18  C   -0.000004  -0.000127  -0.015571  -0.000115  -0.000001  -0.000000
    19  H    0.000000   0.000003   0.001037  -0.000001  -0.000000  -0.000000
    20  H   -0.000012   0.000015  -0.001372   0.000028   0.000000   0.000000
    21  H    0.000006  -0.000041   0.006374   0.000019  -0.000000  -0.000000
    22  H    0.000350  -0.045712   0.008587  -0.000053   0.000667  -0.000058
               7          8          9         10         11         12
     1  C   -0.039964  -0.025676  -0.015459  -0.011585   0.000296  -0.023719
     2  C    0.000602   0.519581  -0.036297   0.374734   0.000255   0.368692
     3  C   -0.002662  -0.087519   0.534376   0.000417   0.367905   0.003084
     4  C    0.365661  -0.024889  -0.005271   0.001732  -0.000754  -0.018031
     5  H   -0.004023  -0.004246  -0.000232  -0.000856  -0.000003   0.002223
     6  H    0.003805   0.000821   0.000340  -0.001142  -0.000004  -0.004801
     7  H    0.529001   0.000716  -0.001154  -0.000039   0.000071   0.000038
     8  C    0.000716   4.951537   0.542556  -0.027922   0.004657  -0.031326
     9  C   -0.001154   0.542556   4.458040   0.003661  -0.032670  -0.011253
    10  H   -0.000039  -0.027922   0.003661   0.505226  -0.000004  -0.029045
    11  H    0.000071   0.004657  -0.032670  -0.000004   0.518264  -0.000004
    12  H    0.000038  -0.031326  -0.011253  -0.029045  -0.000004   0.494095
    13  H    0.000061  -0.007875  -0.015026  -0.000010  -0.028960   0.008358
    14  C   -0.026401  -0.000336  -0.000160   0.000072   0.000349   0.000668
    15  O    0.002911   0.000366  -0.000011  -0.000004   0.000050   0.016446
    16  H    0.001218  -0.000005   0.000055   0.000001   0.000211   0.000372
    17  O    0.000114  -0.047738   0.268071  -0.000035  -0.008091  -0.000009
    18  C   -0.000014   0.003739  -0.049660   0.000002   0.003158   0.000001
    19  H   -0.000000  -0.000046   0.004453  -0.000000   0.000118   0.000000
    20  H    0.000014  -0.000407  -0.008576   0.000000   0.000617  -0.000000
    21  H    0.000003   0.000582  -0.005494   0.000000   0.000167  -0.000006
    22  H    0.000002   0.360053  -0.033197  -0.004469  -0.000159   0.003601
              13         14         15         16         17         18
     1  C   -0.005474  -0.027836   0.003872   0.008631   0.000061  -0.000004
     2  C    0.004165  -0.004021  -0.006411  -0.000276   0.002992  -0.000127
     3  C    0.351866  -0.001168  -0.008511   0.000548  -0.069707  -0.015571
     4  C   -0.020353   0.359442  -0.100662  -0.115800   0.000097  -0.000115
     5  H    0.000003   0.004010   0.000393  -0.000073  -0.000008  -0.000001
     6  H   -0.000022  -0.006706   0.009761   0.000613  -0.000000  -0.000000
     7  H    0.000061  -0.026401   0.002911   0.001218   0.000114  -0.000014
     8  C   -0.007875  -0.000336   0.000366  -0.000005  -0.047738   0.003739
     9  C   -0.015026  -0.000160  -0.000011   0.000055   0.268071  -0.049660
    10  H   -0.000010   0.000072  -0.000004   0.000001  -0.000035   0.000002
    11  H   -0.028960   0.000349   0.000050   0.000211  -0.008091   0.003158
    12  H    0.008358   0.000668   0.016446   0.000372  -0.000009   0.000001
    13  H    0.487193   0.004765   0.009827   0.000081   0.002435   0.000189
    14  C    0.004765   4.586726   0.524076   0.374467   0.000002  -0.000004
    15  O    0.009827   0.524076   8.073661  -0.057519  -0.000000   0.000000
    16  H    0.000081   0.374467  -0.057519   0.667804  -0.000000  -0.000001
    17  O    0.002435   0.000002  -0.000000  -0.000000   8.270124   0.230329
    18  C    0.000189  -0.000004   0.000000  -0.000001   0.230329   4.924048
    19  H   -0.000006  -0.000000   0.000000  -0.000000  -0.028324   0.387797
    20  H   -0.000032  -0.000002  -0.000000   0.000001  -0.038952   0.384023
    21  H   -0.000044   0.000002   0.000000  -0.000000  -0.037335   0.377252
    22  H   -0.000028  -0.000005  -0.000001  -0.000000  -0.000188  -0.000089
              19         20         21         22
     1  C    0.000000  -0.000012   0.000006   0.000350
     2  C    0.000003   0.000015  -0.000041  -0.045712
     3  C    0.001037  -0.001372   0.006374   0.008587
     4  C   -0.000001   0.000028   0.000019  -0.000053
     5  H   -0.000000   0.000000  -0.000000   0.000667
     6  H   -0.000000   0.000000  -0.000000  -0.000058
     7  H   -0.000000   0.000014   0.000003   0.000002
     8  C   -0.000046  -0.000407   0.000582   0.360053
     9  C    0.004453  -0.008576  -0.005494  -0.033197
    10  H   -0.000000   0.000000   0.000000  -0.004469
    11  H    0.000118   0.000617   0.000167  -0.000159
    12  H    0.000000  -0.000000  -0.000006   0.003601
    13  H   -0.000006  -0.000032  -0.000044  -0.000028
    14  C   -0.000000  -0.000002   0.000002  -0.000005
    15  O    0.000000  -0.000000   0.000000  -0.000001
    16  H   -0.000000   0.000001  -0.000000  -0.000000
    17  O   -0.028324  -0.038952  -0.037335  -0.000188
    18  C    0.387797   0.384023   0.377252  -0.000089
    19  H    0.508618  -0.033261  -0.026266  -0.000023
    20  H   -0.033261   0.585118  -0.049862   0.000034
    21  H   -0.026266  -0.049862   0.565719   0.000032
    22  H   -0.000023   0.000034   0.000032   0.529410
 Mulliken charges:
               1
     1  C   -0.368666
     2  C   -0.405166
     3  C   -0.469180
     4  C   -0.174015
     5  H    0.186148
     6  H    0.217895
     7  H    0.170040
     8  C   -0.126622
     9  C    0.402908
    10  H    0.189265
    11  H    0.174530
    12  H    0.220614
    13  H    0.208886
    14  C    0.212060
    15  O   -0.468244
    16  H    0.119672
    17  O   -0.543839
    18  C   -0.244949
    19  H    0.185901
    20  H    0.162624
    21  H    0.168893
    22  H    0.181245
 Sum of Mulliken charges =  -0.00000
 Mulliken charges with hydrogens summed into heavy atoms:
               1
     1  C    0.035377
     2  C    0.004713
     3  C   -0.085764
     4  C   -0.003975
     8  C    0.054623
     9  C    0.402908
    14  C    0.331732
    15  O   -0.468244
    17  O   -0.543839
    18  C    0.272469
 APT charges:
               1
     1  C   -0.995417
     2  C   -0.858462
     3  C   -0.811013
     4  C   -0.420263
     5  H    0.473839
     6  H    0.575519
     7  H    0.363164
     8  C   -0.454974
     9  C    0.068291
    10  H    0.657737
    11  H    0.490692
    12  H    0.307723
    13  H    0.333480
    14  C   -0.491084
    15  O   -0.107939
    16  H    0.457158
    17  O   -0.313338
    18  C   -1.212032
    19  H    0.825157
    20  H    0.236640
    21  H    0.321841
    22  H    0.553281
 Sum of APT charges =  -0.00000
 APT charges with hydrogens summed into heavy atoms:
               1
     1  C    0.053942
     2  C    0.106998
     3  C    0.013158
     4  C   -0.057099
     8  C    0.098307
     9  C    0.068291
    14  C   -0.033926
    15  O   -0.107939
    17  O   -0.313338
    18  C    0.171606
 Electronic spatial extent (au):  <R**2>=           1705.8640
 Charge=             -0.0000 electrons
 Dipole moment (field-independent basis, Debye):
    X=              2.1963    Y=             -0.0834    Z=              1.1743  Tot=              2.4919
 Quadrupole moment (field-independent basis, Debye-Ang):
   XX=            -66.5122   YY=            -53.6018   ZZ=            -62.4731
   XY=             -7.6692   XZ=             -4.9742   YZ=             -1.3435
 Traceless Quadrupole moment (field-independent basis, Debye-Ang):
   XX=             -5.6499   YY=              7.2606   ZZ=             -1.6107
   XY=             -7.6692   XZ=             -4.9742   YZ=             -1.3435
 Octapole moment (field-independent basis, Debye-Ang**2):
  XXX=             44.3374  YYY=              1.2588  ZZZ=              1.6568  XYY=              0.4612
  XXY=             -4.5072  XXZ=              9.7321  XZZ=              3.2007  YZZ=             -0.4364
  YYZ=              3.3775  XYZ=              4.7898
 Hexadecapole moment (field-independent basis, Debye-Ang**3):
 XXXX=          -1440.4195 YYYY=           -506.0345 ZZZZ=           -229.9153 XXXY=            -71.9108
 XXXZ=            -27.1132 YYYX=              3.0859 YYYZ=              1.8616 ZZZX=             14.4530
 ZZZY=              5.3372 XXYY=           -309.6973 XXZZ=           -297.4963 YYZZ=           -130.3841
 XXYZ=            -15.6678 YYXZ=              1.4767 ZZXY=             -5.1334
 N-N= 5.260620325203D+02 E-N=-2.128173252418D+03  KE= 4.583001495862D+02
  Exact polarizability:       0.000       0.000       0.000       0.000       0.000       0.000
 Approx polarizability:     156.635      13.513     143.188      -3.010      -4.092      95.249
 Calling FoFJK, ICntrl=    100127 FMM=F ISym2X=0 I1Cent= 0 IOpClX= 0 NMat=1 NMatS=1 NMatT=0.
 ***** Axes restored to original set *****
 -------------------------------------------------------------------
 Center     Atomic                   Forces (Hartrees/Bohr)
 Number     Number              X              Y              Z
 -------------------------------------------------------------------
      1        6          -0.003953526   -0.001072328   -0.005484830
      2        6           0.005012475    0.011462495   -0.000904018
      3        6          -0.013533787    0.001218229    0.001421386
      4        6           0.010362699   -0.002703706    0.000900350
      5        1          -0.000548182    0.000461147    0.000859780
      6        1           0.000255022    0.000342686    0.000852566
      7        1          -0.000060826    0.000139177   -0.000023635
      8        6          -0.009972907    0.008785384    0.000082420
      9        6           0.017437220    0.009547825   -0.020371419
     10        1           0.002028053   -0.000404647   -0.001755835
     11        1          -0.003066134   -0.005590256    0.003687228
     12        1          -0.002991137   -0.002190181   -0.000025593
     13        1           0.003832355    0.000659611    0.000371833
     14        6          -0.005722927    0.000080784    0.007345926
     15        8           0.000426115    0.001816324   -0.004787468
     16        1           0.000208772   -0.000398708    0.000180884
     17        8          -0.021975942   -0.014575390    0.029979378
     18        6           0.014915369   -0.017042077   -0.006504649
     19        1           0.012768630    0.005707058   -0.007949829
     20        1          -0.013578785    0.004776545   -0.010683453
     21        1          -0.003831466    0.006697830    0.016044939
     22        1           0.011988909   -0.007717799   -0.003235961
 -------------------------------------------------------------------
 Cartesian Forces:  Max     0.029979378 RMS     0.008668679
 FormGI is forming the generalized inverse of G from B-inverse, IUseBI=4.

 GradGradGradGradGradGradGradGradGradGradGradGradGradGradGradGradGradGrad
 Berny optimization.
 Internal  Forces:  Max     0.055421343 RMS     0.008908339
 Search for a saddle point.
 Step number   1 out of a maximum of  103
 All quantities printed in internal units (Hartrees-Bohrs-Radians)
 Swapping is turned off.
 Second derivative matrix not updated -- analytic derivatives used.
 ITU=  0
     Eigenvalues ---   -0.05976  -0.00325   0.00440   0.01059   0.01184
     Eigenvalues ---    0.01398   0.01884   0.02379   0.02429   0.02626
     Eigenvalues ---    0.02932   0.03468   0.03878   0.04039   0.04326
     Eigenvalues ---    0.05145   0.06011   0.06679   0.07846   0.08206
     Eigenvalues ---    0.09281   0.09460   0.09495   0.10672   0.11051
     Eigenvalues ---    0.11372   0.12386   0.13510   0.13793   0.14271
     Eigenvalues ---    0.16493   0.17999   0.19092   0.19484   0.19910
     Eigenvalues ---    0.23783   0.24282   0.26717   0.31695   0.31898
     Eigenvalues ---    0.33772   0.36190   0.36376   0.36786   0.36932
     Eigenvalues ---    0.37307   0.37590   0.37873   0.38259   0.39215
     Eigenvalues ---    0.39681   0.40058   0.40787   0.41551   0.48438
     Eigenvalues ---    0.52319   0.60814   0.66239   0.83696   0.90961
 Eigenvectors required to have negative eigenvalues:
                          R1        D24       D14       D20       D25
   1                   -0.66930   0.26879   0.22190  -0.22109   0.19808
                          A3        D13       R2        R13       R5
   1                    0.18700  -0.18086   0.15514  -0.15127   0.13790
 RFO step:  Lambda0=8.871884061D-05 Lambda=-1.92001767D-02.
 Linear search not attempted -- option 19 set.
 Maximum step size (   0.300) exceeded in Quadratic search.
    -- Step size scaled by   0.925
 Iteration  1 RMS(Cart)=  0.12546717 RMS(Int)=  0.05477698
 Iteration  2 RMS(Cart)=  0.09181599 RMS(Int)=  0.02442740
 Iteration  3 RMS(Cart)=  0.07786237 RMS(Int)=  0.00424157
 Iteration  4 RMS(Cart)=  0.00587795 RMS(Int)=  0.00039854
 Iteration  5 RMS(Cart)=  0.00002122 RMS(Int)=  0.00039840
 Iteration  6 RMS(Cart)=  0.00000001 RMS(Int)=  0.00039840
 Variable       Old X    -DE/DX   Delta X   Delta X   Delta X     New X
                                 (Linear)    (Quad)   (Total)
    R1        3.78087  -0.00009   0.00000  -0.07146  -0.07146   3.70941
    R2        2.63765  -0.00508   0.00000   0.00415   0.00415   2.64180
    R3        2.05311  -0.00107   0.00000  -0.00209  -0.00209   2.05102
    R4        2.05494   0.00012   0.00000   0.00061   0.00061   2.05556
    R5        2.62869  -0.00947   0.00000  -0.00287  -0.00287   2.62583
    R6        2.04977   0.00093   0.00000   0.00366   0.00366   2.05342
    R7        2.05215   0.00196   0.00000   0.00471   0.00471   2.05686
    R8        2.56681   0.01288   0.00000   0.03079   0.03079   2.59760
    R9        2.05164  -0.00443   0.00000  -0.00678  -0.00678   2.04486
   R10        2.04649  -0.00199   0.00000  -0.00581  -0.00581   2.04068
   R11        2.04739   0.00009   0.00000   0.00006   0.00006   2.04744
   R12        2.73133   0.00581   0.00000   0.01376   0.01376   2.74509
   R13        2.68324  -0.00552   0.00000  -0.01685  -0.01685   2.66639
   R14        2.02201   0.01278   0.00000   0.02663   0.02663   2.04863
   R15        2.70231  -0.02714   0.00000  -0.14173  -0.14173   2.56058
   R16        2.31718  -0.00511   0.00000  -0.00697  -0.00697   2.31021
   R17        2.09681  -0.00045   0.00000  -0.00073  -0.00073   2.09608
   R18        2.70231  -0.00469   0.00000  -0.05252  -0.05252   2.64979
   R19        2.02201   0.01489   0.00000   0.02965   0.02965   2.05165
   R20        2.02201   0.01707   0.00000   0.04594   0.04594   2.06795
   R21        2.02201   0.01759   0.00000   0.04403   0.04403   2.06604
    A1        1.95257  -0.00696   0.00000  -0.02576  -0.02574   1.92684
    A2        1.75299   0.00257   0.00000   0.02149   0.02137   1.77436
    A3        1.56046   0.00162   0.00000   0.02658   0.02654   1.58701
    A4        2.07203   0.00098   0.00000  -0.00703  -0.00694   2.06509
    A5        2.02219   0.00123   0.00000  -0.00148  -0.00127   2.02092
    A6        2.00703  -0.00031   0.00000  -0.00361  -0.00408   2.00295
    A7        1.82476  -0.00191   0.00000   0.00972   0.00963   1.83438
    A8        1.79671   0.00108   0.00000   0.00427   0.00431   1.80102
    A9        1.59170  -0.00135   0.00000   0.00051   0.00028   1.59198
   A10        2.08564  -0.00109   0.00000  -0.02649  -0.02645   2.05919
   A11        2.06328   0.00230   0.00000   0.02678   0.02673   2.09000
   A12        1.98721   0.00015   0.00000  -0.00690  -0.00685   1.98036
   A13        2.09812   0.01000   0.00000   0.05451   0.05349   2.15160
   A14        2.13625  -0.00800   0.00000  -0.06395  -0.06498   2.07127
   A15        2.02601  -0.00210   0.00000  -0.00795  -0.00903   2.01698
   A16        2.12875  -0.00073   0.00000  -0.00017  -0.00031   2.12844
   A17        2.06442   0.00174   0.00000   0.00573   0.00560   2.07001
   A18        2.08396  -0.00099   0.00000  -0.00871  -0.00884   2.07512
   A19        2.11572  -0.00238   0.00000   0.00006  -0.00021   2.11551
   A20        2.16424  -0.00601   0.00000  -0.05085  -0.05092   2.11332
   A21        1.98302   0.00812   0.00000   0.04321   0.04279   2.02581
   A22        2.13037  -0.00443   0.00000  -0.02695  -0.02732   2.10304
   A23        2.11061   0.02916   0.00000   0.09133   0.09116   2.20177
   A24        2.02975  -0.02466   0.00000  -0.05734  -0.05778   1.97197
   A25        2.15628  -0.00053   0.00000  -0.00358  -0.00358   2.15270
   A26        2.03253   0.00041   0.00000  -0.00032  -0.00032   2.03221
   A27        2.09355   0.00014   0.00000   0.00397   0.00397   2.09753
   A28        1.91114   0.05542   0.00000   0.12391   0.12391   2.03505
   A29        1.91063  -0.01242   0.00000  -0.04860  -0.04851   1.86213
   A30        1.91063   0.00755   0.00000   0.01860   0.01848   1.92912
   A31        1.91063   0.00579   0.00000   0.02483   0.02472   1.93536
   A32        1.91063  -0.00173   0.00000   0.01192   0.01200   1.92264
   A33        1.91063   0.00114   0.00000  -0.00120  -0.00109   1.90954
   A34        1.91063  -0.00033   0.00000  -0.00555  -0.00584   1.90479
    D1       -1.16066  -0.00017   0.00000   0.00030   0.00028  -1.16039
    D2        2.93099   0.00144   0.00000   0.02373   0.02371   2.95470
    D3        0.92683   0.00150   0.00000   0.03018   0.03016   0.95700
    D4        1.05422  -0.00104   0.00000  -0.00809  -0.00829   1.04593
    D5       -1.13731   0.00056   0.00000   0.01534   0.01514  -1.12217
    D6       -3.14147   0.00062   0.00000   0.02179   0.02160  -3.11987
    D7        3.06703  -0.00084   0.00000  -0.00485  -0.00464   3.06240
    D8        0.87550   0.00076   0.00000   0.01858   0.01879   0.89430
    D9       -1.12866   0.00082   0.00000   0.02502   0.02525  -1.10340
   D10        1.89777  -0.00016   0.00000   0.01575   0.01583   1.91360
   D11       -1.36269  -0.00007   0.00000  -0.01560  -0.01558  -1.37827
   D12       -0.13152   0.00131   0.00000   0.01269   0.01266  -0.11886
   D13        2.89120   0.00139   0.00000  -0.01867  -0.01874   2.87246
   D14       -2.63134  -0.00153   0.00000   0.03277   0.03279  -2.59855
   D15        0.39138  -0.00144   0.00000   0.00141   0.00139   0.39277
   D16        1.16497  -0.00080   0.00000  -0.03066  -0.03015   1.13482
   D17       -1.74812  -0.00032   0.00000   0.00606   0.00577  -1.74235
   D18       -3.12197  -0.00143   0.00000  -0.03240  -0.03200   3.12921
   D19        0.24812  -0.00095   0.00000   0.00433   0.00392   0.25204
   D20       -0.57035   0.00111   0.00000  -0.04641  -0.04611  -0.61645
   D21        2.79975   0.00159   0.00000  -0.00969  -0.01019   2.78956
   D22       -3.01005   0.00144   0.00000  -0.05774  -0.05837  -3.06842
   D23       -0.04369  -0.00043   0.00000  -0.01412  -0.01320  -0.05690
   D24        0.36837   0.00219   0.00000   0.03186   0.03095   0.39932
   D25       -2.94845   0.00032   0.00000   0.07548   0.07611  -2.87234
   D26        0.24012  -0.00047   0.00000  -0.00225  -0.00230   0.23782
   D27       -2.94517   0.00008   0.00000  -0.00008  -0.00013  -2.94530
   D28       -3.01721  -0.00038   0.00000  -0.03222  -0.03217  -3.04938
   D29        0.08068   0.00018   0.00000  -0.03005  -0.03000   0.05068
   D30        0.10582   0.00273   0.00000   0.04640   0.04593   0.15175
   D31       -2.86818  -0.00049   0.00000  -0.00933  -0.00766  -2.87583
   D32        3.04100   0.00071   0.00000   0.00219   0.00052   3.04152
   D33        0.06700  -0.00252   0.00000  -0.05354  -0.05307   0.01393
   D34        0.42227   0.00056   0.00000  -0.58821  -0.58860  -0.16633
   D35       -2.88488   0.00037   0.00000  -0.54514  -0.54475   2.85356
   D36        2.92799  -0.00032   0.00000   0.23344   0.23342  -3.12177
   D37       -1.26080  -0.00543   0.00000   0.22967   0.22936  -1.03143
   D38        0.83360   0.00234   0.00000   0.24947   0.24979   1.08339
         Item               Value     Threshold  Converged?
 Maximum Force            0.055421     0.000450     NO 
 RMS     Force            0.008908     0.000300     NO 
 Maximum Displacement     0.861004     0.001800     NO 
 RMS     Displacement     0.271048     0.001200     NO 
 Predicted change in Energy=-1.442249D-02
 GradGradGradGradGradGradGradGradGradGradGradGradGradGradGradGradGradGrad

                          Input orientation:                          
 ---------------------------------------------------------------------
 Center     Atomic      Atomic             Coordinates (Angstroms)
 Number     Number       Type             X           Y           Z
 ---------------------------------------------------------------------
      1          6           0       -0.607726   -1.072319   -0.850176
      2          6           0        0.513852   -0.702615    0.717783
      3          6           0       -0.763890    1.816759    0.486761
      4          6           0       -1.565564   -0.066995   -1.012106
      5          1           0        0.138228   -1.202851   -1.627678
      6          1           0       -0.963179   -1.996580   -0.400061
      7          1           0       -1.517254    0.645014   -1.827332
      8          6           0        1.225708    0.445159    0.391190
      9          6           0        0.571387    1.679103    0.190816
     10          1           0        1.069492   -1.627203    0.848756
     11          1           0       -1.325591    2.720442    0.289858
     12          1           0       -0.363854   -0.630095    1.357383
     13          1           0       -1.210285    1.135865    1.196169
     14          6           0       -2.751776   -0.095142   -0.174087
     15          8           0       -2.854740   -0.797400    0.821283
     16          1           0       -3.572528    0.595402   -0.456640
     17          8           0        1.351333    2.596944   -0.429890
     18          6           0        0.695883    3.704980   -0.985616
     19          1           0        1.460657    4.317438   -1.453310
     20          1           0       -0.037504    3.382870   -1.731208
     21          1           0        0.188138    4.286280   -0.211282
     22          1           0        2.251465    0.388089    0.045043
 ---------------------------------------------------------------------
                    Distance matrix (angstroms):
                    1          2          3          4          5
     1  C    0.000000
     2  C    1.962935   0.000000
     3  C    3.187249   2.834297   0.000000
     4  C    1.397981   2.778579   2.537285   0.000000
     5  H    1.085355   2.427451   3.795091   2.138225   0.000000
     6  H    1.087754   2.259545   3.920169   2.112052   1.830341
     7  H    2.175156   3.524075   2.701031   1.083459   2.488993
     8  C    2.684252   1.389529   2.418454   3.165872   2.823895
     9  C    3.169273   2.439997   1.374589   3.010388   3.435143
    10  H    2.450985   1.086624   3.918316   3.583375   2.679562
    11  H    4.024928   3.909474   1.082092   3.085856   4.605643
    12  H    2.264586   1.088445   2.627756   2.715818   3.080702
    13  H    3.070291   2.565446   1.079882   2.539602   3.906686
    14  C    2.451310   3.439299   2.836155   1.452641   3.419367
    15  O    2.813970   3.371514   3.364132   2.357283   3.888400
    16  H    3.424356   4.445517   3.204710   2.185227   4.286578
    17  O    4.180675   3.592439   2.433743   3.992973   4.164705
    18  C    4.953819   4.728805   2.804320   4.398027   4.980967
    19  H    5.804434   5.550767   3.868576   5.345646   5.679156
    20  H    4.577125   4.795075   2.810646   3.841047   4.590255
    21  H    5.454921   5.085108   2.737180   4.761071   5.669147
    22  H    3.333044   2.159054   3.365796   3.986776   3.129674
                    6          7          8          9         10
     6  H    0.000000
     7  H    3.053215   0.000000
     8  C    3.373337   3.533500   0.000000
     9  C    4.026745   3.082966   1.410993   0.000000
    10  H    2.414070   4.360695   2.128017   3.407734   0.000000
    11  H    4.780966   2.970965   3.419986   2.166269   4.995078
    12  H    2.305446   3.619204   2.148583   2.750990   1.818627
    13  H    3.524376   3.078429   2.656903   2.116648   3.598976
    14  C    2.620231   2.192052   4.053621   3.784773   4.242111
    15  O    2.551023   3.299180   4.287073   4.274213   4.011100
    16  H    3.678352   2.470913   4.874881   4.331932   5.309650
    17  O    5.143765   3.740543   2.306541   1.355000   4.422419
    18  C    5.966838   3.869090   3.578092   2.345990   5.651254
    19  H    6.844789   4.742841   4.295570   3.233383   6.386804
    20  H    5.618480   3.113640   3.838024   2.639649   5.743038
    21  H    6.390266   4.333451   4.024143   2.665696   6.072046
    22  H    4.027245   4.216046   1.084091   2.123825   2.470711
                   11         12         13         14         15
    11  H    0.000000
    12  H    3.645634   0.000000
    13  H    1.829093   1.964956   0.000000
    14  C    3.190104   2.886823   2.401911   0.000000
    15  O    3.872457   2.553411   2.565597   1.222510   0.000000
    16  H    3.181475   3.884342   2.933269   1.109199   2.021931
    17  O    2.774744   4.068168   3.367597   4.914088   5.547797
    18  C    2.585054   5.040393   3.872211   5.194792   6.011925
    19  H    3.654067   5.975526   4.927076   6.233126   7.068097
    20  H    2.486501   5.074425   3.872207   4.678511   5.650371
    21  H    2.234807   5.190004   3.723119   5.276489   6.014075
    22  H    4.277282   3.098197   3.723974   5.031298   5.299176
                   16         17         18         19         20
    16  H    0.000000
    17  O    5.315194   0.000000
    18  C    5.307412   1.402208   0.000000
    19  H    6.338758   2.004854   1.085689   0.000000
    20  H    4.678771   2.059120   1.094313   1.787493   0.000000
    21  H    5.274977   2.062684   1.093301   1.778457   1.782482
    22  H    5.849236   2.432045   3.805767   4.279045   4.166913
                   21         22
    21  H    0.000000
    22  H    4.418022   0.000000
 Stoichiometry    C8H12O2
 Framework group  C1[X(C8H12O2)]
 Deg. of freedom    60
 Full point group                 C1      NOp   1
 Largest Abelian subgroup         C1      NOp   1
 Largest concise Abelian subgroup C1      NOp   1
                         Standard orientation:                         
 ---------------------------------------------------------------------
 Center     Atomic      Atomic             Coordinates (Angstroms)
 Number     Number       Type             X           Y           Z
 ---------------------------------------------------------------------
      1          6           0       -1.457039    0.867347    1.099301
      2          6           0       -0.655341    1.785164   -0.439532
      3          6           0        0.488484   -0.781069   -0.812823
      4          6           0       -1.275876   -0.514610    0.991019
      5          1           0       -0.989400    1.384347    1.931179
      6          1           0       -2.443338    1.237973    0.829007
      7          1           0       -0.601783   -1.057320    1.642899
      8          6           0        0.712445    1.574808   -0.314224
      9          6           0        1.265251    0.280426   -0.413627
     10          1           0       -1.025815    2.802048   -0.342331
     11          1           0        0.847189   -1.801569   -0.841694
     12          1           0       -1.233945    1.177486   -1.132827
     13          1           0       -0.401097   -0.583240   -1.392178
     14          6           0       -2.151031   -1.263478    0.105882
     15          8           0       -2.874269   -0.736873   -0.727271
     16          1           0       -2.108836   -2.368765    0.188833
     17          8           0        2.536356    0.210841    0.050567
     18          6           0        3.035591   -1.070613    0.324114
     19          1           0        4.045076   -0.938090    0.701074
     20          1           0        2.415846   -1.571955    1.073843
     21          1           0        3.063664   -1.679900   -0.583238
     22          1           0        1.360841    2.339390    0.098389
 ---------------------------------------------------------------------
 Rotational constants (GHZ):           2.2156687           0.8538366           0.7280786
 Standard basis: 6-31G(d) (6D, 7F)
 There are   174 symmetry adapted cartesian basis functions of A   symmetry.
 There are   174 symmetry adapted basis functions of A   symmetry.
   174 basis functions,   328 primitive gaussians,   174 cartesian basis functions
    38 alpha electrons       38 beta electrons
       nuclear repulsion energy       530.7773926971 Hartrees.
 NAtoms=   22 NActive=   22 NUniq=   22 SFac= 1.00D+00 NAtFMM=   60 NAOKFM=F Big=F
 Integral buffers will be    131072 words long.
 Raffenetti 2 integral format.
 Two-electron integral symmetry is turned on.
 One-electron integrals computed using PRISM.
 NBasis=   174 RedAO= T EigKep=  1.88D-03  NBF=   174
 NBsUse=   174 1.00D-06 EigRej= -1.00D+00 NBFU=   174
 Initial guess from the checkpoint file:  "DATS_13_exo_ii.chk"
 B after Tr=     0.000000    0.000000   -0.000000
         Rot=    0.999684   -0.020277   -0.010617    0.010370 Ang=  -2.88 deg.
 ExpMin= 1.61D-01 ExpMax= 5.48D+03 ExpMxC= 8.25D+02 IAcc=3 IRadAn=         5 AccDes= 0.00D+00
 Harris functional with IExCor= 1009 and IRadAn=       5 diagonalized for initial guess.
 HarFok:  IExCor= 1009 AccDes= 0.00D+00 IRadAn=         5 IDoV= 1 UseB2=F ITyADJ=14
 ICtDFT=  3500011 ScaDFX=  1.000000  1.000000  1.000000  1.000000
 FoFCou: FMM=F IPFlag=           0 FMFlag=      100000 FMFlg1=           0
         NFxFlg=           0 DoJE=T BraDBF=F KetDBF=T FulRan=T
         wScrn=  0.000000 ICntrl=       500 IOpCl=  0 I1Cent=   200000004 NGrid=           0
         NMat0=    1 NMatS0=      1 NMatT0=    0 NMatD0=    1 NMtDS0=    0 NMtDT0=    0
 Petite list used in FoFCou.
 Requested convergence on RMS density matrix=1.00D-08 within 128 cycles.
 Requested convergence on MAX density matrix=1.00D-06.
 Requested convergence on             energy=1.00D-06.
 No special actions if energy rises.
 Integral accuracy reduced to 1.0D-05 until final iterations.
 Initial convergence to 1.0D-05 achieved.  Increase integral accuracy.
 SCF Done:  E(RM062X) =  -462.178931142     A.U. after   17 cycles
            NFock= 17  Conv=0.35D-08     -V/T= 2.0083
 Calling FoFJK, ICntrl=      2127 FMM=F ISym2X=0 I1Cent= 0 IOpClX= 0 NMat=1 NMatS=1 NMatT=0.
 ***** Axes restored to original set *****
 -------------------------------------------------------------------
 Center     Atomic                   Forces (Hartrees/Bohr)
 Number     Number              X              Y              Z
 -------------------------------------------------------------------
      1        6           0.000594391   -0.001122064    0.000148660
      2        6          -0.000697274    0.000463577    0.000092020
      3        6          -0.000980532   -0.001674666   -0.003069604
      4        6           0.002260679    0.002390112    0.001414102
      5        1          -0.000065869   -0.000097178    0.000090812
      6        1          -0.000331270    0.000160555    0.000100928
      7        1          -0.000660512   -0.000646699   -0.000722791
      8        6          -0.002440960    0.001150341    0.001496290
      9        6           0.000906210   -0.010091379    0.006658291
     10        1           0.000476644   -0.000017118   -0.000702798
     11        1          -0.000023999    0.001152247   -0.002144764
     12        1          -0.000269187   -0.001293560    0.000393074
     13        1           0.000423499    0.001024092    0.001287662
     14        6          -0.001451764   -0.000281606    0.000724283
     15        8           0.000051425    0.000131580   -0.000688006
     16        1           0.000166097    0.000094270    0.000063472
     17        8           0.003977570    0.003585922   -0.004063712
     18        6          -0.001909592    0.001412862    0.002516711
     19        1           0.001697921    0.001485155   -0.001782877
     20        1          -0.001775087    0.000789571   -0.001804718
     21        1          -0.001365333    0.002819574    0.000873368
     22        1           0.001416942   -0.001435591   -0.000880403
 -------------------------------------------------------------------
 Cartesian Forces:  Max     0.010091379 RMS     0.002092488

 GradGradGradGradGradGradGradGradGradGradGradGradGradGradGradGradGradGrad
 Berny optimization.
 FormGI is forming the generalized inverse of G from B-inverse, IUseBI=4.
 Internal  Forces:  Max     0.009146096 RMS     0.001931361
 Search for a saddle point.
 Step number   2 out of a maximum of  103
 All quantities printed in internal units (Hartrees-Bohrs-Radians)
 Swapping is turned off.
 Update second derivatives using D2CorX and points    1    2
 ITU=  0  0
     Eigenvalues ---   -0.05983   0.00359   0.00448   0.01060   0.01179
     Eigenvalues ---    0.01398   0.01883   0.02381   0.02504   0.02668
     Eigenvalues ---    0.02922   0.03477   0.03888   0.04052   0.04326
     Eigenvalues ---    0.05147   0.06009   0.06681   0.07845   0.08205
     Eigenvalues ---    0.09284   0.09459   0.09494   0.10663   0.11050
     Eigenvalues ---    0.11369   0.12381   0.13535   0.13789   0.14271
     Eigenvalues ---    0.16492   0.18011   0.19111   0.19501   0.19940
     Eigenvalues ---    0.23787   0.24284   0.27495   0.31793   0.31947
     Eigenvalues ---    0.33967   0.36209   0.36375   0.36786   0.36952
     Eigenvalues ---    0.37311   0.37590   0.37993   0.38259   0.39223
     Eigenvalues ---    0.39686   0.40064   0.40782   0.41589   0.48481
     Eigenvalues ---    0.52345   0.60809   0.66228   0.83696   0.91047
 Eigenvectors required to have negative eigenvalues:
                          R1        D24       D14       D20       D25
   1                    0.67156  -0.27023  -0.22343   0.22191  -0.19788
                          A3        D13       R2        R13       R5
   1                   -0.18716   0.18157  -0.15527   0.15104  -0.13789
 RFO step:  Lambda0=2.704930938D-04 Lambda=-3.40733182D-03.
 Linear search not attempted -- option 19 set.
 Iteration  1 RMS(Cart)=  0.09056171 RMS(Int)=  0.01291474
 Iteration  2 RMS(Cart)=  0.03849564 RMS(Int)=  0.00105235
 Iteration  3 RMS(Cart)=  0.00150428 RMS(Int)=  0.00019629
 Iteration  4 RMS(Cart)=  0.00000155 RMS(Int)=  0.00019629
 Iteration  5 RMS(Cart)=  0.00000000 RMS(Int)=  0.00019629
 Variable       Old X    -DE/DX   Delta X   Delta X   Delta X     New X
                                 (Linear)    (Quad)   (Total)
    R1        3.70941  -0.00134   0.00000   0.11679   0.11679   3.82620
    R2        2.64180   0.00087   0.00000  -0.01351  -0.01351   2.62829
    R3        2.05102  -0.00010   0.00000  -0.00132  -0.00132   2.04971
    R4        2.05556   0.00001   0.00000  -0.00143  -0.00143   2.05413
    R5        2.62583   0.00036   0.00000  -0.01041  -0.01041   2.61542
    R6        2.05342   0.00017   0.00000   0.00015   0.00015   2.05357
    R7        2.05686   0.00036   0.00000  -0.00028  -0.00028   2.05658
    R8        2.59760  -0.00023   0.00000  -0.00302  -0.00302   2.59457
    R9        2.04486   0.00136   0.00000   0.00402   0.00402   2.04888
   R10        2.04068   0.00003   0.00000   0.00102   0.00102   2.04170
   R11        2.04744   0.00009   0.00000   0.00037   0.00037   2.04781
   R12        2.74509   0.00107   0.00000   0.00966   0.00966   2.75476
   R13        2.66639   0.00022   0.00000  -0.00062  -0.00062   2.66577
   R14        2.04863   0.00170   0.00000   0.00374   0.00374   2.05237
   R15        2.56058   0.00915   0.00000   0.01839   0.01839   2.57897
   R16        2.31021  -0.00064   0.00000  -0.00425  -0.00425   2.30596
   R17        2.09608  -0.00008   0.00000   0.00004   0.00004   2.09612
   R18        2.64979   0.00679   0.00000   0.01491   0.01491   2.66470
   R19        2.05165   0.00280   0.00000   0.00690   0.00690   2.05856
   R20        2.06795   0.00219   0.00000   0.00324   0.00324   2.07120
   R21        2.06604   0.00275   0.00000   0.00513   0.00513   2.07117
    A1        1.92684  -0.00205   0.00000  -0.01810  -0.01803   1.90880
    A2        1.77436   0.00081   0.00000  -0.02238  -0.02233   1.75204
    A3        1.58701   0.00071   0.00000  -0.02093  -0.02081   1.56620
    A4        2.06509   0.00019   0.00000   0.01153   0.01082   2.07591
    A5        2.02092   0.00031   0.00000   0.01348   0.01288   2.03380
    A6        2.00295  -0.00008   0.00000   0.01501   0.01427   2.01722
    A7        1.83438  -0.00174   0.00000  -0.01107  -0.01096   1.82343
    A8        1.80102   0.00120   0.00000  -0.01233  -0.01232   1.78870
    A9        1.59198  -0.00027   0.00000  -0.03089  -0.03072   1.56126
   A10        2.05919   0.00002   0.00000   0.00277   0.00235   2.06154
   A11        2.09000   0.00080   0.00000   0.01872   0.01816   2.10816
   A12        1.98036  -0.00030   0.00000   0.01005   0.00941   1.98976
   A13        2.15160  -0.00178   0.00000  -0.02480  -0.02482   2.12678
   A14        2.07127   0.00074   0.00000   0.01282   0.01280   2.08408
   A15        2.01698   0.00088   0.00000   0.00894   0.00892   2.02591
   A16        2.12844  -0.00014   0.00000  -0.00089  -0.00110   2.12734
   A17        2.07001   0.00045   0.00000   0.00054   0.00034   2.07035
   A18        2.07512  -0.00038   0.00000  -0.00456  -0.00476   2.07036
   A19        2.11551  -0.00115   0.00000   0.00193   0.00193   2.11744
   A20        2.11332  -0.00053   0.00000  -0.01223  -0.01223   2.10109
   A21        2.02581   0.00148   0.00000   0.00974   0.00974   2.03555
   A22        2.10304   0.00028   0.00000   0.01345   0.01330   2.11634
   A23        2.20177  -0.00739   0.00000  -0.03893  -0.03901   2.16276
   A24        1.97197   0.00700   0.00000   0.02228   0.02211   1.99408
   A25        2.15270  -0.00011   0.00000   0.00099   0.00099   2.15369
   A26        2.03221  -0.00002   0.00000  -0.00222  -0.00222   2.02999
   A27        2.09753   0.00014   0.00000   0.00131   0.00131   2.09883
   A28        2.03505   0.00158   0.00000  -0.00452  -0.00452   2.03053
   A29        1.86213  -0.00057   0.00000  -0.00604  -0.00603   1.85609
   A30        1.92912   0.00183   0.00000   0.01703   0.01700   1.94612
   A31        1.93536   0.00228   0.00000   0.00537   0.00533   1.94068
   A32        1.92264  -0.00132   0.00000  -0.01657  -0.01655   1.90609
   A33        1.90954  -0.00102   0.00000   0.00392   0.00392   1.91346
   A34        1.90479  -0.00123   0.00000  -0.00398  -0.00405   1.90074
    D1       -1.16039   0.00030   0.00000   0.03022   0.03012  -1.13026
    D2        2.95470   0.00050   0.00000   0.03824   0.03825   2.99295
    D3        0.95700   0.00072   0.00000   0.03769   0.03768   0.99467
    D4        1.04593  -0.00007   0.00000   0.02060   0.02058   1.06650
    D5       -1.12217   0.00013   0.00000   0.02861   0.02870  -1.09347
    D6       -3.11987   0.00035   0.00000   0.02806   0.02813  -3.09174
    D7        3.06240   0.00010   0.00000   0.02847   0.02839   3.09078
    D8        0.89430   0.00031   0.00000   0.03648   0.03651   0.93081
    D9       -1.10340   0.00053   0.00000   0.03593   0.03594  -1.06746
   D10        1.91360   0.00026   0.00000  -0.00027  -0.00025   1.91335
   D11       -1.37827  -0.00036   0.00000  -0.03872  -0.03872  -1.41699
   D12       -0.11886   0.00068   0.00000   0.03577   0.03601  -0.08285
   D13        2.87246   0.00006   0.00000  -0.00269  -0.00247   2.86999
   D14       -2.59855   0.00009   0.00000  -0.02942  -0.02965  -2.62820
   D15        0.39277  -0.00053   0.00000  -0.06788  -0.06812   0.32465
   D16        1.13482  -0.00156   0.00000  -0.00496  -0.00506   1.12977
   D17       -1.74235  -0.00091   0.00000  -0.00384  -0.00394  -1.74629
   D18        3.12921  -0.00127   0.00000  -0.02673  -0.02684   3.10237
   D19        0.25204  -0.00062   0.00000  -0.02561  -0.02573   0.22631
   D20       -0.61645  -0.00044   0.00000   0.03238   0.03259  -0.58386
   D21        2.78956   0.00021   0.00000   0.03350   0.03371   2.82326
   D22       -3.06842   0.00151   0.00000   0.05332   0.05311  -3.01531
   D23       -0.05690   0.00092   0.00000   0.02265   0.02286  -0.03403
   D24        0.39932   0.00193   0.00000   0.06248   0.06226   0.46158
   D25       -2.87234   0.00134   0.00000   0.03181   0.03202  -2.84033
   D26        0.23782   0.00003   0.00000   0.01029   0.01026   0.24808
   D27       -2.94530   0.00013   0.00000   0.01256   0.01253  -2.93278
   D28       -3.04938  -0.00055   0.00000  -0.02667  -0.02664  -3.07602
   D29        0.05068  -0.00045   0.00000  -0.02440  -0.02437   0.02631
   D30        0.15175  -0.00119   0.00000  -0.03101  -0.03131   0.12044
   D31       -2.87583   0.00028   0.00000   0.00018   0.00049  -2.87534
   D32        3.04152  -0.00207   0.00000  -0.03520  -0.03551   3.00600
   D33        0.01393  -0.00060   0.00000  -0.00401  -0.00371   0.01022
   D34       -0.16633   0.00386   0.00000   0.29078   0.29061   0.12428
   D35        2.85356   0.00297   0.00000   0.26191   0.26208   3.11564
   D36       -3.12177   0.00087   0.00000  -0.09015  -0.09013   3.07128
   D37       -1.03143  -0.00004   0.00000  -0.10424  -0.10431  -1.13575
   D38        1.08339   0.00117   0.00000  -0.09421  -0.09415   0.98923
         Item               Value     Threshold  Converged?
 Maximum Force            0.009146     0.000450     NO 
 RMS     Force            0.001931     0.000300     NO 
 Maximum Displacement     0.480959     0.001800     NO 
 RMS     Displacement     0.119442     0.001200     NO 
 Predicted change in Energy=-1.962772D-03
 GradGradGradGradGradGradGradGradGradGradGradGradGradGradGradGradGradGrad

                          Input orientation:                          
 ---------------------------------------------------------------------
 Center     Atomic      Atomic             Coordinates (Angstroms)
 Number     Number       Type             X           Y           Z
 ---------------------------------------------------------------------
      1          6           0       -0.639471   -1.149327   -0.820382
      2          6           0        0.545204   -0.694414    0.757327
      3          6           0       -0.760472    1.804803    0.370947
      4          6           0       -1.561720   -0.126528   -1.014682
      5          1           0        0.110846   -1.331245   -1.582232
      6          1           0       -0.995565   -2.030326   -0.292556
      7          1           0       -1.505708    0.540511   -1.866873
      8          6           0        1.240067    0.432717    0.354530
      9          6           0        0.576220    1.650660    0.097829
     10          1           0        1.103705   -1.614870    0.904848
     11          1           0       -1.306701    2.692756    0.073111
     12          1           0       -0.340293   -0.608542    1.384150
     13          1           0       -1.216822    1.203450    1.143882
     14          6           0       -2.758999   -0.098630   -0.183543
     15          8           0       -2.887043   -0.762381    0.832368
     16          1           0       -3.560684    0.599806   -0.499544
     17          8           0        1.322176    2.560877   -0.593222
     18          6           0        0.689693    3.782700   -0.902246
     19          1           0        1.443697    4.405467   -1.382144
     20          1           0       -0.150006    3.637383   -1.591498
     21          1           0        0.323716    4.279609    0.003512
     22          1           0        2.260413    0.348668   -0.007926
 ---------------------------------------------------------------------
                    Distance matrix (angstroms):
                    1          2          3          4          5
     1  C    0.000000
     2  C    2.024739   0.000000
     3  C    3.187600   2.846079   0.000000
     4  C    1.390832   2.810986   2.508387   0.000000
     5  H    1.084659   2.463282   3.795906   2.137974   0.000000
     6  H    1.086997   2.293662   3.899195   2.113397   1.837424
     7  H    2.168193   3.552141   2.676126   1.083655   2.489525
     8  C    2.723223   1.384018   2.425911   3.168202   2.852674
     9  C    3.187624   2.436242   1.372989   2.994473   3.454119
    10  H    2.496359   1.086703   3.931204   3.606140   2.692912
    11  H    4.000641   3.920540   1.084220   3.032605   4.576263
    12  H    2.289524   1.088295   2.650918   2.734706   3.086300
    13  H    3.118850   2.618406   1.080421   2.558749   3.952098
    14  C    2.449884   3.486826   2.815071   1.457755   3.422234
    15  O    2.816539   3.433740   3.365360   2.360590   3.891175
    16  H    3.419925   4.484757   3.170324   2.188330   4.287342
    17  O    4.203008   3.608960   2.416339   3.964421   4.194529
    18  C    5.108646   4.776988   2.763345   4.512601   5.191327
    19  H    5.959103   5.602983   3.833425   5.450371   5.892910
    20  H    4.873067   4.976421   2.753581   4.061118   4.975479
    21  H    5.574933   5.035693   2.726745   4.899554   5.834516
    22  H    3.363541   2.148390   3.374852   3.980964   3.149792
                    6          7          8          9         10
     6  H    0.000000
     7  H    3.057438   0.000000
     8  C    3.388710   3.533486   0.000000
     9  C    4.021513   3.070327   1.410664   0.000000
    10  H    2.452206   4.374601   2.124631   3.404879   0.000000
    11  H    4.747423   2.904359   3.416577   2.152201   5.005745
    12  H    2.293947   3.639734   2.154502   2.756558   1.824159
    13  H    3.545365   3.096383   2.693215   2.123493   3.658539
    14  C    2.617830   2.193819   4.069937   3.776622   4.289995
    15  O    2.539848   3.300230   4.323150   4.284450   4.081429
    16  H    3.679711   2.469014   4.878992   4.309886   5.351040
    17  O    5.151842   3.701485   2.331103   1.364734   4.441712
    18  C    6.083017   4.032627   3.620052   2.357673   5.707079
    19  H    6.968260   4.885881   4.340535   3.245273   6.449060
    20  H    5.875810   3.391809   3.998651   2.707083   5.948923
    21  H    6.453173   4.563550   3.970074   2.642731   6.013790
    22  H    4.042527   4.204302   1.086069   2.131402   2.454916
                   11         12         13         14         15
    11  H    0.000000
    12  H    3.681214   0.000000
    13  H    1.836482   2.027152   0.000000
    14  C    3.157036   2.927082   2.415736   0.000000
    15  O    3.874523   2.610376   2.598302   1.220261   0.000000
    16  H    3.128707   3.921648   2.925563   1.109219   2.020726
    17  O    2.715214   4.088890   3.362537   4.888436   5.549224
    18  C    2.474851   5.056826   3.804468   5.241635   6.038186
    19  H    3.551878   5.997941   4.869506   6.275842   7.096903
    20  H    2.236333   5.188311   3.813716   4.769379   5.720527
    21  H    2.276226   5.122606   3.624425   5.357901   6.034703
    22  H    4.269148   3.101258   3.761447   5.042363   5.332620
                   16         17         18         19         20
    16  H    0.000000
    17  O    5.262784   0.000000
    18  C    5.325287   1.410099   0.000000
    19  H    6.348690   2.009895   1.089340   0.000000
    20  H    4.695951   2.079120   1.096030   1.781481   0.000000
    21  H    5.374251   2.075344   1.096018   1.786124   1.783515
    22  H    5.847216   2.473202   3.880663   4.360403   4.374182
                   21         22
    21  H    0.000000
    22  H    4.382149   0.000000
 Stoichiometry    C8H12O2
 Framework group  C1[X(C8H12O2)]
 Deg. of freedom    60
 Full point group                 C1      NOp   1
 Largest Abelian subgroup         C1      NOp   1
 Largest concise Abelian subgroup C1      NOp   1
                         Standard orientation:                         
 ---------------------------------------------------------------------
 Center     Atomic      Atomic             Coordinates (Angstroms)
 Number     Number       Type             X           Y           Z
 ---------------------------------------------------------------------
      1          6           0       -1.539620    0.894375    1.057262
      2          6           0       -0.650876    1.800531   -0.520263
      3          6           0        0.507745   -0.792069   -0.710504
      4          6           0       -1.303192   -0.474841    0.995920
      5          1           0       -1.113479    1.464454    1.875736
      6          1           0       -2.508205    1.236218    0.701524
[...]
 .00014131,-0.01550728,0.00000166,0.00027554,-0.00028380,-0.02226601,0.
 05887216,-0.00872757,-0.00197487,-0.02235565,0.15774964,0.00170072,-0.
 13210125,0.00474942,0.00147225,0.00212979,0.00284815,-0.00614172,-0.00
 234748,-0.00106147,-0.00029099,-0.00085679,0.00116600,0.00036781,0.000
 64439,0.00058548,0.00038053,0.00064004,0.00309298,-0.01086338,0.001334
 50,-0.00585019,0.00321556,-0.00187018,-0.00489224,0.00029807,0.0053386
 1,-0.00035696,-0.00039214,-0.00001488,-0.15033675,0.01103382,0.1449601
 3,-0.00086830,0.00087195,-0.00059753,0.00038378,0.00108000,0.00162941,
 -0.09673135,-0.06042745,0.09688268,-0.00211240,-0.00211174,-0.00245530
 ,-0.00002333,0.00004750,-0.00000665,0.00023378,0.00008664,0.00025533,-
 0.00011274,-0.00006618,0.00003927,-0.00066510,-0.00274712,-0.00135247,
 -0.01135352,-0.01881734,0.02053121,0.00012457,-0.00014661,-0.00055068,
 0.00871670,0.00855418,-0.01239047,0.00019962,0.00217341,-0.00018658,0.
 10652028,-0.00307283,0.00132878,-0.00186986,0.00611433,0.00103420,0.00
 014328,-0.05616369,-0.13944808,0.13968598,-0.00234126,-0.00504654,-0.0
 0505894,0.00019288,0.00020641,0.00026496,0.00025463,0.00003210,0.00025
 930,0.00003490,-0.00013734,0.00008818,-0.00093408,-0.00702159,0.000444
 63,-0.00891341,0.00713601,-0.00453956,-0.00037078,0.00001521,-0.000445
 09,-0.01048234,-0.00915070,0.01555231,0.00161930,-0.00262127,0.0010836
 1,0.07070902,0.15347292,-0.00408536,0.00206311,-0.00353223,0.00213889,
 0.00387604,0.00301598,0.10830109,0.14371919,-0.20035616,-0.00179397,-0
 .00753619,-0.00699990,0.00011996,0.00018850,0.00017456,0.00050404,0.00
 023503,0.00065867,0.00010234,0.00003011,0.00029905,-0.00011923,-0.0054
 5044,-0.00058978,-0.00861440,0.00533995,-0.00193167,-0.00060213,-0.000
 05044,-0.00014896,0.00247213,0.00224571,-0.00183850,0.00021268,0.00027
 757,0.00069725,-0.10007485,-0.14504993,0.20757201,-0.03302295,0.011282
 04,0.00703947,0.00197107,0.00381490,0.00040552,-0.00885741,-0.00773043
 ,-0.00785469,-0.21105921,0.02193098,0.08485649,0.00103189,0.00360783,0
 .00227436,-0.00165956,-0.00181854,-0.00101457,0.00665600,0.00098017,-0
 .00609096,0.00260461,0.00387359,0.00344640,0.00233671,-0.00745282,0.00
 242944,-0.00015554,-0.00041349,0.00007495,0.00071725,0.00117529,0.0007
 1254,0.00221354,0.00014530,-0.00014557,-0.00004776,-0.00150240,-0.0002
 4428,0.53952832,0.01974622,0.00281536,-0.01925375,0.00456749,0.0014035
 5,0.00209794,-0.00188368,-0.00437465,-0.00419479,0.03942634,-0.0852961
 2,0.00924614,0.00574256,-0.00302435,0.00449580,0.00082289,-0.00189746,
 -0.00215961,-0.01959570,-0.00069680,0.00871452,-0.00134821,-0.00311541
 ,0.00076825,-0.00335550,0.00131694,0.00141914,0.00011500,0.00005294,0.
 00056623,-0.00057134,-0.00130384,-0.00055207,0.00205513,0.00023523,-0.
 00021579,-0.00268887,-0.00184166,-0.00115071,-0.11855137,0.51540734,0.
 01784887,-0.01436103,0.01925090,-0.00716792,-0.00760108,-0.00374954,0.
 00468200,0.00086741,0.00568579,0.05165566,0.02487710,-0.12699122,0.000
 99093,0.00444255,0.00161033,-0.00342159,0.00172645,-0.00358866,0.01967
 509,-0.00571763,-0.00931270,-0.00298994,-0.00069709,-0.00523842,-0.003
 71224,0.00811898,-0.00257323,0.00079223,0.00046988,-0.00033311,0.00040
 131,0.00033885,-0.00085798,-0.00530849,0.00011253,-0.00141269,-0.00637
 788,-0.00609150,-0.00420313,-0.10154299,-0.33945927,0.73403005,0.00072
 677,-0.00083120,0.00025770,-0.00024512,-0.00052275,0.00155193,0.000152
 73,0.00066145,0.00138475,0.00205504,-0.02326729,0.04002033,-0.00016081
 ,-0.00188691,-0.00014934,-0.00019171,-0.00098393,0.00078842,-0.0054444
 4,0.00148132,0.00521404,-0.00086697,0.00012835,-0.00028641,0.00062549,
 0.00073407,-0.00017508,-0.00040648,-0.00001483,0.00026362,-0.00047581,
 -0.00084276,-0.00022057,0.00135087,-0.00002454,0.00066226,-0.00038686,
 0.00094853,0.00083195,-0.10810002,-0.02283597,0.06442011,0.09316557,0.
 00749338,-0.00528235,0.00278998,-0.00358000,-0.00254748,-0.00263223,-0
 .00034609,0.00205722,0.00325127,-0.02494906,0.01097663,0.01792749,-0.0
 0025156,0.00148434,-0.00125094,-0.00120954,0.00213154,-0.00036665,0.00
 164101,0.00252188,0.00114566,-0.00032401,0.00095787,-0.00152720,0.0005
 4326,0.00021839,-0.00090082,-0.00013030,0.00017037,-0.00017759,0.00009
 224,-0.00001145,-0.00006813,-0.00190317,-0.00081559,0.00021963,-0.0001
 1817,-0.00009882,0.00077447,-0.01557169,-0.28068776,0.30804436,0.03278
 283,0.28034549,-0.01359681,0.00731335,-0.00856323,0.00355813,0.0037628
 0,0.00055545,-0.00388915,-0.00233594,-0.00621626,0.04964618,0.01867198
 ,-0.04133958,-0.00021111,-0.00023968,0.00085413,0.00096577,-0.00125397
 ,0.00008190,0.00480551,0.00169379,-0.00085959,0.00148453,0.00122512,0.
 00351976,0.00224108,-0.00483853,0.00186825,-0.00055243,-0.00020880,0.0
 0039948,-0.00025264,-0.00039646,0.00047121,0.00335167,0.00005455,0.000
 66967,0.00207903,0.00170736,0.00158081,0.05262770,0.31109155,-0.533060
 45,-0.09350461,-0.36629532,0.59718642,-0.00456591,-0.00064899,0.004491
 71,0.00090758,0.00037318,0.00103171,0.00080408,0.00053472,0.00050257,-
 0.01257808,0.02176223,-0.00631228,-0.00108955,0.00113657,-0.00061758,0
 .00062634,-0.00008843,-0.00023713,-0.00013521,-0.00066495,0.00049491,-
 0.00008640,-0.00076322,0.00006861,-0.00032175,0.00069025,-0.00017592,0
 .00006405,-0.00002760,0.00001584,-0.00027254,-0.00044502,-0.00013927,0
 .00021497,-0.00004279,-0.00023880,-0.00005584,0.00011718,-0.00011618,-
 0.19467571,0.09814070,-0.03199586,0.01920252,0.00604848,-0.00743201,0.
 19212141,-0.00097055,0.00238385,0.00026899,0.00086094,0.00084840,0.001
 19052,0.00031893,0.00040840,0.00014067,0.00515989,0.00699682,0.0058358
 9,-0.00038834,0.00001010,-0.00046178,-0.00008281,0.00025488,0.00053306
 ,0.00062062,-0.00048353,-0.00099274,0.00050727,-0.00056941,0.00045207,
 -0.00047522,-0.00025761,0.00018436,0.00012435,-0.00005297,-0.00001858,
 0.00018176,0.00029541,0.00008517,0.00012602,-0.00018356,-0.00050374,0.
 00028714,-0.00013512,0.00001135,0.10378412,-0.13861771,0.02574046,0.01
 557953,-0.01143617,0.02970480,-0.12573229,0.14029329,0.00294350,0.0006
 9907,-0.00069902,0.00021538,-0.00011734,0.00046643,-0.00034200,0.00056
 239,0.00031893,0.01375357,-0.00606561,0.01191066,0.00004376,-0.0008505
 5,-0.00054427,0.00037590,-0.00011563,-0.00007496,-0.00151994,0.0000496
 8,-0.00001981,0.00002536,-0.00011568,0.00007668,-0.00010035,-0.0001405
 0,-0.00020214,0.00005816,0.00000322,0.00006488,-0.00000608,-0.00001681
 ,0.00014013,0.00057571,0.00020331,-0.00007692,0.00007032,0.00015297,0.
 00015670,-0.03540994,0.02910046,-0.06999215,-0.02117777,0.03854920,-0.
 01707010,0.04058391,-0.06183115,0.07557250,-0.00037969,-0.00168823,0.0
 0016802,-0.00321175,0.00304256,-0.00103546,-0.02839613,-0.03330850,0.0
 3158120,0.00178294,0.00036518,0.00041267,-0.00005576,-0.00017251,-0.00
 013709,-0.00031836,-0.00021348,-0.00048794,-0.00032427,-0.00003291,-0.
 00020519,0.01718161,0.00825436,-0.00408001,-0.16814504,-0.05022425,0.0
 6636269,0.00063981,0.00082417,0.00005018,0.00217384,0.00025346,-0.0014
 1113,0.00020908,0.00001417,-0.00027935,-0.00431133,0.00414569,0.001017
 22,0.00034205,0.00052462,0.00129919,-0.00051506,-0.00043007,-0.0007656
 5,-0.00003129,0.00004394,-0.00003432,0.31718119,-0.00610463,0.00001088
 ,-0.00438542,0.00992348,0.00339321,0.00260448,-0.00947864,-0.00005677,
 0.01115610,-0.00085613,-0.00697778,-0.00155171,0.00011073,-0.00007967,
 0.00010054,0.00032990,0.00020879,0.00013330,0.00003117,0.00044727,0.00
 023275,-0.02389791,-0.05168390,0.03775499,-0.08668853,-0.17869630,0.09
 458676,-0.00101780,-0.00176526,-0.00017248,-0.00123265,-0.00180587,0.0
 0002210,-0.00070590,-0.00002043,-0.00082803,0.00208302,0.00332297,0.00
 134570,0.00416639,0.00005036,-0.00179930,-0.00146845,-0.00056634,0.001
 15391,-0.00055157,0.00044829,-0.00007771,-0.02017187,0.51699829,0.0022
 0213,0.00170814,0.00058278,-0.00101541,-0.00075168,0.00388793,0.018743
 71,0.01195105,-0.00399275,-0.00018774,0.00253549,0.00035577,-0.0000211
 6,0.00023069,0.00002556,0.00024301,0.00008429,0.00055263,0.00077200,0.
 00024636,-0.00011043,0.00777844,0.01938668,-0.00934484,0.08165034,0.08
 215310,-0.11358215,0.00015487,0.00033993,0.00025953,-0.00182907,-0.001
 66144,-0.00332930,0.00010482,-0.00040428,0.00001663,0.00305992,0.00281
 997,0.00521738,-0.00162102,-0.00009926,0.00015053,0.00065374,0.0002558
 1,0.00026641,0.00020955,-0.00023714,0.00004246,-0.08773725,-0.18627504
 ,0.18855044,-0.00006763,-0.00024491,-0.00004619,0.00097651,-0.00058185
 ,0.00006884,-0.00150213,-0.00748070,0.00347122,-0.00043462,-0.00060051
 ,0.00026035,-0.00001191,-0.00003719,0.00000757,-0.00009196,0.00000282,
 -0.00016618,-0.00014642,-0.00014077,-0.00017137,-0.00289724,-0.0025653
 9,0.00413926,0.01076458,-0.01797555,0.00106094,-0.00023636,-0.00045492
 ,-0.00005678,-0.00161574,-0.00264131,0.00140718,-0.00000188,0.00009903
 ,-0.00002040,-0.00026968,0.00042777,0.00018642,0.00103315,-0.00009657,
 -0.00023234,-0.00039438,-0.00005486,0.00000799,-0.00019801,0.00017399,
 -0.00002869,-0.12892826,0.09072013,-0.01242888,0.60427167,0.00074400,0
 .00077133,0.00026440,0.00068369,-0.00070120,0.00105437,0.00248762,0.00
 512095,-0.00427601,0.00081776,0.00094075,0.00015718,0.00000337,-0.0000
 3203,-0.00000871,0.00013367,0.00004148,0.00022069,0.00000153,0.0000300
 7,-0.00008348,-0.00219026,0.00237599,-0.00137603,0.00051617,-0.0475214
 0,0.01839993,-0.00005387,0.00013349,0.00002096,0.00015672,-0.00183783,
 0.00060515,0.00011458,-0.00006416,0.00002544,0.00192704,-0.00116496,-0
 .00042841,-0.00203353,-0.00004196,0.00073612,0.00080393,0.00037259,-0.
 00054984,0.00026606,-0.00026294,0.00006203,0.06082573,-0.21173464,0.04
 136357,0.05370794,0.53582651,-0.00060849,0.00006187,-0.00051693,0.0002
 2868,0.00154928,0.00107575,0.00041453,0.00017690,-0.00013904,-0.000225
 75,-0.00076904,0.00007771,0.00004253,-0.00003198,0.00004174,0.00002108
 ,0.00003284,-0.00003032,-0.00009004,-0.00013488,-0.00012696,0.00317408
 ,0.00007937,0.00151565,-0.00801218,0.02676704,-0.01252855,0.00007803,0
 .00012389,-0.00006858,0.00017696,0.00116716,-0.00079081,-0.00007361,-0
 .00018939,-0.00011767,-0.00066035,0.00075315,0.00028085,0.00066202,-0.
 00005433,-0.00017953,-0.00019184,-0.00006797,-0.00003680,-0.00010448,0
 .00009678,0.00000468,0.00040972,0.02760054,-0.07597195,-0.02866213,-0.
 00066654,0.59777461,0.00015093,-0.00008573,0.00018402,-0.00032183,-0.0
 0008514,-0.00010832,-0.00094084,0.00027347,0.00016791,-0.00002359,0.00
 025438,0.00003461,-0.00000391,-0.00001284,-0.00001152,-0.00000981,-0.0
 0002323,-0.00003352,0.00000050,0.00003408,0.00002678,0.00053879,0.0006
 6608,-0.00043491,-0.00077066,0.00314838,-0.00074993,0.00006089,0.00007
 089,0.00001661,0.00046941,-0.00065234,0.00007890,0.00002971,-0.0000019
 0,0.00000080,0.00027174,-0.00030234,-0.00000353,0.00008722,0.00005733,
 -0.00005483,-0.00004255,-0.00006550,0.00006186,0.00001154,0.00000354,-
 0.00000007,0.01457958,0.01524272,-0.01012263,-0.20377401,-0.11895244,0
 .08962518,0.21105947,-0.00018390,0.00004073,-0.00008763,0.00059831,-0.
 00011130,0.00009584,0.00095248,-0.00000855,0.00019929,-0.00018357,-0.0
 0024593,-0.00009289,0.00000316,-0.00000724,0.00000435,0.00001861,0.000
 00804,0.00000127,0.00000342,0.00003049,0.00003897,-0.00117238,-0.00107
 964,0.00102166,0.00402091,-0.00235201,-0.00133100,-0.00010058,-0.00015
 369,-0.00001326,-0.00021342,0.00041514,-0.00031268,-0.00001242,0.00003
 589,-0.00000748,-0.00019153,0.00021965,0.00006598,0.00026294,0.0000121
 2,-0.00016860,-0.00008359,-0.00005984,0.00011377,-0.00002519,0.0000289
 1,-0.00000815,-0.01997622,-0.03161222,0.01983277,-0.10695115,-0.128991
 85,0.05967426,0.11719351,0.15438804,-0.00014240,0.00006877,-0.00012334
 ,-0.00002670,0.00024280,0.00006679,-0.00004822,0.00039380,0.00036014,0
 .00009053,-0.00008874,-0.00007915,0.00000952,0.00001085,0.00000857,0.0
 0001762,0.00001008,0.00003793,0.00003783,0.00006645,0.00003875,0.00046
 397,0.00012677,0.00004719,-0.00122996,0.00066859,0.00107589,0.00000076
 ,0.00003068,-0.00007756,-0.00014600,-0.00013791,-0.00043074,0.00002036
 ,-0.00000983,0.00001074,0.00011741,0.00001852,0.00007499,-0.00016087,0
 .00000830,0.00007774,0.00005695,0.00002664,-0.00002921,0.00002616,-0.0
 0002424,-0.00000043,0.00383390,0.00769947,-0.00434402,0.08483613,0.063
 30338,-0.10307535,-0.09206026,-0.07524598,0.10476338,0.00007810,0.0001
 0721,0.00002378,-0.00000474,-0.00003481,0.00014788,0.00003866,0.001033
 52,0.00002915,0.00007645,0.00017829,-0.00009856,-0.00000871,0.00002950
 ,-0.00000712,0.00002780,0.00001174,0.00006862,0.00010094,0.00008875,0.
 00002089,0.00024439,0.00048834,-0.00056558,-0.00168842,-0.00305056,0.0
 0265193,0.00001090,0.00005006,-0.00002695,0.00017694,-0.00065690,0.001
 25300,0.00001457,0.00001828,0.00002649,0.00015126,-0.00051513,-0.00030
 260,-0.00027991,-0.00003282,0.00009225,0.00010556,0.00004945,-0.000020
 57,0.00004041,-0.00003808,0.00000304,-0.01208752,0.01390396,-0.0111977
 8,-0.19869369,-0.03160788,-0.12375940,-0.01579435,-0.00415166,-0.01563
 883,0.21843429,-0.00038378,0.00010437,-0.00032781,0.00036087,0.0003280
 8,-0.00002529,-0.00162890,0.00077087,0.00033826,-0.00011488,-0.0006113
 7,-0.00014689,0.00001066,-0.00000798,0.00001075,0.00002650,0.00004647,
 0.00004094,-0.00008090,-0.00006298,-0.00006526,-0.00027475,-0.00152885
 ,0.00008411,0.00480996,0.00540437,-0.00198055,-0.00000154,-0.00003176,
 0.00000373,-0.00018135,-0.00036090,0.00173069,-0.00008212,0.00001796,-
 0.00004511,-0.00014665,-0.00039110,-0.00043437,0.00009054,0.00004322,-
 0.00009147,-0.00000454,-0.00001146,-0.00000922,-0.00001788,0.00000987,
 -0.00000422,0.03207026,-0.00898951,0.02762763,-0.03496086,-0.05868974,
 -0.02877230,-0.01211020,-0.00090248,-0.01266414,0.02411003,0.06472780,
 0.00026469,-0.00007696,0.00026847,-0.00027094,-0.00030589,-0.00007561,
 -0.00062306,0.00021056,-0.00028461,0.00008181,0.00035181,0.00004979,-0
 .00001137,-0.00001522,-0.00002130,-0.00000521,-0.00002169,-0.00002112,
 0.00001889,0.00010413,0.00006879,0.00021356,0.00080109,-0.00034239,-0.
 00238066,-0.00260870,0.00161023,0.00002794,0.00002119,0.00000715,0.000
 74651,0.00002171,-0.00129462,0.00005342,0.00001728,0.00001550,0.000386
 45,-0.00032966,0.00015479,-0.00012238,0.00010707,0.00000172,0.00002625
 ,-0.00005495,0.00003627,0.00004766,-0.00002544,0.00000322,-0.00541281,
 0.00964899,-0.00197007,-0.12264379,-0.02568385,-0.16003988,0.01140706,
 0.00113526,0.01091848,0.13950172,0.02209059,0.16795442,-0.00018434,0.0
 0015183,-0.00013594,0.00016499,0.00005060,0.00008915,0.00027090,0.0002
 9576,-0.00054186,0.00009296,-0.00015418,-0.00009446,0.00001030,0.00001
 199,0.00000887,0.00004352,0.00000853,0.00006343,0.00006454,0.00006522,
 0.00004138,-0.00002037,0.00003409,-0.00051092,-0.00061060,-0.00274107,
 0.00077366,0.00001730,0.00004596,0.00002394,-0.00070083,-0.00099961,-0
 .00046870,0.00000816,-0.00000839,-0.00002975,0.00007917,0.00011124,0.0
 0010447,-0.00019821,-0.00004886,0.00005651,0.00008354,0.00005318,-0.00
 001431,0.00002463,-0.00002914,0.00000195,-0.00782725,0.01758700,0.0109
 4493,-0.07790206,0.03147570,0.06803848,-0.00556744,0.01015963,0.019945
 27,0.00901927,-0.01146950,-0.02135975,0.08304216,-0.00099886,0.0002879
 8,-0.00079332,0.00093461,0.00106717,0.00064530,-0.00062477,0.00069917,
 0.00097428,-0.00005395,-0.00107817,-0.00033708,0.00004818,0.00004711,0
 .00005191,0.00009149,0.00006256,0.00013509,0.00010286,0.00009667,0.000
 10843,0.00027368,-0.00206472,0.00128671,0.00395144,0.00602675,-0.00567
 980,-0.00004124,-0.00004621,-0.00009856,-0.00107706,-0.00107709,-0.000
 54006,-0.00012243,-0.00008282,-0.00012957,-0.00010839,0.00029847,0.000
 10039,0.00018597,-0.00003608,-0.00012015,-0.00004846,-0.00001009,0.000
 10447,-0.00002061,0.00000977,-0.00000536,0.01694524,-0.03193061,-0.020
 10617,0.02982297,-0.09431585,-0.08732845,-0.00463797,0.01035961,0.0154
 7968,0.00015832,-0.00007278,-0.00527039,-0.04455461,0.11163926,0.00010
 379,-0.00018436,0.00011502,-0.00029339,-0.00009104,-0.00024318,0.00096
 295,-0.00112257,-0.00040900,0.00003106,0.00008218,-0.00007126,-0.00002
 188,0.00002330,-0.00001289,-0.00004114,-0.00001252,-0.00002654,0.00000
 591,0.00000389,0.00002653,-0.00026936,0.00022786,-0.00005337,-0.000344
 49,0.00046143,0.00174945,-0.00004324,-0.00003836,-0.00003686,-0.000047
 10,0.00097085,0.00015979,0.00001825,0.00002050,0.00008674,-0.00026103,
 0.00020990,-0.00010357,0.00000983,-0.00002383,0.00002417,-0.00002893,0
 .00003195,0.00002496,-0.00001362,0.00000938,-0.00000778,-0.00184261,0.
 00316160,0.01411491,0.06937388,-0.09315556,-0.24669649,0.00194759,-0.0
 0485155,-0.00934662,0.00782047,-0.00746684,-0.01702663,-0.07706162,0.1
 0171236,0.25774028,-0.00037430,0.00017196,-0.00014962,-0.00891621,0.00
 241197,0.00575255,0.00000069,0.00343079,-0.00011829,0.00115978,-0.0002
 4709,0.00010349,-0.00011733,-0.00011781,-0.00024956,0.00007176,0.00004
 470,0.00007761,-0.00005048,0.00004261,0.00002062,-0.30766631,0.0249693
 2,0.09671556,-0.01192558,-0.00097902,0.00700989,0.00016118,-0.00069442
 ,-0.00180614,-0.00063868,-0.00022146,0.00013270,0.00163065,-0.00123694
 ,0.00124440,0.00025732,-0.00007720,-0.00003466,-0.00046555,-0.00018938
 ,0.00088993,-0.00023786,0.00023021,-0.00059016,-0.00000725,-0.00005561
 ,-0.00003140,0.00044161,-0.00192444,-0.00035654,0.00012008,0.00017246,
 -0.00048301,-0.00001080,0.00003264,-0.00000315,0.00003778,-0.00002099,
 0.00005404,0.00008963,-0.00022642,-0.00000532,0.32643985,-0.00129446,0
 .00050197,-0.00106569,-0.02469709,0.00615660,0.01280417,0.00251324,-0.
 00428193,0.00346778,0.00070459,-0.00124647,-0.00022326,0.00010463,0.00
 010009,-0.00016703,0.00022727,0.00017397,0.00032778,0.00008485,0.00009
 940,0.00004467,0.02317077,-0.06006637,-0.00442681,0.02672213,0.0031045
 4,-0.01030991,-0.00012500,0.00065582,-0.00129571,0.00151045,-0.0000598
 3,-0.00025104,-0.00112508,-0.00348141,0.00159535,-0.00024983,-0.000009
 56,-0.00017263,-0.00022580,-0.00040324,0.00063242,-0.00030481,0.000291
 03,-0.00046968,-0.00004084,0.00001103,-0.00003358,-0.00109134,0.001039
 22,-0.00100048,-0.00016807,-0.00025460,-0.00006820,-0.00001476,-0.0000
 1389,0.00001605,-0.00013961,0.00020788,-0.00011692,-0.00004538,0.00011
 989,0.00003142,-0.02551588,0.05735585,-0.00147392,0.00093175,-0.001420
 99,0.00945456,-0.00044665,0.00143996,0.00156395,0.00199872,0.00272952,
 0.00088635,-0.00092655,-0.00002576,0.00026650,-0.00000445,-0.00010119,
 0.00016207,0.00016168,0.00051095,0.00004204,0.00008825,0.00007798,0.10
 195909,-0.00520100,-0.07191702,-0.00384398,0.00413806,0.00509163,-0.00
 209713,-0.00161742,-0.00393413,-0.00030945,-0.00014442,-0.00000352,0.0
 0445593,0.00266910,0.00460952,-0.00013725,0.00020043,-0.00017914,-0.00
 033143,-0.00045200,0.00066157,-0.00039752,0.00032534,-0.00033950,-0.00
 008950,-0.00015869,-0.00006968,-0.00170597,-0.00211153,-0.00137746,-0.
 00036304,0.00001522,-0.00045215,0.00002819,-0.00006421,0.00002582,-0.0
 0002184,0.00010677,-0.00001260,0.00012528,-0.00018970,-0.00000766,-0.1
 0817291,0.00068130,0.06469382\\-0.00001056,-0.00002090,-0.00001186,0.0
 0000587,0.00000582,0.00001438,0.00000232,-0.00000087,-0.00001263,0.000
 02200,0.00003211,0.00002046,0.00000537,0.00000843,0.00000235,0.0000048
 5,-0.00000128,0.00000052,-0.00001251,-0.00001792,-0.00001353,0.0000040
 2,0.00002498,-0.00001296,0.00006115,0.00007393,-0.00006414,0.00000112,
 0.00000029,-0.00000317,0.00000198,0.00001602,-0.00000669,-0.00000169,-
 0.00000280,-0.00000353,0.00000338,0.00000948,0.00001123,-0.00000637,-0
 .00000457,-0.00000049,0.00000006,-0.00000472,-0.00000224,0.00000223,0.
 00000084,0.00000307,-0.00003884,-0.00008960,0.00007730,-0.00002115,-0.
 00002895,0.00000230,0.00000095,0.00000363,0.00000298,-0.00001347,0.000
 00030,-0.00000652,-0.00001281,0.00000004,0.00000743,0.00000210,-0.0000
 0426,-0.00000427\\\@
 The archive entry for this job was punched.


 TELEVISION IS CALLED A MEDIUM BECAUSE IT ISN'T
 RARE, AND IT ISN'T WELL DONE.
 Job cpu time:       0 days  0 hours 23 minutes 16.7 seconds.
 Elapsed time:       0 days  0 hours  1 minutes 30.1 seconds.
 File lengths (MBytes):  RWF=     84 Int=      0 D2E=      0 Chk=      5 Scr=      1
 Normal termination of Gaussian 16 at Tue Jun 21 10:40:37 2022.
