Job Start Time: Tue Jun 21 10:35:38 MDT 2022
SLURM Job ID: 40878
SLURM Job Name: DATS_13_exo_iii
 Entering Gaussian System, Link 0=/opt/apps/Gaussian/G16C/g16/g16
 Initial command:
 /opt/apps/Gaussian/G16C/g16/l1.exe "/tmp/Gau-2313139.inp" -scrdir="/tmp/"
 Entering Link 1 = /opt/apps/Gaussian/G16C/g16/l1.exe PID=   2313140.
  
 Copyright (c) 1988-2019, Gaussian, Inc.  All Rights Reserved.
  
 This is part of the Gaussian(R) 16 program.  It is based on
 the Gaussian(R) 09 system (copyright 2009, Gaussian, Inc.),
 the Gaussian(R) 03 system (copyright 2003, Gaussian, Inc.),
 the Gaussian(R) 98 system (copyright 1998, Gaussian, Inc.),
 the Gaussian(R) 94 system (copyright 1995, Gaussian, Inc.),
 the Gaussian 92(TM) system (copyright 1992, Gaussian, Inc.),
 the Gaussian 90(TM) system (copyright 1990, Gaussian, Inc.),
 the Gaussian 88(TM) system (copyright 1988, Gaussian, Inc.),
 the Gaussian 86(TM) system (copyright 1986, Carnegie Mellon
 University), and the Gaussian 82(TM) system (copyright 1983,
 Carnegie Mellon University). Gaussian is a federally registered
 trademark of Gaussian, Inc.
  
 This software contains proprietary and confidential information,
 including trade secrets, belonging to Gaussian, Inc.
  
 This software is provided under written license and may be
 used, copied, transmitted, or stored only in accord with that
 written license.
  
 The following legend is applicable only to US Government
 contracts under FAR:
  
                    RESTRICTED RIGHTS LEGEND
  
 Use, reproduction and disclosure by the US Government is
 subject to restrictions as set forth in subparagraphs (a)
 and (c) of the Commercial Computer Software - Restricted
 Rights clause in FAR 52.227-19.
  
 Gaussian, Inc.
 340 Quinnipiac St., Bldg. 40, Wallingford CT 06492
  
  
 ---------------------------------------------------------------
 Warning -- This program may not be used in any manner that
 competes with the business of Gaussian, Inc. or will provide
 assistance to any competitor of Gaussian, Inc.  The licensee
 of this program is prohibited from giving any competitor of
 Gaussian, Inc. access to this program.  By using this program,
 the user acknowledges that Gaussian, Inc. is engaged in the
 business of creating and licensing software in the field of
 computational chemistry and represents and warrants to the
 licensee that it is not a competitor of Gaussian, Inc. and that
 it will not use this program in any manner prohibited above.
 ---------------------------------------------------------------
  

 Cite this work as:
 Gaussian 16, Revision C.01,
 M. J. Frisch, G. W. Trucks, H. B. Schlegel, G. E. Scuseria, 
 M. A. Robb, J. R. Cheeseman, G. Scalmani, V. Barone, 
 G. A. Petersson, H. Nakatsuji, X. Li, M. Caricato, A. V. Marenich, 
 J. Bloino, B. G. Janesko, R. Gomperts, B. Mennucci, H. P. Hratchian, 
 J. V. Ortiz, A. F. Izmaylov, J. L. Sonnenberg, D. Williams-Young, 
 F. Ding, F. Lipparini, F. Egidi, J. Goings, B. Peng, A. Petrone, 
 T. Henderson, D. Ranasinghe, V. G. Zakrzewski, J. Gao, N. Rega, 
 G. Zheng, W. Liang, M. Hada, M. Ehara, K. Toyota, R. Fukuda, 
 J. Hasegawa, M. Ishida, T. Nakajima, Y. Honda, O. Kitao, H. Nakai, 
 T. Vreven, K. Throssell, J. A. Montgomery, Jr., J. E. Peralta, 
 F. Ogliaro, M. J. Bearpark, J. J. Heyd, E. N. Brothers, K. N. Kudin, 
 V. N. Staroverov, T. A. Keith, R. Kobayashi, J. Normand, 
 K. Raghavachari, A. P. Rendell, J. C. Burant, S. S. Iyengar, 
 J. Tomasi, M. Cossi, J. M. Millam, M. Klene, C. Adamo, R. Cammi, 
 J. W. Ochterski, R. L. Martin, K. Morokuma, O. Farkas, 
 J. B. Foresman, and D. J. Fox, Gaussian, Inc., Wallingford CT, 2019.
 
 ******************************************
 Gaussian 16:  AS64L-G16RevC.01  3-Jul-2019
                21-Jun-2022 
 ******************************************
 %nprocshared=16
 Will use up to   16 processors via shared memory.
 -------------------------------------------------
 # opt=(calcfc,ts,noeigentest) freq 6-31g(d) m062x
 -------------------------------------------------
 1/5=1,10=4,11=1,18=20,26=3,38=1/1,3;
 2/9=110,12=2,17=6,18=5,40=1/2;
 3/5=1,6=6,7=1,11=2,25=1,30=1,71=2,74=-55,140=1/1,2,3;
 4//1;
 5/5=2,38=5/2;
 8/6=4,10=90,11=11/1;
 11/6=1,8=1,9=11,15=111,16=1/1,2,10;
 10/6=1,13=1/2;
 6/7=2,8=2,9=2,10=2,28=1/1;
 7/10=1,25=1/1,2,3,16;
 1/5=1,10=4,11=1,18=20,26=3/3(2);
 2/9=110/2;
 99//99;
 2/9=110/2;
 3/5=1,6=6,7=1,11=2,25=1,30=1,71=1,74=-55/1,2,3;
 4/5=5,16=3,69=1/1;
 5/5=2,38=5/2;
 7//1,2,3,16;
 1/5=1,11=1,18=20,26=3/3(-5);
 2/9=110/2;
 6/7=2,8=2,9=2,10=2,19=2,28=1/1;
 99/9=1/99;
 -------------------
 Title Card Required
 -------------------
 Symbolic Z-matrix:
 Charge =  0 Multiplicity = 1
 C                    -0.81251  -1.49055  -0.53519 
 C                     0.68805  -1.22175   0.98202 
 C                    -0.50035   1.35458   0.7242 
 C                    -1.55453  -0.34058  -0.74282 
 H                    -0.08714  -1.81057  -1.27496 
 H                    -1.25961  -2.29647   0.04384 
 H                    -1.34071   0.33618  -1.56232 
 C                     1.39999  -0.1409    0.49956 
 C                     0.79267   1.13609   0.35151 
 H                     1.18972  -2.18369   1.01237 
 H                    -1.00932   2.27628   0.46156 
 H                    -0.08353  -1.06226   1.72253 
 H                    -0.99023   0.75469   1.48102 
 C                    -2.83238  -0.16354  -0.05817 
 O                    -3.63196   0.72505  -0.26802 
 H                    -3.03619  -0.9334    0.72443 
 O                     1.44243   2.1235   -0.45331 
 C                     2.65701   1.58473  -0.98189 
 H                     3.02982   2.23098  -1.74889 
 H                     3.38216   1.50487  -0.19915 
 H                     2.46789   0.61519  -1.39316 
 H                     2.35189  -0.37384   0.07001 
 
 Add virtual bond connecting atoms C2         and C1         Dist= 4.06D+00.

 GradGradGradGradGradGradGradGradGradGradGradGradGradGradGradGradGradGrad
 Berny optimization.
 Initialization pass.
                           ----------------------------
                           !    Initial Parameters    !
                           ! (Angstroms and Degrees)  !
 --------------------------                            --------------------------
 ! Name  Definition              Value          Derivative Info.                !
 --------------------------------------------------------------------------------
 ! R1    R(1,2)                  2.1508         calculate D2E/DX2 analytically  !
 ! R2    R(1,4)                  1.3842         calculate D2E/DX2 analytically  !
 ! R3    R(1,5)                  1.0844         calculate D2E/DX2 analytically  !
 ! R4    R(1,6)                  1.0884         calculate D2E/DX2 analytically  !
 ! R5    R(2,8)                  1.3812         calculate D2E/DX2 analytically  !
 ! R6    R(2,10)                 1.0853         calculate D2E/DX2 analytically  !
 ! R7    R(2,12)                 1.0813         calculate D2E/DX2 analytically  !
 ! R8    R(3,9)                  1.3633         calculate D2E/DX2 analytically  !
 ! R9    R(3,11)                 1.0852         calculate D2E/DX2 analytically  !
 ! R10   R(3,13)                 1.0829         calculate D2E/DX2 analytically  !
 ! R11   R(4,7)                  1.0841         calculate D2E/DX2 analytically  !
 ! R12   R(4,14)                 1.4605         calculate D2E/DX2 analytically  !
 ! R13   R(8,9)                  1.4218         calculate D2E/DX2 analytically  !
 ! R14   R(8,22)                 1.07           calculate D2E/DX2 analytically  !
 ! R15   R(9,17)                 1.43           calculate D2E/DX2 analytically  !
 ! R16   R(14,15)                1.2137         calculate D2E/DX2 analytically  !
 ! R17   R(14,16)                1.1165         calculate D2E/DX2 analytically  !
 ! R18   R(17,18)                1.43           calculate D2E/DX2 analytically  !
 ! R19   R(18,19)                1.07           calculate D2E/DX2 analytically  !
 ! R20   R(18,20)                1.07           calculate D2E/DX2 analytically  !
 ! R21   R(18,21)                1.07           calculate D2E/DX2 analytically  !
 ! A1    A(2,1,4)              112.0843         calculate D2E/DX2 analytically  !
 ! A2    A(2,1,5)               92.9482         calculate D2E/DX2 analytically  !
 ! A3    A(2,1,6)               90.2211         calculate D2E/DX2 analytically  !
 ! A4    A(4,1,5)              120.0943         calculate D2E/DX2 analytically  !
 ! A5    A(4,1,6)              118.3418         calculate D2E/DX2 analytically  !
 ! A6    A(5,1,6)              114.7837         calculate D2E/DX2 analytically  !
 ! A7    A(1,2,8)              102.1812         calculate D2E/DX2 analytically  !
 ! A8    A(1,2,10)             103.3819         calculate D2E/DX2 analytically  !
 ! A9    A(1,2,12)              90.2113         calculate D2E/DX2 analytically  !
 ! A10   A(8,2,10)             117.7154         calculate D2E/DX2 analytically  !
 ! A11   A(8,2,12)             119.4456         calculate D2E/DX2 analytically  !
 ! A12   A(10,2,12)            116.195          calculate D2E/DX2 analytically  !
 ! A13   A(9,3,11)             120.9849         calculate D2E/DX2 analytically  !
 ! A14   A(9,3,13)             122.0977         calculate D2E/DX2 analytically  !
 ! A15   A(11,3,13)            115.3087         calculate D2E/DX2 analytically  !
 ! A16   A(1,4,7)              121.7529         calculate D2E/DX2 analytically  !
 ! A17   A(1,4,14)             119.9607         calculate D2E/DX2 analytically  !
 ! A18   A(7,4,14)             116.8246         calculate D2E/DX2 analytically  !
 ! A19   A(2,8,9)              121.2674         calculate D2E/DX2 analytically  !
 ! A20   A(2,8,22)             115.3668         calculate D2E/DX2 analytically  !
 ! A21   A(9,8,22)             122.258          calculate D2E/DX2 analytically  !
 ! A22   A(3,9,8)              121.3732         calculate D2E/DX2 analytically  !
 ! A23   A(3,9,17)             118.3045         calculate D2E/DX2 analytically  !
 ! A24   A(8,9,17)             118.9929         calculate D2E/DX2 analytically  !
 ! A25   A(4,14,15)            125.7417         calculate D2E/DX2 analytically  !
 ! A26   A(4,14,16)            113.8729         calculate D2E/DX2 analytically  !
 ! A27   A(15,14,16)           120.3815         calculate D2E/DX2 analytically  !
 ! A28   A(9,17,18)            109.5            calculate D2E/DX2 analytically  !
 ! A29   A(17,18,19)           109.4712         calculate D2E/DX2 analytically  !
 ! A30   A(17,18,20)           109.4712         calculate D2E/DX2 analytically  !
 ! A31   A(17,18,21)           109.4712         calculate D2E/DX2 analytically  !
 ! A32   A(19,18,20)           109.4713         calculate D2E/DX2 analytically  !
 ! A33   A(19,18,21)           109.4712         calculate D2E/DX2 analytically  !
 ! A34   A(20,18,21)           109.4712         calculate D2E/DX2 analytically  !
 ! D1    D(4,1,2,8)            -56.0755         calculate D2E/DX2 analytically  !
 ! D2    D(4,1,2,10)          -178.7881         calculate D2E/DX2 analytically  !
 ! D3    D(4,1,2,12)            64.1709         calculate D2E/DX2 analytically  !
 ! D4    D(5,1,2,8)             68.1699         calculate D2E/DX2 analytically  !
 ! D5    D(5,1,2,10)           -54.5427         calculate D2E/DX2 analytically  !
 ! D6    D(5,1,2,12)          -171.5837         calculate D2E/DX2 analytically  !
 ! D7    D(6,1,2,8)           -176.9986         calculate D2E/DX2 analytically  !
 ! D8    D(6,1,2,10)            60.2888         calculate D2E/DX2 analytically  !
 ! D9    D(6,1,2,12)           -56.7522         calculate D2E/DX2 analytically  !
 ! D10   D(2,1,4,7)             98.7424         calculate D2E/DX2 analytically  !
 ! D11   D(2,1,4,14)           -95.4922         calculate D2E/DX2 analytically  !
 ! D12   D(5,1,4,7)             -8.673          calculate D2E/DX2 analytically  !
 ! D13   D(5,1,4,14)           157.0924         calculate D2E/DX2 analytically  !
 ! D14   D(6,1,4,7)           -158.3382         calculate D2E/DX2 analytically  !
 ! D15   D(6,1,4,14)             7.4272         calculate D2E/DX2 analytically  !
 ! D16   D(1,2,8,9)             63.8109         calculate D2E/DX2 analytically  !
 ! D17   D(1,2,8,22)          -104.4157         calculate D2E/DX2 analytically  !
 ! D18   D(10,2,8,9)           176.1981         calculate D2E/DX2 analytically  !
 ! D19   D(10,2,8,22)            7.9715         calculate D2E/DX2 analytically  !
 ! D20   D(12,2,8,9)           -33.4387         calculate D2E/DX2 analytically  !
 ! D21   D(12,2,8,22)          158.3347         calculate D2E/DX2 analytically  !
 ! D22   D(11,3,9,8)          -169.8071         calculate D2E/DX2 analytically  !
 ! D23   D(11,3,9,17)           -3.1073         calculate D2E/DX2 analytically  !
 ! D24   D(13,3,9,8)            25.3339         calculate D2E/DX2 analytically  !
 ! D25   D(13,3,9,17)         -167.9662         calculate D2E/DX2 analytically  !
 ! D26   D(1,4,14,15)         -171.5831         calculate D2E/DX2 analytically  !
 ! D27   D(1,4,14,16)            9.1342         calculate D2E/DX2 analytically  !
 ! D28   D(7,4,14,15)           -5.1336         calculate D2E/DX2 analytically  !
 ! D29   D(7,4,14,16)          175.5837         calculate D2E/DX2 analytically  !
 ! D30   D(2,8,9,3)              2.3704         calculate D2E/DX2 analytically  !
 ! D31   D(2,8,9,17)          -164.2403         calculate D2E/DX2 analytically  !
 ! D32   D(22,8,9,3)           169.7777         calculate D2E/DX2 analytically  !
 ! D33   D(22,8,9,17)            3.1671         calculate D2E/DX2 analytically  !
 ! D34   D(3,9,17,18)         -167.0231         calculate D2E/DX2 analytically  !
 ! D35   D(8,9,17,18)            0.0            calculate D2E/DX2 analytically  !
 ! D36   D(9,17,18,19)         167.4555         calculate D2E/DX2 analytically  !
 ! D37   D(9,17,18,20)         -72.5445         calculate D2E/DX2 analytically  !
 ! D38   D(9,17,18,21)          47.4555         calculate D2E/DX2 analytically  !
 --------------------------------------------------------------------------------
 Trust Radius=3.00D-01 FncErr=1.00D-07 GrdErr=1.00D-06 EigMax=2.50D+02 EigMin=1.00D-04
 Number of steps in this run=    103 maximum allowed number of steps=    132.
 Search for a saddle point of order  1.
 GradGradGradGradGradGradGradGradGradGradGradGradGradGradGradGradGradGrad

                          Input orientation:                          
 ---------------------------------------------------------------------
 Center     Atomic      Atomic             Coordinates (Angstroms)
 Number     Number       Type             X           Y           Z
 ---------------------------------------------------------------------
      1          6           0       -0.812507   -1.490551   -0.535187
      2          6           0        0.688053   -1.221747    0.982020
      3          6           0       -0.500346    1.354575    0.724203
      4          6           0       -1.554528   -0.340578   -0.742816
      5          1           0       -0.087138   -1.810566   -1.274961
      6          1           0       -1.259606   -2.296474    0.043839
      7          1           0       -1.340707    0.336180   -1.562318
      8          6           0        1.399987   -0.140900    0.499560
      9          6           0        0.792672    1.136092    0.351506
     10          1           0        1.189717   -2.183685    1.012368
     11          1           0       -1.009316    2.276276    0.461563
     12          1           0       -0.083525   -1.062257    1.722528
     13          1           0       -0.990233    0.754694    1.481016
     14          6           0       -2.832378   -0.163540   -0.058167
     15          8           0       -3.631955    0.725048   -0.268020
     16          1           0       -3.036193   -0.933396    0.724431
     17          8           0        1.442427    2.123505   -0.453313
     18          6           0        2.657014    1.584728   -0.981895
     19          1           0        3.029815    2.230978   -1.748888
     20          1           0        3.382159    1.504869   -0.199150
     21          1           0        2.467885    0.615195   -1.393156
     22          1           0        2.351895   -0.373837    0.070012
 ---------------------------------------------------------------------
                    Distance matrix (angstroms):
                    1          2          3          4          5
     1  C    0.000000
     2  C    2.150780   0.000000
     3  C    3.127019   2.848894   0.000000
     4  C    1.384248   2.963222   2.477295   0.000000
     5  H    1.084359   2.457965   3.766366   2.144126   0.000000
     6  H    1.088430   2.414249   3.790716   2.128693   1.830306
     7  H    2.161236   3.607861   2.640362   1.084115   2.502504
     8  C    2.790589   1.381249   2.428616   3.211313   2.854514
     9  C    3.203448   2.442928   1.363280   2.981181   3.478829
    10  H    2.623788   1.085317   3.931747   3.742806   2.646025
    11  H    3.901439   3.922767   1.085156   2.931844   4.535218
    12  H    2.410835   1.081259   2.647918   2.960167   3.089485
    13  H    3.022877   2.640447   1.082872   2.542337   3.871892
    14  C    2.463409   3.820370   2.890527   1.460475   3.424854
    15  O    3.595768   4.900518   3.344815   2.382581   4.473142
    16  H    2.615691   3.744263   3.415455   2.167851   3.669322
    17  O    4.260614   3.717522   2.398367   3.890663   4.300185
    18  C    4.657732   3.950958   3.596201   4.636922   4.375418
    19  H    5.485097   4.986284   4.398443   5.351756   5.125825
    20  H    5.165335   4.010961   3.993621   5.298313   4.917875
    21  H    3.991397   3.490504   3.720254   4.185242   3.525114
    22  H    3.409803   2.078239   3.398625   3.990230   3.134011
                    6          7          8          9         10
     6  H    0.000000
     7  H    3.084993   0.000000
     8  C    3.453638   3.462708   0.000000
     9  C    4.011111   2.975548   1.421781   0.000000
    10  H    2.636276   4.402474   2.116638   3.408123   0.000000
    11  H    4.598606   2.823099   3.413052   2.135250   5.003038
    12  H    2.392583   3.785016   2.131984   2.734988   1.839313
    13  H    3.383440   3.091904   2.734684   2.144763   3.688615
    14  C    2.652060   2.176528   4.269015   3.872707   4.626476
    15  O    3.854204   2.660121   5.163282   4.486657   5.774828
    16  H    2.340395   3.117004   4.512018   4.368302   4.416384
    17  O    5.204263   3.488590   2.457091   1.430000   4.556750
    18  C    5.608544   4.228184   2.598580   2.335595   4.508989
    19  H    6.489286   4.767236   3.652077   3.258104   5.522658
    20  H    6.004601   5.052675   2.669411   2.672950   4.458700
    21  H    4.943376   3.822544   2.300970   2.474171   3.905636
    22  H    4.091473   4.099260   1.070000   2.188676   2.348242
                   11         12         13         14         15
    11  H    0.000000
    12  H    3.686858   0.000000
    13  H    1.831628   2.044935   0.000000
    14  C    3.089721   3.396286   2.570163   0.000000
    15  O    3.133183   4.443883   3.168391   1.213652   0.000000
    16  H    3.805171   3.119463   2.758264   1.116548   2.022456
    17  O    2.621332   4.148722   3.396043   4.864224   5.266818
    18  C    4.000473   4.672364   4.478537   5.834650   6.387472
    19  H    4.604642   5.708679   5.363999   6.554202   6.988561
    20  H    4.507401   4.721647   4.743789   6.436143   7.057666
    21  H    4.276693   4.362457   4.498768   5.520998   6.203713
    22  H    4.298157   3.022582   3.799254   5.190119   6.093297
                   16         17         18         19         20
    16  H    0.000000
    17  O    5.548853   0.000000
    18  C    6.454851   1.430000   0.000000
    19  H    7.275097   2.051796   1.070000   0.000000
    20  H    6.927725   2.051796   1.070000   1.747303   0.000000
    21  H    6.097310   2.051796   1.070000   1.747303   1.747303
    22  H    5.456451   2.708822   2.244010   3.248544   2.159498
                   21         22
    21  H    0.000000
    22  H    1.769887   0.000000
 Stoichiometry    C8H12O2
 Framework group  C1[X(C8H12O2)]
 Deg. of freedom    60
 Full point group                 C1      NOp   1
 Largest Abelian subgroup         C1      NOp   1
 Largest concise Abelian subgroup C1      NOp   1
                         Standard orientation:                         
 ---------------------------------------------------------------------
 Center     Atomic      Atomic             Coordinates (Angstroms)
 Number     Number       Type             X           Y           Z
 ---------------------------------------------------------------------
      1          6           0       -1.085004    1.458602    0.823745
      2          6           0        0.375850    1.922851   -0.684974
      3          6           0       -0.061387   -0.876004   -0.987352
      4          6           0       -1.480323    0.132901    0.774953
      5          1           0       -0.446656    1.806372    1.628359
      6          1           0       -1.754223    2.212778    0.413812
      7          1           0       -1.061668   -0.612208    1.441920
      8          6           0        1.370665    1.001817   -0.420613
      9          6           0        1.137109   -0.394571   -0.551044
     10          1           0        0.597258    2.970227   -0.506386
     11          1           0       -0.292214   -1.934803   -0.930541
     12          1           0       -0.350387    1.713633   -1.458234
     13          1           0       -0.722553   -0.291069   -1.614506
     14          6           0       -2.686834   -0.241936    0.042275
     15          8           0       -3.208124   -1.337915    0.048249
     16          1           0       -3.119688    0.585944   -0.569225
     17          8           0        2.058621   -1.310256    0.046649
     18          6           0        3.100751   -0.580651    0.699751
     19          1           0        3.662185   -1.243125    1.324907
     20          1           0        3.748177   -0.148939   -0.034663
     21          1           0        2.671665    0.196040    1.297695
     22          1           0        2.239163    1.392465    0.067244
 ---------------------------------------------------------------------
 Rotational constants (GHZ):           2.0985847           0.8036898           0.6721784
 Standard basis: 6-31G(d) (6D, 7F)
 There are   174 symmetry adapted cartesian basis functions of A   symmetry.
 There are   174 symmetry adapted basis functions of A   symmetry.
   174 basis functions,   328 primitive gaussians,   174 cartesian basis functions
    38 alpha electrons       38 beta electrons
       nuclear repulsion energy       521.1231859207 Hartrees.
 NAtoms=   22 NActive=   22 NUniq=   22 SFac= 1.00D+00 NAtFMM=   60 NAOKFM=F Big=F
 Integral buffers will be    131072 words long.
 Raffenetti 2 integral format.
 Two-electron integral symmetry is turned on.
 One-electron integrals computed using PRISM.
 NBasis=   174 RedAO= T EigKep=  1.83D-03  NBF=   174
 NBsUse=   174 1.00D-06 EigRej= -1.00D+00 NBFU=   174
 ExpMin= 1.61D-01 ExpMax= 5.48D+03 ExpMxC= 8.25D+02 IAcc=3 IRadAn=         5 AccDes= 0.00D+00
 Harris functional with IExCor= 1009 and IRadAn=       5 diagonalized for initial guess.
 HarFok:  IExCor= 1009 AccDes= 0.00D+00 IRadAn=         5 IDoV= 1 UseB2=F ITyADJ=14
 ICtDFT=  3500011 ScaDFX=  1.000000  1.000000  1.000000  1.000000
 FoFCou: FMM=F IPFlag=           0 FMFlag=      100000 FMFlg1=           0
         NFxFlg=           0 DoJE=T BraDBF=F KetDBF=T FulRan=T
         wScrn=  0.000000 ICntrl=       500 IOpCl=  0 I1Cent=   200000004 NGrid=           0
         NMat0=    1 NMatS0=      1 NMatT0=    0 NMatD0=    1 NMtDS0=    0 NMtDT0=    0
 Petite list used in FoFCou.
 Requested convergence on RMS density matrix=1.00D-08 within 128 cycles.
 Requested convergence on MAX density matrix=1.00D-06.
 Requested convergence on             energy=1.00D-06.
 No special actions if energy rises.
 Integral accuracy reduced to 1.0D-05 until final iterations.
 Initial convergence to 1.0D-05 achieved.  Increase integral accuracy.
 SCF Done:  E(RM062X) =  -462.159638488     A.U. after   16 cycles
            NFock= 16  Conv=0.66D-08     -V/T= 2.0083
 DoSCS=F DFT=T ScalE2(SS,OS)=  1.000000  1.000000
 Range of M.O.s used for correlation:     1   174
 NBasis=   174 NAE=    38 NBE=    38 NFC=     0 NFV=     0
 NROrb=    174 NOA=    38 NOB=    38 NVA=   136 NVB=   136
 Symmetrizing basis deriv contribution to polar:
 IMax=3 JMax=2 DiffMx= 0.00D+00
 G2DrvN: will do    23 centers at a time, making    1 passes.
 Calling FoFCou, ICntrl=  3107 FMM=F I1Cent=   0 AccDes= 0.00D+00.
 End of G2Drv F.D. properties file   721 does not exist.
 End of G2Drv F.D. properties file   722 does not exist.
 End of G2Drv F.D. properties file   788 does not exist.
          IDoAtm=1111111111111111111111
          Differentiating once with respect to nuclear coordinates.
 CalDSu exits because no D1Ps are significant.
          There are    69 degrees of freedom in the 1st order CPHF.  IDoFFX=6 NUNeed=     0.
     63 vectors produced by pass  0 Test12= 7.49D-15 1.45D-09 XBig12= 8.99D-02 7.02D-02.
 AX will form    63 AO Fock derivatives at one time.
     63 vectors produced by pass  1 Test12= 7.49D-15 1.45D-09 XBig12= 7.34D-03 1.58D-02.
     63 vectors produced by pass  2 Test12= 7.49D-15 1.45D-09 XBig12= 1.07D-04 2.16D-03.
     63 vectors produced by pass  3 Test12= 7.49D-15 1.45D-09 XBig12= 8.46D-07 1.33D-04.
     63 vectors produced by pass  4 Test12= 7.49D-15 1.45D-09 XBig12= 3.45D-09 6.35D-06.
     63 vectors produced by pass  5 Test12= 7.49D-15 1.45D-09 XBig12= 9.78D-12 3.49D-07.
     32 vectors produced by pass  6 Test12= 7.49D-15 1.45D-09 XBig12= 2.54D-14 1.27D-08.
 InvSVY:  IOpt=1 It=  1 EMax= 4.44D-16
 Solved reduced A of dimension   410 with    69 vectors.
 End of Minotr F.D. properties file   721 does not exist.
 End of Minotr F.D. properties file   722 does not exist.
 End of Minotr F.D. properties file   788 does not exist.

 **********************************************************************

            Population analysis using the SCF Density.

 **********************************************************************

 Orbital symmetries:
       Occupied  (A) (A) (A) (A) (A) (A) (A) (A) (A) (A) (A) (A)
                 (A) (A) (A) (A) (A) (A) (A) (A) (A) (A) (A) (A)
                 (A) (A) (A) (A) (A) (A) (A) (A) (A) (A) (A) (A)
                 (A) (A)
       Virtual   (A) (A) (A) (A) (A) (A) (A) (A) (A) (A) (A) (A)
                 (A) (A) (A) (A) (A) (A) (A) (A) (A) (A) (A) (A)
                 (A) (A) (A) (A) (A) (A) (A) (A) (A) (A) (A) (A)
                 (A) (A) (A) (A) (A) (A) (A) (A) (A) (A) (A) (A)
                 (A) (A) (A) (A) (A) (A) (A) (A) (A) (A) (A) (A)
                 (A) (A) (A) (A) (A) (A) (A) (A) (A) (A) (A) (A)
                 (A) (A) (A) (A) (A) (A) (A) (A) (A) (A) (A) (A)
                 (A) (A) (A) (A) (A) (A) (A) (A) (A) (A) (A) (A)
                 (A) (A) (A) (A) (A) (A) (A) (A) (A) (A) (A) (A)
                 (A) (A) (A) (A) (A) (A) (A) (A) (A) (A) (A) (A)
                 (A) (A) (A) (A) (A) (A) (A) (A) (A) (A) (A) (A)
                 (A) (A) (A) (A)
 The electronic state is 1-A.
 Alpha  occ. eigenvalues --  -19.66716 -19.62184 -10.62440 -10.61461 -10.59080
 Alpha  occ. eigenvalues --  -10.57410 -10.56980 -10.56255 -10.55912 -10.55581
 Alpha  occ. eigenvalues --   -1.16690  -1.14810  -0.92668  -0.87804  -0.84528
 Alpha  occ. eigenvalues --   -0.78350  -0.73356  -0.71849  -0.64218  -0.61094
 Alpha  occ. eigenvalues --   -0.60448  -0.56099  -0.54715  -0.53395  -0.53154
 Alpha  occ. eigenvalues --   -0.50069  -0.47637  -0.47394  -0.47260  -0.46268
 Alpha  occ. eigenvalues --   -0.45342  -0.43748  -0.42366  -0.40247  -0.38058
 Alpha  occ. eigenvalues --   -0.31344  -0.28460  -0.27794
 Alpha virt. eigenvalues --   -0.02778   0.02836   0.09606   0.12035   0.12780
 Alpha virt. eigenvalues --    0.14818   0.16229   0.17063   0.18003   0.19522
 Alpha virt. eigenvalues --    0.20424   0.21000   0.21381   0.22237   0.24784
 Alpha virt. eigenvalues --    0.25876   0.27270   0.30687   0.31197   0.35165
 Alpha virt. eigenvalues --    0.36148   0.39517   0.42196   0.44863   0.52883
 Alpha virt. eigenvalues --    0.54939   0.56318   0.58434   0.59610   0.60560
 Alpha virt. eigenvalues --    0.61433   0.62523   0.63842   0.66520   0.67372
 Alpha virt. eigenvalues --    0.67575   0.69015   0.70679   0.72646   0.75920
 Alpha virt. eigenvalues --    0.79049   0.82155   0.82946   0.84504   0.87131
 Alpha virt. eigenvalues --    0.87668   0.89184   0.92337   0.92801   0.93754
 Alpha virt. eigenvalues --    0.94572   0.95159   0.95568   0.98507   1.00631
 Alpha virt. eigenvalues --    1.01035   1.03264   1.03535   1.05469   1.05946
 Alpha virt. eigenvalues --    1.09674   1.10521   1.11932   1.13745   1.16556
 Alpha virt. eigenvalues --    1.18359   1.20089   1.23602   1.26237   1.28365
 Alpha virt. eigenvalues --    1.35286   1.39097   1.41548   1.43773   1.46420
 Alpha virt. eigenvalues --    1.52215   1.55620   1.56812   1.59493   1.63036
 Alpha virt. eigenvalues --    1.64799   1.71895   1.74690   1.78040   1.80181
 Alpha virt. eigenvalues --    1.82586   1.89405   1.89996   1.91886   1.92763
 Alpha virt. eigenvalues --    1.95359   1.95689   1.98678   2.03137   2.06051
 Alpha virt. eigenvalues --    2.06455   2.11477   2.12703   2.13544   2.16358
 Alpha virt. eigenvalues --    2.18595   2.20541   2.21869   2.24288   2.27492
 Alpha virt. eigenvalues --    2.30496   2.32041   2.37561   2.38584   2.42794
 Alpha virt. eigenvalues --    2.45088   2.48363   2.52693   2.55612   2.55694
 Alpha virt. eigenvalues --    2.62171   2.65965   2.67123   2.70322   2.76950
 Alpha virt. eigenvalues --    2.84407   2.89909   2.99463   3.05291   3.06653
 Alpha virt. eigenvalues --    3.15193   3.96954   4.09393   4.19120   4.20848
 Alpha virt. eigenvalues --    4.29814   4.31297   4.34736   4.37769   4.56182
 Alpha virt. eigenvalues --    4.62685
          Condensed to atoms (all electrons):
               1          2          3          4          5          6
     1  C    5.218097   0.078552  -0.016786   0.454476   0.379583   0.381836
     2  C    0.078552   5.165138  -0.026259  -0.021656  -0.012587  -0.012751
     3  C   -0.016786  -0.026259   5.242495   0.070329   0.000859   0.000863
     4  C    0.454476  -0.021656   0.070329   5.282732  -0.022803  -0.047417
     5  H    0.379583  -0.012587   0.000859  -0.022803   0.504520  -0.032361
     6  H    0.381836  -0.012751   0.000863  -0.047417  -0.032361   0.520637
     7  H   -0.036890   0.000318  -0.006537   0.368215  -0.004119   0.003808
     8  C   -0.026661   0.537730  -0.077005  -0.022774  -0.004794   0.000995
     9  C   -0.018644  -0.031900   0.571182  -0.015049   0.000002   0.000419
    10  H   -0.006973   0.373048   0.000588   0.001222  -0.000972  -0.000124
    11  H    0.000639   0.000171   0.359144  -0.003095  -0.000013  -0.000007
    12  H   -0.015289   0.382487   0.003882  -0.007717   0.001288  -0.003407
    13  H   -0.003721   0.003088   0.371687  -0.011853  -0.000008   0.000195
    14  C   -0.014631  -0.000395  -0.001145   0.348026   0.002407  -0.005139
    15  O    0.003925   0.000010  -0.002453  -0.070910  -0.000064   0.000070
    16  H    0.013213  -0.000582  -0.000447  -0.135924  -0.000117   0.008341
    17  O    0.000151   0.003647  -0.058808  -0.000453  -0.000025  -0.000001
    18  C    0.000093   0.000498   0.003517   0.000133  -0.000018   0.000000
    19  H   -0.000001  -0.000032  -0.000088   0.000001   0.000000   0.000000
    20  H    0.000029   0.000201  -0.000101   0.000001  -0.000004  -0.000000
    21  H   -0.000440   0.000200   0.000318  -0.000038   0.000209   0.000002
    22  H    0.000570  -0.051614   0.005039   0.000102   0.000618  -0.000053
               7          8          9         10         11         12
     1  C   -0.036890  -0.026661  -0.018644  -0.006973   0.000639  -0.015289
     2  C    0.000318   0.537730  -0.031900   0.373048   0.000171   0.382487
     3  C   -0.006537  -0.077005   0.571182   0.000588   0.359144   0.003882
     4  C    0.368215  -0.022774  -0.015049   0.001222  -0.003095  -0.007717
     5  H   -0.004119  -0.004794   0.000002  -0.000972  -0.000013   0.001288
     6  H    0.003808   0.000995   0.000419  -0.000124  -0.000007  -0.003407
     7  H    0.506763  -0.000011  -0.001970  -0.000022   0.000130  -0.000017
     8  C   -0.000011   5.030450   0.476646  -0.027628   0.005826  -0.036362
     9  C   -0.001970   0.476646   4.490027   0.003611  -0.017739  -0.009399
    10  H   -0.000022  -0.027628   0.003611   0.515075  -0.000005  -0.031681
    11  H    0.000130   0.005826  -0.017739  -0.000005   0.475709  -0.000029
    12  H   -0.000017  -0.036362  -0.009399  -0.031681  -0.000029   0.518979
    13  H    0.000693  -0.009165  -0.026086   0.000045  -0.029170   0.004259
    14  C   -0.026985  -0.000078   0.001069  -0.000020  -0.000306   0.000831
    15  O    0.001086   0.000004   0.000272   0.000000   0.001431   0.000002
    16  H    0.004908  -0.000006   0.000051  -0.000006   0.000188   0.000657
    17  O    0.000774  -0.057210   0.275241  -0.000042  -0.000879  -0.000012
    18  C    0.000019  -0.015865  -0.056214   0.000022   0.000075  -0.000005
    19  H   -0.000001   0.001227   0.004929  -0.000000  -0.000013   0.000001
    20  H    0.000006   0.000649  -0.006298  -0.000005   0.000017  -0.000013
    21  H   -0.000063   0.001100  -0.014651   0.000044   0.000038  -0.000005
    22  H   -0.000017   0.384026  -0.044032  -0.006425  -0.000111   0.004621
              13         14         15         16         17         18
     1  C   -0.003721  -0.014631   0.003925   0.013213   0.000151   0.000093
     2  C    0.003088  -0.000395   0.000010  -0.000582   0.003647   0.000498
     3  C    0.371687  -0.001145  -0.002453  -0.000447  -0.058808   0.003517
     4  C   -0.011853   0.348026  -0.070910  -0.135924  -0.000453   0.000133
     5  H   -0.000008   0.002407  -0.000064  -0.000117  -0.000025  -0.000018
     6  H    0.000195  -0.005139   0.000070   0.008341  -0.000001   0.000000
     7  H    0.000693  -0.026985   0.001086   0.004908   0.000774   0.000019
     8  C   -0.009165  -0.000078   0.000004  -0.000006  -0.057210  -0.015865
     9  C   -0.026086   0.001069   0.000272   0.000051   0.275241  -0.056214
    10  H    0.000045  -0.000020   0.000000  -0.000006  -0.000042   0.000022
    11  H   -0.029170  -0.000306   0.001431   0.000188  -0.000879   0.000075
    12  H    0.004259   0.000831   0.000002   0.000657  -0.000012  -0.000005
    13  H    0.516331  -0.001434  -0.000214   0.001253   0.002422  -0.000179
    14  C   -0.001434   4.553107   0.538217   0.368011   0.000006   0.000001
    15  O   -0.000214   0.538217   8.023975  -0.054932  -0.000000   0.000000
    16  H    0.001253   0.368011  -0.054932   0.692897  -0.000000   0.000000
    17  O    0.002422   0.000006  -0.000000  -0.000000   8.253065   0.232182
    18  C   -0.000179   0.000001   0.000000   0.000000   0.232182   4.927189
    19  H    0.000003   0.000000  -0.000000   0.000000  -0.028535   0.386937
    20  H    0.000011  -0.000000  -0.000000   0.000000  -0.038906   0.385888
    21  H   -0.000026   0.000000   0.000000   0.000000  -0.035982   0.377479
    22  H    0.000022   0.000003  -0.000000  -0.000000  -0.008184  -0.000053
              19         20         21         22
     1  C   -0.000001   0.000029  -0.000440   0.000570
     2  C   -0.000032   0.000201   0.000200  -0.051614
     3  C   -0.000088  -0.000101   0.000318   0.005039
     4  C    0.000001   0.000001  -0.000038   0.000102
     5  H    0.000000  -0.000004   0.000209   0.000618
     6  H    0.000000  -0.000000   0.000002  -0.000053
     7  H   -0.000001   0.000006  -0.000063  -0.000017
     8  C    0.001227   0.000649   0.001100   0.384026
     9  C    0.004929  -0.006298  -0.014651  -0.044032
    10  H   -0.000000  -0.000005   0.000044  -0.006425
    11  H   -0.000013   0.000017   0.000038  -0.000111
    12  H    0.000001  -0.000013  -0.000005   0.004621
    13  H    0.000003   0.000011  -0.000026   0.000022
    14  C    0.000000  -0.000000   0.000000   0.000003
    15  O   -0.000000  -0.000000   0.000000  -0.000000
    16  H    0.000000   0.000000   0.000000  -0.000000
    17  O   -0.028535  -0.038906  -0.035982  -0.008184
    18  C    0.386937   0.385888   0.377479  -0.000053
    19  H    0.506425  -0.032116  -0.027197   0.000236
    20  H   -0.032116   0.574395  -0.052580   0.000943
    21  H   -0.027197  -0.052580   0.592744  -0.001130
    22  H    0.000236   0.000943  -0.001130   0.544505
 Mulliken charges:
               1
     1  C   -0.391128
     2  C   -0.387312
     3  C   -0.440273
     4  C   -0.165549
     5  H    0.188401
     6  H    0.184095
     7  H    0.189914
     8  C   -0.161093
     9  C    0.418534
    10  H    0.180248
    11  H    0.207998
    12  H    0.186927
    13  H    0.181845
    14  C    0.238456
    15  O   -0.440421
    16  H    0.102494
    17  O   -0.538452
    18  C   -0.241700
    19  H    0.188225
    20  H    0.167881
    21  H    0.159978
    22  H    0.170933
 Sum of Mulliken charges =  -0.00000
 Mulliken charges with hydrogens summed into heavy atoms:
               1
     1  C   -0.018632
     2  C   -0.020137
     3  C   -0.050430
     4  C    0.024364
     8  C    0.009840
     9  C    0.418534
    14  C    0.340950
    15  O   -0.440421
    17  O   -0.538452
    18  C    0.274385
 APT charges:
               1
     1  C   -0.986895
     2  C   -0.880656
     3  C   -0.849108
     4  C   -0.386825
     5  H    0.438065
     6  H    0.550051
     7  H    0.334794
     8  C   -0.485293
     9  C    0.090592
    10  H    0.631180
    11  H    0.499961
    12  H    0.348488
    13  H    0.390012
    14  C   -0.664628
    15  O    0.201103
    16  H    0.384015
    17  O   -0.320873
    18  C   -1.215558
    19  H    0.730211
    20  H    0.477949
    21  H    0.169896
    22  H    0.543520
 Sum of APT charges =  -0.00000
 APT charges with hydrogens summed into heavy atoms:
               1
     1  C    0.001221
     2  C    0.099012
     3  C    0.040865
     4  C   -0.052032
     8  C    0.058227
     9  C    0.090592
    14  C   -0.280613
    15  O    0.201103
    17  O   -0.320873
    18  C    0.162498
 Electronic spatial extent (au):  <R**2>=           1760.0191
 Charge=             -0.0000 electrons
 Dipole moment (field-independent basis, Debye):
    X=              3.1404    Y=              4.0568    Z=              0.4321  Tot=              5.1484
 Quadrupole moment (field-independent basis, Debye-Ang):
   XX=            -65.5235   YY=            -61.6198   ZZ=            -59.6002
   XY=             -5.0668   XZ=              4.7969   YZ=             -0.0940
 Traceless Quadrupole moment (field-independent basis, Debye-Ang):
   XX=             -3.2756   YY=              0.6280   ZZ=              2.6476
   XY=             -5.0668   XZ=              4.7969   YZ=             -0.0940
 Octapole moment (field-independent basis, Debye-Ang**2):
  XXX=             60.6788  YYY=              5.5866  ZZZ=              4.1288  XYY=              5.6543
  XXY=             25.3574  XXZ=              7.8084  XZZ=             -0.9235  YZZ=             -4.7214
  YYZ=              0.7841  XYZ=             -0.1352
 Hexadecapole moment (field-independent basis, Debye-Ang**3):
 XXXX=          -1531.9984 YYYY=           -521.0620 ZZZZ=           -238.2332 XXXY=            -86.1110
 XXXZ=             35.3074 YYYX=             -0.6604 YYYZ=              2.1399 ZZZX=             15.3600
 ZZZY=             -2.6513 XXYY=           -376.0274 XXZZ=           -282.8361 YYZZ=           -128.9639
 XXYZ=            -10.2605 YYXZ=              9.6250 ZZXY=             -0.8266
 N-N= 5.211231859207D+02 E-N=-2.118066717309D+03  KE= 4.583336791225D+02
  Exact polarizability:       0.000       0.000       0.000       0.000       0.000       0.000
 Approx polarizability:     152.416      15.021     147.034      -3.011       4.045      87.058
 Calling FoFJK, ICntrl=    100127 FMM=F ISym2X=0 I1Cent= 0 IOpClX= 0 NMat=1 NMatS=1 NMatT=0.
 ***** Axes restored to original set *****
 -------------------------------------------------------------------
 Center     Atomic                   Forces (Hartrees/Bohr)
 Number     Number              X              Y              Z
 -------------------------------------------------------------------
      1        6          -0.005256078   -0.001794142   -0.003750333
      2        6           0.004785319    0.009542257    0.001427618
      3        6          -0.004960526    0.005405364   -0.002007467
      4        6           0.008900071   -0.001299493   -0.000187512
      5        1          -0.000770355    0.000484155    0.000301162
      6        1          -0.000213392   -0.000156407    0.000050497
      7        1           0.000162122    0.000339198   -0.000208080
      8        6          -0.014200913   -0.009476177    0.015679364
      9        6           0.017506255    0.016068446   -0.020833829
     10        1          -0.001955072   -0.001390612    0.001116036
     11        1           0.001634256    0.000330362   -0.001376750
     12        1          -0.004035482   -0.003490542   -0.000013993
     13        1           0.004216761    0.000464818    0.000612871
     14        6          -0.005454033    0.002503022    0.003719668
     15        8           0.002755985   -0.003040754   -0.000339068
     16        1          -0.000073354    0.000349642   -0.000336625
     17        8          -0.007427083   -0.034290729    0.017136637
     18        6          -0.017614521    0.018463968    0.000775674
     19        1           0.000957459    0.013562335   -0.008756739
     20        1           0.014625914   -0.002626275    0.011616440
     21        1           0.002019380   -0.009041002   -0.014114568
     22        1           0.004397290   -0.000907434   -0.000511005
 -------------------------------------------------------------------
 Cartesian Forces:  Max     0.034290729 RMS     0.008757396
 FormGI is forming the generalized inverse of G from B-inverse, IUseBI=4.

 GradGradGradGradGradGradGradGradGradGradGradGradGradGradGradGradGradGrad
 Berny optimization.
 Internal  Forces:  Max     0.088135798 RMS     0.012061250
 Search for a saddle point.
 Step number   1 out of a maximum of  103
 All quantities printed in internal units (Hartrees-Bohrs-Radians)
 Swapping is turned off.
 Second derivative matrix not updated -- analytic derivatives used.
 ITU=  0
     Eigenvalues ---   -0.06543  -0.01211   0.00332   0.00795   0.00916
     Eigenvalues ---    0.01286   0.02111   0.02179   0.02691   0.02944
     Eigenvalues ---    0.03223   0.03282   0.03541   0.03845   0.03964
     Eigenvalues ---    0.05233   0.05606   0.06618   0.06953   0.07697
     Eigenvalues ---    0.07988   0.09412   0.09596   0.10230   0.10495
     Eigenvalues ---    0.10812   0.12172   0.13582   0.14144   0.14562
     Eigenvalues ---    0.16294   0.16602   0.17996   0.18880   0.19468
     Eigenvalues ---    0.22190   0.23445   0.26358   0.29246   0.30425
     Eigenvalues ---    0.34235   0.35017   0.36358   0.37077   0.37259
     Eigenvalues ---    0.37265   0.37514   0.37559   0.37886   0.38427
     Eigenvalues ---    0.39562   0.39923   0.40366   0.41433   0.50241
     Eigenvalues ---    0.55033   0.62096   0.64133   0.89593   1.27488
 Eigenvectors required to have negative eigenvalues:
                          R1        D24       D25       D20       D14
   1                   -0.64243   0.29316   0.21433  -0.21101   0.21077
                          D13       R2        R13       A3        D16
   1                   -0.20161   0.16546  -0.16427   0.15843  -0.14244
 RFO step:  Lambda0=1.388665569D-06 Lambda=-2.27470205D-02.
 Linear search not attempted -- option 19 set.
 Iteration  1 RMS(Cart)=  0.11074792 RMS(Int)=  0.04152830
 Iteration  2 RMS(Cart)=  0.10036277 RMS(Int)=  0.01315644
 Iteration  3 RMS(Cart)=  0.04166311 RMS(Int)=  0.00113191
 Iteration  4 RMS(Cart)=  0.00153009 RMS(Int)=  0.00028666
 Iteration  5 RMS(Cart)=  0.00000206 RMS(Int)=  0.00028666
 Iteration  6 RMS(Cart)=  0.00000000 RMS(Int)=  0.00028666
 Variable       Old X    -DE/DX   Delta X   Delta X   Delta X     New X
                                 (Linear)    (Quad)   (Total)
    R1        4.06438   0.00082   0.00000  -0.00011  -0.00011   4.06427
    R2        2.61585  -0.00472   0.00000   0.00089   0.00089   2.61674
    R3        2.04914  -0.00086   0.00000  -0.00125  -0.00125   2.04789
    R4        2.05684   0.00023   0.00000   0.00003   0.00003   2.05686
    R5        2.61018  -0.00039   0.00000  -0.00281  -0.00281   2.60737
    R6        2.05095   0.00036   0.00000   0.00160   0.00160   2.05255
    R7        2.04328   0.00235   0.00000   0.00468   0.00468   2.04797
    R8        2.57623  -0.00061   0.00000   0.01394   0.01394   2.59016
    R9        2.05065  -0.00015   0.00000  -0.00135  -0.00135   2.04930
   R10        2.04633  -0.00174   0.00000  -0.00313  -0.00313   2.04321
   R11        2.04868   0.00040   0.00000   0.00056   0.00056   2.04924
   R12        2.75990   0.00383   0.00000   0.01385   0.01385   2.77374
   R13        2.68678   0.00456   0.00000  -0.01252  -0.01252   2.67425
   R14        2.02201   0.00432   0.00000   0.02714   0.02714   2.04915
   R15        2.70231  -0.01675   0.00000  -0.13969  -0.13969   2.56262
   R16        2.29347  -0.00398   0.00000  -0.00529  -0.00529   2.28818
   R17        2.10997  -0.00046   0.00000  -0.00112  -0.00112   2.10885
   R18        2.70231  -0.00380   0.00000  -0.02860  -0.02860   2.67371
   R19        2.02201   0.01480   0.00000   0.03420   0.03420   2.05620
   R20        2.02201   0.01861   0.00000   0.04387   0.04387   2.06587
   R21        2.02201   0.01326   0.00000   0.05334   0.05334   2.07534
    A1        1.95624  -0.00877   0.00000  -0.04358  -0.04361   1.91263
    A2        1.62225   0.00385   0.00000   0.02163   0.02148   1.64373
    A3        1.57465   0.00293   0.00000   0.02254   0.02257   1.59722
    A4        2.09604   0.00028   0.00000  -0.00335  -0.00323   2.09281
    A5        2.06545   0.00127   0.00000   0.00392   0.00416   2.06962
    A6        2.00335  -0.00028   0.00000   0.00097   0.00060   2.00396
    A7        1.78340  -0.00154   0.00000   0.00879   0.00872   1.79212
    A8        1.80436  -0.00010   0.00000   0.00553   0.00533   1.80968
    A9        1.57448  -0.00173   0.00000  -0.03902  -0.03896   1.53553
   A10        2.05452   0.00157   0.00000   0.01791   0.01773   2.07225
   A11        2.08472   0.00189   0.00000   0.01446   0.01439   2.09911
   A12        2.02799  -0.00182   0.00000  -0.02144  -0.02162   2.00636
   A13        2.11158  -0.00080   0.00000  -0.01371  -0.01428   2.09730
   A14        2.13101  -0.00336   0.00000  -0.02535  -0.02592   2.10509
   A15        2.01252   0.00360   0.00000   0.02618   0.02557   2.03809
   A16        2.12499   0.00040   0.00000   0.00207   0.00186   2.12685
   A17        2.09371  -0.00096   0.00000  -0.00581  -0.00600   2.08771
   A18        2.03897   0.00057   0.00000  -0.00383  -0.00401   2.03496
   A19        2.11652  -0.00626   0.00000  -0.00383  -0.00385   2.11267
   A20        2.01353   0.00270   0.00000   0.05780   0.05771   2.07124
   A21        2.13381   0.00357   0.00000  -0.05657  -0.05652   2.07728
   A22        2.11836  -0.01515   0.00000   0.00889   0.00805   2.12641
   A23        2.06480  -0.03211   0.00000  -0.02254  -0.02349   2.04131
   A24        2.07682   0.04820   0.00000   0.02892   0.02816   2.10498
   A25        2.19461  -0.00125   0.00000  -0.00288  -0.00288   2.19172
   A26        1.98746   0.00079   0.00000  -0.00038  -0.00039   1.98707
   A27        2.10105   0.00047   0.00000   0.00333   0.00332   2.10437
   A28        1.91114   0.08814   0.00000   0.11299   0.11299   2.02412
   A29        1.91063  -0.01470   0.00000  -0.04929  -0.04911   1.86152
   A30        1.91063   0.00658   0.00000   0.03219   0.03202   1.94266
   A31        1.91063   0.01118   0.00000   0.02431   0.02417   1.93480
   A32        1.91063  -0.00001   0.00000  -0.01496  -0.01481   1.89582
   A33        1.91063  -0.00369   0.00000   0.01999   0.02018   1.93081
   A34        1.91063   0.00065   0.00000  -0.01224  -0.01267   1.89796
    D1       -0.97870   0.00071   0.00000   0.01761   0.01760  -0.96110
    D2       -3.12044  -0.00034   0.00000  -0.00817  -0.00816  -3.12860
    D3        1.11999   0.00202   0.00000   0.02384   0.02380   1.14379
    D4        1.18979   0.00009   0.00000   0.01045   0.01026   1.20005
    D5       -0.95195  -0.00096   0.00000  -0.01533  -0.01550  -0.96745
    D6       -2.99470   0.00140   0.00000   0.01667   0.01646  -2.97824
    D7       -3.08921   0.00008   0.00000   0.01335   0.01356  -3.07565
    D8        1.05224  -0.00097   0.00000  -0.01243  -0.01221   1.04003
    D9       -0.99051   0.00139   0.00000   0.01958   0.01975  -0.97076
   D10        1.72338   0.00019   0.00000   0.01889   0.01897   1.74235
   D11       -1.66665   0.00033   0.00000  -0.01790  -0.01784  -1.68450
   D12       -0.15137   0.00144   0.00000   0.02470   0.02463  -0.12675
   D13        2.74178   0.00158   0.00000  -0.01209  -0.01219   2.72959
   D14       -2.76352  -0.00111   0.00000   0.02118   0.02122  -2.74231
   D15        0.12963  -0.00097   0.00000  -0.01560  -0.01560   0.11403
   D16        1.11371   0.00011   0.00000  -0.03009  -0.03037   1.08334
   D17       -1.82240  -0.00049   0.00000  -0.00995  -0.00988  -1.83228
   D18        3.07524  -0.00032   0.00000  -0.00953  -0.00965   3.06558
   D19        0.13913  -0.00092   0.00000   0.01061   0.01084   0.14997
   D20       -0.58362   0.00253   0.00000   0.00668   0.00656  -0.57706
   D21        2.76346   0.00193   0.00000   0.02683   0.02705   2.79052
   D22       -2.96369  -0.00541   0.00000  -0.01543  -0.01486  -2.97855
   D23       -0.05423   0.00556   0.00000   0.06342   0.06300   0.00877
   D24        0.44216  -0.00334   0.00000   0.04018   0.04060   0.48276
   D25       -2.93156   0.00763   0.00000   0.11904   0.11846  -2.81310
   D26       -2.99469   0.00061   0.00000   0.03549   0.03544  -2.95925
   D27        0.15942  -0.00012   0.00000   0.02894   0.02889   0.18832
   D28       -0.08960   0.00073   0.00000   0.00131   0.00136  -0.08824
   D29        3.06451   0.00001   0.00000  -0.00523  -0.00519   3.05933
   D30        0.04137   0.00096   0.00000   0.04844   0.04876   0.09014
   D31       -2.86653   0.00039   0.00000  -0.02426  -0.02511  -2.89165
   D32        2.96318   0.00139   0.00000   0.04095   0.04180   3.00498
   D33        0.05528   0.00081   0.00000  -0.03175  -0.03207   0.02320
   D34       -2.91510   0.00522   0.00000   0.43836   0.43847  -2.47664
   D35        0.00000   0.00764   0.00000   0.51279   0.51269   0.51269
   D36        2.92265   0.00571   0.00000  -0.16673  -0.16676   2.75589
   D37       -1.26614   0.00072   0.00000  -0.19554  -0.19600  -1.46214
   D38        0.82825   0.01239   0.00000  -0.17593  -0.17543   0.65282
         Item               Value     Threshold  Converged?
 Maximum Force            0.088136     0.000450     NO 
 RMS     Force            0.012061     0.000300     NO 
 Maximum Displacement     0.867705     0.001800     NO 
 RMS     Displacement     0.230151     0.001200     NO 
 Predicted change in Energy=-1.598721D-02
 GradGradGradGradGradGradGradGradGradGradGradGradGradGradGradGradGradGrad

                          Input orientation:                          
 ---------------------------------------------------------------------
 Center     Atomic      Atomic             Coordinates (Angstroms)
 Number     Number       Type             X           Y           Z
 ---------------------------------------------------------------------
      1          6           0       -0.726203   -1.499929   -0.539820
      2          6           0        0.643693   -1.276536    1.103067
      3          6           0       -0.481647    1.323825    0.780353
      4          6           0       -1.385899   -0.302568   -0.760221
      5          1           0        0.036630   -1.832350   -1.234070
      6          1           0       -1.256591   -2.299831   -0.026444
      7          1           0       -1.086072    0.379560   -1.548097
      8          6           0        1.414593   -0.201625    0.710613
      9          6           0        0.837157    1.073597    0.503159
     10          1           0        1.111696   -2.253509    1.182129
     11          1           0       -0.935100    2.259668    0.472799
     12          1           0       -0.214253   -1.126962    1.748083
     13          1           0       -1.001640    0.757247    1.540372
     14          6           0       -2.715895   -0.089115   -0.177135
     15          8           0       -3.461407    0.828087   -0.440040
     16          1           0       -3.011196   -0.864559    0.569081
     17          8           0        1.522829    2.043935   -0.150482
     18          6           0        2.454332    1.599699   -1.118365
     19          1           0        2.613570    2.430722   -1.802467
     20          1           0        3.410888    1.338024   -0.658320
     21          1           0        2.070332    0.723156   -1.657171
     22          1           0        2.423376   -0.385929    0.358150
 ---------------------------------------------------------------------
                    Distance matrix (angstroms):
                    1          2          3          4          5
     1  C    0.000000
     2  C    2.150720   0.000000
     3  C    3.126700   2.851739   0.000000
     4  C    1.384720   2.922276   2.415822   0.000000
     5  H    1.083698   2.477834   3.779941   2.142044   0.000000
     6  H    1.088444   2.435982   3.792407   2.131715   1.830114
     7  H    2.163009   3.572592   2.584308   1.084409   2.500324
     8  C    2.798604   1.379761   2.434664   3.164853   2.887878
     9  C    3.186681   2.433196   1.370655   2.903779   3.478985
    10  H    2.628852   1.086165   3.936685   3.717106   2.677902
    11  H    3.899181   3.923591   1.084440   2.878995   4.538973
    12  H    2.373963   1.083739   2.648463   2.888593   3.074696
    13  H    3.081868   2.652287   1.081218   2.561951   3.934660
    14  C    2.465930   3.786254   2.811592   1.467802   3.425255
    15  O    3.593182   4.864408   3.257927   2.385086   4.465946
    16  H    2.618119   3.716595   3.351459   2.173584   3.671132
    17  O    4.215294   3.656473   2.324422   3.786628   4.290517
    18  C    4.478639   4.060283   3.507308   4.300495   4.199718
    19  H    5.310215   5.105517   4.180496   4.955088   5.013729
    20  H    5.018321   4.194732   4.149917   5.070610   4.665660
    21  H    3.743152   3.694994   3.579795   3.715126   3.293261
    22  H    3.459363   2.124936   3.397157   3.970929   3.213076
                    6          7          8          9         10
     6  H    0.000000
     7  H    3.086040   0.000000
     8  C    3.475765   3.419484   0.000000
     9  C    4.005531   2.896230   1.415154   0.000000
    10  H    2.659244   4.383762   2.127041   3.406759   0.000000
    11  H    4.598004   2.764348   3.411096   2.132740   5.006126
    12  H    2.368763   3.727530   2.141432   2.738203   1.829633
    13  H    3.444654   3.112622   2.728758   2.134728   3.695833
    14  C    2.653214   2.180714   4.226309   3.799852   4.602462
    15  O    3.849176   2.659169   5.114654   4.407670   5.748126
    16  H    2.343778   3.120316   4.477401   4.309363   4.393546
    17  O    5.158378   3.395561   2.407435   1.356079   4.518065
    18  C    5.492684   3.769333   2.769654   2.349761   4.684245
    19  H    6.364789   4.237844   3.831758   3.211440   5.753734
    20  H    5.951355   4.683269   2.868744   2.836027   4.644636
    21  H    4.781855   3.176924   2.625188   2.512082   4.223877
    22  H    4.165704   4.066445   1.084362   2.160401   2.426376
                   11         12         13         14         15
    11  H    0.000000
    12  H    3.689882   0.000000
    13  H    1.844291   2.052648   0.000000
    14  C    3.018349   3.322921   2.569987   0.000000
    15  O    3.043835   4.376541   3.158719   1.210854   0.000000
    16  H    3.752364   3.046603   2.758980   1.115954   2.021402
    17  O    2.544884   4.083698   3.299621   4.745250   5.138554
    18  C    3.802054   4.772059   4.440986   5.519896   6.004288
    19  H    4.218904   5.767157   5.200465   6.115103   6.428841
    20  H    4.584372   5.000858   4.964067   6.309179   6.894645
    21  H    3.991274   4.498669   4.434237   5.075260   5.665030
    22  H    4.276878   3.072153   3.799373   5.175590   6.061486
                   16         17         18         19         20
    16  H    0.000000
    17  O    5.434564   0.000000
    18  C    6.228325   1.414864   0.000000
    19  H    6.936937   2.017021   1.088096   0.000000
    20  H    6.899351   2.078696   1.093213   1.771659   0.000000
    21  H    5.770525   2.077096   1.098224   1.797777   1.781252
    22  H    5.459683   2.640820   2.474626   3.554991   2.231683
                   21         22
    21  H    0.000000
    22  H    2.327279   0.000000
 Stoichiometry    C8H12O2
 Framework group  C1[X(C8H12O2)]
 Deg. of freedom    60
 Full point group                 C1      NOp   1
 Largest Abelian subgroup         C1      NOp   1
 Largest concise Abelian subgroup C1      NOp   1
                         Standard orientation:                         
 ---------------------------------------------------------------------
 Center     Atomic      Atomic             Coordinates (Angstroms)
 Number     Number       Type             X           Y           Z
 ---------------------------------------------------------------------
      1          6           0       -1.048636    1.424253    0.921033
      2          6           0        0.334517    2.010667   -0.617994
      3          6           0       -0.060912   -0.777591   -1.067066
      4          6           0       -1.367296    0.084857    0.772971
      5          1           0       -0.402699    1.739573    1.732045
      6          1           0       -1.771333    2.170441    0.596038
      7          1           0       -0.898667   -0.685055    1.375934
      8          6           0        1.362319    1.103231   -0.463318
      9          6           0        1.143656   -0.283965   -0.638065
     10          1           0        0.526588    3.058351   -0.405339
     11          1           0       -0.250301   -1.845195   -1.047972
     12          1           0       -0.451742    1.827513   -1.341002
     13          1           0       -0.711197   -0.178629   -1.689487
     14          6           0       -2.591840   -0.294733    0.058235
     15          8           0       -3.067676   -1.407435    0.017718
     16          1           0       -3.080951    0.551691   -0.479995
     17          8           0        2.061039   -1.186717   -0.210985
     18          6           0        2.839403   -0.798606    0.904972
     19          1           0        3.212200   -1.714521    1.358927
     20          1           0        3.693069   -0.187293    0.600562
     21          1           0        2.235518   -0.228581    1.623644
     22          1           0        2.285340    1.436234   -0.001820
 ---------------------------------------------------------------------
 Rotational constants (GHZ):           1.9592194           0.8565684           0.7132748
 Standard basis: 6-31G(d) (6D, 7F)
 There are   174 symmetry adapted cartesian basis functions of A   symmetry.
 There are   174 symmetry adapted basis functions of A   symmetry.
   174 basis functions,   328 primitive gaussians,   174 cartesian basis functions
    38 alpha electrons       38 beta electrons
       nuclear repulsion energy       525.3836564421 Hartrees.
 NAtoms=   22 NActive=   22 NUniq=   22 SFac= 1.00D+00 NAtFMM=   60 NAOKFM=F Big=F
 Integral buffers will be    131072 words long.
 Raffenetti 2 integral format.
 Two-electron integral symmetry is turned on.
 One-electron integrals computed using PRISM.
 NBasis=   174 RedAO= T EigKep=  1.85D-03  NBF=   174
 NBsUse=   174 1.00D-06 EigRej= -1.00D+00 NBFU=   174
 Initial guess from the checkpoint file:  "/tmp/Gau-2313140.chk"
 B after Tr=     0.000000    0.000000   -0.000000
         Rot=    0.999372   -0.035219    0.003550   -0.001446 Ang=  -4.06 deg.
 ExpMin= 1.61D-01 ExpMax= 5.48D+03 ExpMxC= 8.25D+02 IAcc=3 IRadAn=         5 AccDes= 0.00D+00
 Harris functional with IExCor= 1009 and IRadAn=       5 diagonalized for initial guess.
 HarFok:  IExCor= 1009 AccDes= 0.00D+00 IRadAn=         5 IDoV= 1 UseB2=F ITyADJ=14
 ICtDFT=  3500011 ScaDFX=  1.000000  1.000000  1.000000  1.000000
 FoFCou: FMM=F IPFlag=           0 FMFlag=      100000 FMFlg1=           0
         NFxFlg=           0 DoJE=T BraDBF=F KetDBF=T FulRan=T
         wScrn=  0.000000 ICntrl=       500 IOpCl=  0 I1Cent=   200000004 NGrid=           0
         NMat0=    1 NMatS0=      1 NMatT0=    0 NMatD0=    1 NMtDS0=    0 NMtDT0=    0
 Petite list used in FoFCou.
 Requested convergence on RMS density matrix=1.00D-08 within 128 cycles.
 Requested convergence on MAX density matrix=1.00D-06.
 Requested convergence on             energy=1.00D-06.
 No special actions if energy rises.
 Integral accuracy reduced to 1.0D-05 until final iterations.
 Initial convergence to 1.0D-05 achieved.  Increase integral accuracy.
 SCF Done:  E(RM062X) =  -462.172100757     A.U. after   16 cycles
            NFock= 16  Conv=0.65D-08     -V/T= 2.0083
 Calling FoFJK, ICntrl=      2127 FMM=F ISym2X=0 I1Cent= 0 IOpClX= 0 NMat=1 NMatS=1 NMatT=0.
 ***** Axes restored to original set *****
 -------------------------------------------------------------------
 Center     Atomic                   Forces (Hartrees/Bohr)
 Number     Number              X              Y              Z
 -------------------------------------------------------------------
      1        6          -0.001752905   -0.000677517   -0.001501032
      2        6           0.002367396    0.001876621    0.000119753
      3        6          -0.001310075   -0.001933613   -0.000406027
      4        6           0.001859149    0.000551771    0.001293169
      5        1          -0.000000245    0.000071337    0.000084531
      6        1          -0.000189274    0.000213561    0.000124918
      7        1          -0.000586462   -0.000330682   -0.000563054
      8        6          -0.003242633   -0.001574861    0.003809026
      9        6          -0.001359341   -0.005238515    0.007527054
     10        1          -0.000652145   -0.000403590    0.000378119
     11        1           0.000292182   -0.000110807   -0.000603022
     12        1          -0.000752018   -0.000990091   -0.000484695
     13        1           0.000322787    0.000529734    0.001092379
     14        6          -0.000798468   -0.000129154   -0.000060700
     15        8          -0.000129438   -0.000259254   -0.000354080
     16        1           0.000169892    0.000173752    0.000118233
     17        8           0.002867712    0.005128388   -0.007631806
     18        6           0.000652961    0.000808027    0.001000866
     19        1          -0.000314574    0.000885814   -0.001732177
     20        1           0.002188355   -0.000601162    0.000603769
     21        1           0.000572658    0.002633124   -0.001651939
     22        1          -0.000205511   -0.000622884   -0.001163286
 -------------------------------------------------------------------
 Cartesian Forces:  Max     0.007631806 RMS     0.001991732

 GradGradGradGradGradGradGradGradGradGradGradGradGradGradGradGradGradGrad
 Berny optimization.
 FormGI is forming the generalized inverse of G from B-inverse, IUseBI=4.
 Internal  Forces:  Max     0.015167831 RMS     0.002502334
 Search for a saddle point.
 Step number   2 out of a maximum of  103
 All quantities printed in internal units (Hartrees-Bohrs-Radians)
 Swapping is turned off.
 Update second derivatives using D2CorX and points    1    2
 ITU=  0  0
     Eigenvalues ---   -0.06541  -0.00055   0.00332   0.00794   0.00913
     Eigenvalues ---    0.01273   0.02110   0.02178   0.02690   0.02940
     Eigenvalues ---    0.03230   0.03298   0.03541   0.03865   0.03965
     Eigenvalues ---    0.05235   0.05600   0.06617   0.06959   0.07696
     Eigenvalues ---    0.07991   0.09409   0.09602   0.10226   0.10493
     Eigenvalues ---    0.10812   0.12177   0.13593   0.14141   0.14557
     Eigenvalues ---    0.16312   0.16632   0.17982   0.18876   0.19462
     Eigenvalues ---    0.22189   0.23438   0.26761   0.29523   0.30429
     Eigenvalues ---    0.34237   0.35013   0.36358   0.37078   0.37259
     Eigenvalues ---    0.37265   0.37515   0.37561   0.37888   0.38425
     Eigenvalues ---    0.39567   0.39924   0.40375   0.41409   0.50250
     Eigenvalues ---    0.55048   0.62097   0.64124   0.89593   1.27891
 Eigenvectors required to have negative eigenvalues:
                          R1        D24       D20       D25       D14
   1                   -0.64230   0.29293  -0.21267   0.21230   0.21115
                          D13       R2        R13       A3        D16
   1                   -0.20220   0.16538  -0.16420   0.15804  -0.14333
 RFO step:  Lambda0=2.656965705D-06 Lambda=-1.57940137D-03.
 Linear search not attempted -- option 19 set.
 Iteration  1 RMS(Cart)=  0.10739478 RMS(Int)=  0.04351866
 Iteration  2 RMS(Cart)=  0.09078851 RMS(Int)=  0.01320460
 Iteration  3 RMS(Cart)=  0.04104229 RMS(Int)=  0.00117129
 Iteration  4 RMS(Cart)=  0.00171357 RMS(Int)=  0.00016577
 Iteration  5 RMS(Cart)=  0.00000195 RMS(Int)=  0.00016577
 Iteration  6 RMS(Cart)=  0.00000000 RMS(Int)=  0.00016577
 Variable       Old X    -DE/DX   Delta X   Delta X   Delta X     New X
                                 (Linear)    (Quad)   (Total)
    R1        4.06427   0.00161   0.00000   0.10564   0.10564   4.16991
    R2        2.61674  -0.00030   0.00000  -0.00795  -0.00795   2.60879
    R3        2.04789  -0.00008   0.00000  -0.00121  -0.00121   2.04668
    R4        2.05686  -0.00001   0.00000  -0.00074  -0.00074   2.05612
    R5        2.60737  -0.00006   0.00000  -0.00866  -0.00866   2.59871
    R6        2.05255   0.00011   0.00000  -0.00035  -0.00035   2.05220
    R7        2.04797   0.00017   0.00000   0.00006   0.00006   2.04803
    R8        2.59016   0.00041   0.00000   0.00274   0.00274   2.59290
    R9        2.04930  -0.00005   0.00000   0.00015   0.00015   2.04945
   R10        2.04321   0.00034   0.00000  -0.00035  -0.00035   2.04286
   R11        2.04924   0.00004   0.00000   0.00039   0.00039   2.04963
   R12        2.77374   0.00054   0.00000   0.00504   0.00504   2.77879
   R13        2.67425   0.00055   0.00000   0.00490   0.00490   2.67915
   R14        2.04915   0.00029   0.00000  -0.00112  -0.00112   2.04802
   R15        2.56262   0.01389   0.00000  -0.00720  -0.00720   2.55541
   R16        2.28818  -0.00004   0.00000  -0.00171  -0.00171   2.28647
   R17        2.10885  -0.00009   0.00000  -0.00028  -0.00028   2.10856
   R18        2.67371   0.00209   0.00000  -0.00982  -0.00982   2.66389
   R19        2.05620   0.00172   0.00000   0.00108   0.00108   2.05728
   R20        2.06587   0.00231   0.00000   0.00398   0.00398   2.06985
   R21        2.07534  -0.00149   0.00000  -0.00221  -0.00221   2.07314
    A1        1.91263   0.00114   0.00000  -0.01570  -0.01568   1.89695
    A2        1.64373  -0.00042   0.00000  -0.02552  -0.02556   1.61817
    A3        1.59722  -0.00043   0.00000  -0.00618  -0.00610   1.59112
    A4        2.09281  -0.00015   0.00000   0.00575   0.00514   2.09796
    A5        2.06962  -0.00020   0.00000   0.00734   0.00705   2.07667
    A6        2.00396   0.00018   0.00000   0.01158   0.01119   2.01514
    A7        1.79212   0.00182   0.00000   0.00014   0.00023   1.79235
    A8        1.80968  -0.00098   0.00000  -0.01637  -0.01633   1.79336
    A9        1.53553  -0.00116   0.00000  -0.02772  -0.02768   1.50784
   A10        2.07225   0.00005   0.00000   0.01125   0.01105   2.08330
   A11        2.09911   0.00042   0.00000   0.01273   0.01245   2.11156
   A12        2.00636  -0.00039   0.00000  -0.00357  -0.00417   2.00219
   A13        2.09730  -0.00058   0.00000  -0.00664  -0.00693   2.09038
   A14        2.10509  -0.00002   0.00000  -0.00775  -0.00804   2.09705
   A15        2.03809   0.00039   0.00000   0.00255   0.00224   2.04033
   A16        2.12685   0.00012   0.00000  -0.00257  -0.00293   2.12392
   A17        2.08771  -0.00025   0.00000  -0.00445  -0.00481   2.08290
   A18        2.03496  -0.00007   0.00000  -0.00488  -0.00523   2.02973
   A19        2.11267  -0.00046   0.00000   0.00482   0.00460   2.11727
   A20        2.07124  -0.00019   0.00000  -0.01134  -0.01155   2.05970
   A21        2.07728   0.00055   0.00000  -0.00115  -0.00139   2.07589
   A22        2.12641  -0.00564   0.00000  -0.01056  -0.01073   2.11568
   A23        2.04131  -0.00263   0.00000  -0.01371  -0.01388   2.02744
   A24        2.10498   0.00827   0.00000   0.01931   0.01907   2.12405
   A25        2.19172  -0.00004   0.00000  -0.00180  -0.00180   2.18992
   A26        1.98707  -0.00003   0.00000  -0.00009  -0.00009   1.98698
   A27        2.10437   0.00007   0.00000   0.00191   0.00190   2.10628
   A28        2.02412   0.01517   0.00000   0.01312   0.01312   2.03724
   A29        1.86152  -0.00079   0.00000  -0.00916  -0.00916   1.85236
   A30        1.94266   0.00102   0.00000   0.00180   0.00178   1.94444
   A31        1.93480   0.00175   0.00000   0.01345   0.01343   1.94823
   A32        1.89582  -0.00002   0.00000   0.01234   0.01234   1.90817
   A33        1.93081  -0.00240   0.00000  -0.02041  -0.02039   1.91042
   A34        1.89796   0.00035   0.00000   0.00152   0.00147   1.89944
    D1       -0.96110   0.00007   0.00000   0.04910   0.04898  -0.91212
    D2       -3.12860  -0.00037   0.00000   0.04362   0.04363  -3.08497
    D3        1.14379   0.00039   0.00000   0.05554   0.05536   1.19915
    D4        1.20005   0.00008   0.00000   0.03819   0.03825   1.23830
    D5       -0.96745  -0.00037   0.00000   0.03270   0.03291  -0.93455
    D6       -2.97824   0.00040   0.00000   0.04463   0.04463  -2.93361
    D7       -3.07565   0.00019   0.00000   0.04763   0.04762  -3.02804
    D8        1.04003  -0.00025   0.00000   0.04215   0.04227   1.08230
    D9       -0.97076   0.00051   0.00000   0.05407   0.05399  -0.91677
   D10        1.74235   0.00050   0.00000  -0.00053  -0.00055   1.74181
   D11       -1.68450  -0.00034   0.00000  -0.05061  -0.05061  -1.73511
   D12       -0.12675   0.00031   0.00000   0.04008   0.04018  -0.08656
   D13        2.72959  -0.00053   0.00000  -0.01000  -0.00988   2.71971
   D14       -2.74231   0.00060   0.00000  -0.01466  -0.01477  -2.75707
   D15        0.11403  -0.00024   0.00000  -0.06474  -0.06483   0.04920
   D16        1.08334  -0.00001   0.00000   0.00013   0.00015   1.08349
   D17       -1.83228   0.00039   0.00000   0.03918   0.03909  -1.79318
   D18        3.06558   0.00006   0.00000  -0.01460  -0.01462   3.05096
   D19        0.14997   0.00047   0.00000   0.02444   0.02432   0.17429
   D20       -0.57706   0.00014   0.00000   0.02952   0.02968  -0.54738
   D21        2.79052   0.00055   0.00000   0.06857   0.06862   2.85913
   D22       -2.97855  -0.00003   0.00000   0.00928   0.00911  -2.96944
   D23        0.00877   0.00080   0.00000  -0.02516  -0.02489  -0.01612
   D24        0.48276   0.00069   0.00000   0.05190   0.05164   0.53440
   D25       -2.81310   0.00151   0.00000   0.01746   0.01763  -2.79547
   D26       -2.95925   0.00080   0.00000   0.06684   0.06680  -2.89245
   D27        0.18832   0.00062   0.00000   0.06371   0.06367   0.25198
   D28       -0.08824   0.00004   0.00000   0.01970   0.01974  -0.06850
   D29        3.05933  -0.00014   0.00000   0.01657   0.01661   3.07594
   D30        0.09014  -0.00002   0.00000  -0.05388  -0.05396   0.03617
   D31       -2.89165   0.00013   0.00000  -0.01522  -0.01503  -2.90667
   D32        3.00498  -0.00053   0.00000  -0.09435  -0.09453   2.91045
   D33        0.02320  -0.00038   0.00000  -0.05568  -0.05560  -0.03240
   D34       -2.47664   0.00029   0.00000  -0.46263  -0.46251  -2.93915
   D35        0.51269  -0.00019   0.00000  -0.49938  -0.49950   0.01319
   D36        2.75589   0.00012   0.00000   0.25157   0.25156   3.00745
   D37       -1.46214   0.00019   0.00000   0.26191   0.26187  -1.20027
   D38        0.65282   0.00253   0.00000   0.27431   0.27436   0.92718
         Item               Value     Threshold  Converged?
 Maximum Force            0.015168     0.000450     NO 
 RMS     Force            0.002502     0.000300     NO 
 Maximum Displacement     0.989929     0.001800     NO 
 RMS     Displacement     0.224551     0.001200     NO 
 Predicted change in Energy=-1.301939D-03
 GradGradGradGradGradGradGradGradGradGradGradGradGradGradGradGradGradGrad

                          Input orientation:                          
 ---------------------------------------------------------------------
 Center     Atomic      Atomic             Coordinates (Angstroms)
 Number     Number       Type             X           Y           Z
 ---------------------------------------------------------------------
      1          6           0       -0.876638   -1.569225   -0.494131
      2          6           0        0.693184   -1.268831    1.027253
      3          6           0       -0.501256    1.287340    0.670830
      4          6           0       -1.509387   -0.363391   -0.720870
      5          1           0       -0.172209   -1.959551   -1.218311
      6          1           0       -1.368471   -2.313882    0.128317
      7          1           0       -1.264530    0.256548   -1.576506
      8          6           0        1.407953   -0.209678    0.518903
      9          6           0        0.805913    1.058695    0.321976
     10          1           0        1.160447   -2.247381    1.085995
     11          1           0       -0.986528    2.208352    0.366799
     12          1           0       -0.115333   -1.109726    1.731205
     13          1           0       -0.944079    0.751295    1.498599
     14          6           0       -2.798388   -0.091961   -0.067353
     15          8           0       -3.562090    0.798526   -0.363615
     16          1           0       -3.039000   -0.794976    0.765049
     17          8           0        1.403786    2.022356   -0.414592
     18          6           0        2.648604    1.698682   -0.991506
     19          1           0        2.902691    2.528960   -1.648217
     20          1           0        3.426521    1.588907   -0.228280
     21          1           0        2.594180    0.772754   -1.577360
     22          1           0        2.357822   -0.419204    0.040990
 ---------------------------------------------------------------------
                    Distance matrix (angstroms):
                    1          2          3          4          5
     1  C    0.000000
     2  C    2.206623   0.000000
     3  C    3.107733   2.843893   0.000000
     4  C    1.380514   2.954162   2.382870   0.000000
     5  H    1.083056   2.503708   3.770865   2.140846   0.000000
     6  H    1.088052   2.480048   3.743685   2.131993   1.835756
     7  H    2.157648   3.597080   2.587593   1.084616   2.496511
     8  C    2.844988   1.375180   2.430889   3.173568   2.928630
     9  C    3.225364   2.434645   1.372104   2.910407   3.526899
    10  H    2.665786   1.085978   3.927833   3.733925   2.677433
    11  H    3.875998   3.917707   1.084522   2.840821   4.532891
    12  H    2.396423   1.083772   2.649387   2.917717   3.070029
    13  H    3.059467   2.642670   1.081035   2.547183   3.914852
    14  C    2.461213   3.843729   2.779244   1.470470   3.421902
    15  O    3.582587   4.931108   3.267678   2.385638   4.452952
    16  H    2.619314   3.771271   3.284062   2.175762   3.675383
    17  O    4.255127   3.662756   2.312482   3.777852   4.357213
    18  C    4.832590   4.087198   3.585272   4.649115   4.625051
    19  H    5.693010   5.144247   4.301913   5.356500   5.457707
    20  H    5.344310   4.148995   4.040640   5.330788   5.150007
    21  H    4.324908   3.816525   3.860166   4.343232   3.904781
    22  H    3.474282   2.113196   3.388704   3.941935   3.218627
                    6          7          8          9         10
     6  H    0.000000
     7  H    3.086153   0.000000
     8  C    3.505533   3.427866   0.000000
     9  C    4.017428   2.921371   1.417745   0.000000
    10  H    2.704995   4.386239   2.129575   3.411680   0.000000
    11  H    4.544596   2.768259   3.406397   2.129922   4.998030
    12  H    2.364233   3.758764   2.144799   2.745299   1.827066
    13  H    3.384242   3.131092   2.723109   2.131058   3.686642
    14  C    2.649506   2.179844   4.248630   3.803495   4.652787
    15  O    3.839406   2.653983   5.147488   4.429128   5.803557
    16  H    2.345883   3.120470   4.492054   4.291360   4.455092
    17  O    5.175241   3.404119   2.419381   1.352267   4.532288
    18  C    5.787190   4.211246   2.731737   2.351664   4.701280
    19  H    6.697165   4.747076   3.798788   3.231071   5.772761
    20  H    6.192808   5.059531   2.804961   2.729742   4.645376
    21  H    5.304645   3.893085   2.601274   2.624336   4.274373
    22  H    4.181231   4.024223   1.083768   2.161379   2.422390
                   11         12         13         14         15
    11  H    0.000000
    12  H    3.691913   0.000000
    13  H    1.845477   2.050445   0.000000
    14  C    2.960197   3.386656   2.569387   0.000000
    15  O    3.025663   4.462043   3.213107   1.209950   0.000000
    16  H    3.659402   3.095215   2.705134   1.115804   2.021572
    17  O    2.521659   4.089267   3.284564   4.716903   5.114712
    18  C    3.913941   4.789536   4.472754   5.807769   6.306920
    19  H    4.391936   5.811110   5.278275   6.470754   6.814543
    20  H    4.495868   4.864867   4.773452   6.449861   7.034465
    21  H    4.319973   4.672451   4.688418   5.666361   6.274831
    22  H    4.265545   3.074108   3.794369   5.167719   6.057386
                   16         17         18         19         20
    16  H    0.000000
    17  O    5.391406   0.000000
    18  C    6.453887   1.409668   0.000000
    19  H    7.223303   2.006289   1.088665   0.000000
    20  H    6.962224   2.077029   1.095317   1.781662   0.000000
    21  H    6.298998   2.081003   1.097056   1.784506   1.782951
    22  H    5.458127   2.660631   2.374036   3.441218   2.290663
                   21         22
    21  H    0.000000
    22  H    2.023780   0.000000
 Stoichiometry    C8H12O2
 Framework group  C1[X(C8H12O2)]
 Deg. of freedom    60
 Full point group                 C1      NOp   1
 Largest Abelian subgroup         C1      NOp   1
 Largest concise Abelian subgroup C1      NOp   1
                         Standard orientation:                         
 ---------------------------------------------------------------------
 Center     Atomic      Atomic             Coordinates (Angstroms)
 Number     Number       Type             X           Y           Z
 ---------------------------------------------------------------------
      1          6           0       -1.182411    1.466971    0.852107
      2          6           0        0.360648    1.996256   -0.633831
      3          6           0       -0.069989   -0.795233   -0.965297
      4          6           0       -1.450276    0.116565    0.749783
      5          1           0       -0.590659    1.844094    1.677102
      6          1           0       -1.880018    2.177564    0.413633
[...]
 7110,-0.01760178,0.00001794,0.00021534,-0.00025032,-0.04181187,0.06336
 804,-0.00903117,0.00141659,-0.01526701,0.16683505,-0.01938671,-0.16124
 903,0.00475955,0.00095590,0.00200505,0.00092111,-0.00715749,-0.0018617
 8,-0.00028475,-0.00004076,0.00002745,0.00047707,0.00006608,0.00082552,
 0.00042354,0.00017115,0.00040847,0.00541082,-0.01158799,-0.00015425,-0
 .00576412,0.00280283,-0.00143943,-0.00268610,0.00082331,0.00446062,-0.
 00043493,-0.00037872,0.00010000,-0.16287350,0.02961922,0.16663099,-0.0
 0220335,0.00227124,-0.00178592,0.00184493,0.00191214,0.00181275,-0.096
 06259,-0.05106277,0.10393718,-0.00119823,-0.00443466,-0.00496378,0.000
 18930,0.00016222,0.00019037,0.00025255,0.00003116,0.00032862,-0.000080
 97,-0.00005749,0.00009783,-0.00070230,-0.00379070,-0.00066015,-0.01039
 623,-0.01686148,0.02076265,-0.00003650,-0.00017953,-0.00073406,0.00741
 088,0.00554477,-0.01076961,0.00040140,0.00186584,-0.00013471,0.1052654
 7,-0.00367610,0.00282984,-0.00292970,0.00602815,0.00077673,0.00018387,
 -0.04712432,-0.11826057,0.12846208,-0.00144581,-0.00635343,-0.00690873
 ,0.00031492,0.00021466,0.00036235,0.00016284,-0.00003876,0.00033636,0.
 00000607,-0.00025965,-0.00004456,-0.00168707,-0.00649882,0.00143618,-0
 .00765329,0.00665546,-0.00426723,-0.00043697,-0.00002522,-0.00061843,-
 0.01202023,-0.00728343,0.01752753,0.00179360,-0.00276770,0.00090762,0.
 06261227,0.12782698,-0.00390013,0.00287240,-0.00278195,0.00258743,0.00
 368412,0.00237159,0.11665046,0.13134822,-0.22048895,-0.00245271,-0.005
 96506,-0.00720624,0.00031478,0.00021445,0.00028820,0.00029888,0.000040
 74,0.00043782,-0.00005178,-0.00020674,0.00013502,-0.00074209,-0.004516
 59,-0.00038236,-0.00837399,0.00632260,-0.00155736,-0.00077399,-0.00006
 289,-0.00011043,0.00329865,0.00171889,-0.00209074,0.00028250,0.0001611
 9,0.00094569,-0.11013244,-0.13537633,0.22837123,-0.01820592,0.01620626
 ,-0.00161578,0.00220996,0.00240963,-0.00022454,-0.01245300,-0.00884632
 ,-0.00868264,-0.18947867,0.01844040,0.08191610,0.00365275,-0.00011651,
 0.00349306,-0.00309788,-0.00320103,-0.00021431,-0.00258231,0.00195216,
 0.00007399,0.00228263,0.00244662,0.00208646,0.00079304,-0.00659976,0.0
 0161135,-0.00000165,-0.00018765,0.00017476,0.00170899,0.00129447,0.001
 09154,0.00061072,-0.00036536,-0.00022140,-0.00031111,-0.00064814,0.000
 69916,0.65860033,0.03546105,-0.01767027,-0.01152640,-0.00134795,-0.003
 07594,-0.00088402,0.00199965,0.00069667,0.00108089,-0.00153544,-0.0764
 1739,0.01766964,0.00498681,-0.00358344,0.00381286,0.00090944,-0.000842
 79,-0.00435408,-0.01775475,0.00410585,0.00943269,-0.00150935,-0.000503
 03,-0.00146342,-0.00206950,0.00272868,0.00127634,0.00011119,0.00022298
 ,0.00034732,-0.00232160,-0.00238296,-0.00134596,0.00043951,0.00037318,
 0.00043219,-0.00070729,0.00026536,-0.00214274,-0.30856534,0.68510923,0
 .00037893,-0.00737257,0.01038660,-0.00673149,-0.00371971,-0.00135957,-
 0.00702282,-0.00354863,-0.00036449,0.08330502,0.01583638,-0.13084122,0
 .00265611,0.00407091,0.00289547,-0.00466940,0.00132071,-0.00247675,0.0
 2374504,-0.00658925,-0.00916548,-0.00248881,0.00352582,-0.00356290,0.0
 0301183,0.00105075,-0.00186880,0.00017510,0.00014590,-0.00018117,0.000
 31152,0.00029981,-0.00038529,-0.00070276,0.00019478,-0.00006297,-0.003
 17500,-0.00173349,-0.00164944,-0.02937686,-0.25496833,0.46327657,-0.00
 057659,-0.00523871,0.00992763,-0.00286912,-0.00191753,-0.00073135,-0.0
 0179409,0.00235903,0.00286557,-0.04408736,0.05179897,-0.00880282,-0.00
 177923,0.00187278,-0.00166646,0.00074884,0.00024270,-0.00050458,0.0024
 9866,-0.00175017,-0.00087550,-0.00093011,0.00127921,-0.00165791,0.0019
 5392,0.00103478,-0.00246793,-0.00004334,0.00006842,-0.00005938,-0.0002
 1551,0.00002379,0.00035366,-0.00001595,0.00026421,0.00039662,0.0001884
 6,0.00061232,-0.00006792,-0.36190441,0.32772730,-0.11009974,0.39510906
 ,-0.00446518,0.00812316,-0.00404311,0.00264385,0.00237473,0.00081495,-
 0.00263630,-0.00253494,-0.00244371,0.04415222,-0.01131616,-0.00236612,
 -0.00012950,-0.00015175,-0.00021808,-0.00056131,0.00092800,0.00135227,
 0.00055771,-0.00041957,-0.00253450,0.00085615,-0.00101868,0.00146110,-
 0.00069066,-0.00150758,0.00028076,0.00001957,-0.00009128,-0.00008690,0
 .00178677,0.00173339,0.00097013,-0.00035622,-0.00033898,-0.00049704,-0
 .00010559,-0.00060435,0.00058843,0.32463209,-0.46808554,0.16432286,-0.
 39167802,0.49829212,0.00299046,-0.00030826,0.00120022,0.00095162,0.000
 23620,-0.00009274,0.00087629,0.00151967,0.00105295,0.00294943,-0.01032
 445,0.02350875,-0.00090097,-0.00103942,-0.00085813,0.00116775,-0.00087
 449,0.00022884,-0.00427850,0.00008814,0.00172355,0.00047277,-0.0007102
 8,0.00052618,-0.00076283,0.00020896,-0.00029634,-0.00004805,0.00000838
 ,0.00007345,0.00012257,-0.00004797,-0.00008011,0.00022712,0.00005552,0
 .00017136,0.00066191,0.00021169,0.00041069,-0.10554832,0.16096569,-0.1
 4519804,0.12237349,-0.18434397,0.11695907,-0.00044728,-0.00109288,-0.0
 0031630,0.00022715,0.00027652,0.00037711,0.00113941,0.00062505,0.00051
 213,-0.00314321,-0.01369736,0.02579851,0.00019791,0.00021895,-0.000376
 08,0.00025415,0.00109662,-0.00043183,-0.00407024,0.00202474,0.00259443
 ,0.00002455,-0.00040553,0.00012055,-0.00017772,0.00030502,0.00030278,0
 .00002737,-0.00001654,-0.00008065,-0.00009723,-0.00003304,-0.00004731,
 -0.00013845,-0.00002100,-0.00025251,-0.00004324,-0.00009935,-0.0003788
 9,-0.08247472,-0.03641225,0.05055298,0.01426760,0.02577928,-0.02102702
 ,0.07431276,-0.00049632,0.00166971,-0.00135082,-0.00018808,-0.00012463
 ,0.00028358,0.00019482,0.00048429,0.00078945,0.00598800,0.00565072,0.0
 0261670,-0.00036669,0.00044487,-0.00028667,-0.00041235,0.00014454,0.00
 015376,0.00131085,0.00111744,0.00065213,-0.00018998,-0.00012664,-0.000
 07646,-0.00000500,0.00022520,-0.00016335,0.00004823,0.00000774,-0.0000
 2803,0.00006977,0.00008516,0.00000843,-0.00015057,-0.00001021,-0.00014
 706,-0.00013531,-0.00005899,-0.00004149,-0.04158854,-0.12032967,0.0876
 6564,0.01454139,-0.02648569,0.03461397,0.02140030,0.13737019,-0.001980
 85,0.00140894,-0.00099811,0.00079214,0.00045478,0.00009363,0.00059818,
 0.00056518,0.00005425,0.00799309,0.01470650,-0.00545794,-0.00039488,-0
 .00061561,0.00002781,0.00048550,-0.00113483,0.00021074,0.00318165,0.00
 043460,0.00034697,0.00041968,-0.00031656,0.00065507,-0.00040541,-0.000
 28197,0.00014702,-0.00003853,-0.00001898,0.00006101,-0.00019674,-0.000
 27805,-0.00003635,0.00047995,-0.00003423,0.00008068,0.00061472,0.00037
 121,0.00025983,0.05604844,0.08218855,-0.18023313,-0.01028986,0.0272473
 9,0.00038758,-0.05711254,-0.12462495,0.18436422,0.00134771,-0.00354623
 ,0.00160896,-0.00404188,0.00067719,0.00004011,-0.03541664,-0.04178018,
 0.03790112,0.00137332,0.00311028,0.00256027,-0.00030386,-0.00031969,-0
 .00017248,-0.00061348,-0.00036056,-0.00086637,-0.00010729,0.00049905,-
 0.00042185,0.01183204,0.00565890,-0.00112764,-0.13293801,-0.06867134,0
 .07044394,0.00059469,0.00045690,0.00009501,0.00188623,-0.00153254,-0.0
 0169730,0.00055755,0.00002179,-0.00027274,-0.00403058,0.00313051,0.002
 91444,0.00210990,0.00037163,-0.00045913,-0.00140519,0.00053457,-0.0002
 5096,0.00007154,-0.00010839,-0.00000599,0.44929497,-0.00309905,-0.0013
 0567,-0.00221533,0.00861123,0.00041904,0.00028425,-0.01296831,0.004357
 13,0.00626072,-0.00012627,-0.00303470,0.00075900,0.00003633,-0.0000972
 1,0.00018432,-0.00016747,-0.00005824,-0.00028054,-0.00023814,0.0002873
 6,-0.00019178,-0.01891427,-0.03567216,0.03124818,-0.03711819,-0.205132
 69,0.08967031,-0.00135527,-0.00156517,0.00014600,-0.00056973,-0.000775
 98,-0.00088973,-0.00037975,0.00000575,-0.00048204,0.00424112,0.0030234
 4,0.00105886,0.00285547,-0.00040697,-0.00087135,-0.00144385,0.00104229
 ,-0.00019581,0.00003754,-0.00009806,0.00002543,0.02364778,0.32849942,-
 0.00018960,0.00346108,-0.00076414,0.00177685,0.00251628,0.00556134,0.0
 2681428,0.01758351,-0.01047435,-0.00083015,-0.00071179,-0.00136035,0.0
 0032275,0.00034105,0.00014125,0.00042532,0.00013628,0.00078146,0.00150
 165,0.00060971,0.00024959,0.00696990,0.01267834,-0.00650610,0.05769971
 ,0.11101464,-0.11644079,0.00018495,0.00041667,-0.00007497,-0.00272812,
 -0.00174350,-0.00281612,-0.00031245,-0.00053492,-0.00001712,0.00316932
 ,0.00119311,0.00195983,-0.00196404,-0.00031483,0.00080451,0.00130255,-
 0.00065940,0.00027899,-0.00018756,0.00000943,0.00006591,-0.21523779,-0
 .11935453,0.23134463,0.00124274,0.00117513,0.00040019,-0.00232183,0.00
 108141,0.00129439,0.00482838,0.00112797,-0.00035271,-0.00030479,0.0005
 6025,-0.00037927,0.00009212,0.00012206,-0.00003827,0.00016815,0.000161
 04,0.00029305,-0.00001873,-0.00024613,-0.00023715,0.00514226,0.0020440
 9,-0.00672732,-0.02929689,-0.01241908,0.01932202,0.00023578,0.00050120
 ,-0.00022133,-0.00030154,-0.00000030,-0.00022077,-0.00008275,-0.000373
 00,0.00040729,0.00001213,0.00006438,-0.00049656,-0.00161428,-0.0000235
 9,0.00046152,0.00094104,-0.00032679,0.00009881,0.00001815,0.00008912,-
 0.00011339,-0.21833196,0.03097423,0.07434185,0.52315516,-0.00074107,0.
 00023136,-0.00041947,0.00029536,0.00065866,0.00007434,-0.00010957,-0.0
 0360591,0.00413350,0.00026169,-0.00084651,-0.00010561,-0.00006435,-0.0
 0016541,0.00000268,0.00006312,-0.00001098,-0.00004522,-0.00008300,0.00
 012740,0.00001389,-0.00398249,-0.00327088,0.00360820,-0.03101326,0.004
 24444,0.01196264,-0.00002887,-0.00009779,-0.00006127,-0.00023818,0.000
 10751,-0.00031263,-0.00000852,0.00002327,0.00003525,-0.00117766,0.0005
 6987,0.00066572,0.00006019,0.00017247,0.00014190,0.00002664,-0.0000912
 3,-0.00006550,0.00003398,-0.00000158,-0.00006276,0.05797118,-0.0992492
 5,-0.01703408,0.02417284,0.62810521,-0.00099672,-0.00001279,-0.0006258
 2,0.00180849,-0.00044743,-0.00008532,-0.00138466,0.00174080,0.00164362
 ,0.00008477,-0.00076301,0.00006066,-0.00009663,-0.00019297,0.00002810,
 0.00008192,-0.00004741,-0.00006326,-0.00001684,0.00023569,0.00010169,-
 0.00126791,-0.00131742,0.00080993,0.02529661,0.00318270,-0.02213935,-0
 .00022338,-0.00034215,-0.00000820,-0.00004856,-0.00060424,-0.00067626,
 0.00026809,0.00012250,-0.00000239,0.00087151,0.00093065,0.00157202,0.0
 0074327,-0.00006322,-0.00012929,-0.00033289,0.00015347,-0.00008520,0.0
 0000721,-0.00002915,-0.00000314,0.06464687,-0.00150374,-0.09555796,0.0
 2806367,-0.03056628,0.58267295,0.00009497,-0.00015332,0.00008151,0.000
 24945,-0.00044629,-0.00023874,-0.00062708,-0.00123868,0.00117745,0.000
 06022,0.00014578,0.00010842,-0.00001340,-0.00001239,-0.00000790,-0.000
 02520,-0.00001170,-0.00003613,-0.00002544,-0.00001821,0.00000322,-0.00
 068297,0.00135359,0.00035257,-0.00331225,0.00296799,0.00071174,-0.0000
 3184,-0.00004789,0.00003616,0.00001791,0.00004737,0.00000401,0.0000574
 0,0.00012172,-0.00003567,-0.00046798,0.00007115,0.00008444,0.00013860,
 -0.00000011,-0.00000896,-0.00008622,0.00005594,-0.00003521,0.00000672,
 0.00000189,-0.00000732,-0.02126870,-0.02953287,0.02454401,-0.06192404,
 -0.04960064,0.02520854,0.07912430,-0.00006036,0.00004667,-0.00009179,-
 0.00013590,0.00032965,0.00026348,0.00019535,0.00037145,-0.00010589,-0.
 00019645,-0.00013121,0.00000641,0.00001990,0.00002137,0.00002077,0.000
 01292,0.00001207,0.00001900,0.00001904,0.00000139,0.00002529,0.0005869
 1,-0.00068490,0.00002047,0.00220997,0.00112445,-0.00135805,0.00003166,
 0.00000924,0.00001680,-0.00001421,-0.00001852,0.00001971,-0.00010888,-
 0.00009615,-0.00001238,0.00008105,-0.00002825,-0.00004808,0.00026248,-
 0.00010675,-0.00010218,-0.00013776,0.00011726,-0.00001475,-0.00000085,
 -0.00000735,0.00001677,0.00281343,0.01005168,-0.00555684,-0.06055309,-
 0.25619927,0.11757478,0.06110658,0.26683142,-0.00000193,0.00006192,-0.
 00005391,0.00000969,0.00014536,0.00014104,0.00036639,0.00063677,-0.000
 42690,0.00005724,-0.00003586,-0.00005166,0.00002265,0.00003171,0.00000
 579,0.00000211,0.00001315,0.00002725,0.00003033,-0.00000759,-0.0000046
 3,0.00028971,-0.00026447,0.00036933,0.00127755,-0.00188214,0.00061815,
 0.00004429,0.00003975,0.00002705,0.00000882,-0.00000503,0.00001364,-0.
 00005974,-0.00005129,-0.00005730,0.00016845,-0.00003820,-0.00003977,-0
 .00015530,0.00001504,0.00005427,0.00008994,-0.00005457,0.00000778,-0.0
 0000379,0.00000835,-0.00000438,0.01128347,0.01268032,-0.01088017,0.029
 65912,0.11140433,-0.11683640,-0.04235853,-0.12448941,0.12427479,0.0002
 2070,-0.00040112,0.00024439,-0.00000553,-0.00058009,-0.00019791,-0.001
 50889,-0.00072450,0.00104239,0.00031122,0.00046859,0.00016519,-0.00002
 667,-0.00000848,-0.00002796,-0.00006514,-0.00003720,-0.00007234,0.0000
 0256,0.00002642,0.00001405,0.00021349,-0.00003064,0.00078465,0.0036027
 0,0.00553072,-0.00589780,-0.00002674,-0.00005592,0.00002633,0.00018115
 ,-0.00019769,-0.00025775,0.00010475,0.00005350,-0.00007036,0.00000198,
 0.00023234,0.00039353,0.00005773,0.00008486,0.00001592,-0.00006238,-0.
 00003570,-0.00000380,-0.00000709,-0.00000745,0.00001039,-0.03950904,0.
 00854077,-0.00843290,-0.16480788,0.03205119,-0.12246934,0.00795191,-0.
 00095695,0.00532459,0.19346559,0.00043080,-0.00007639,0.00025064,-0.00
 037231,-0.00025921,0.00018433,-0.00006867,-0.00003437,-0.00026058,0.00
 010240,0.00042289,0.00003310,0.00000068,0.00003955,-0.00003623,-0.0000
 2238,0.00000445,0.00001392,0.00000516,-0.00006012,-0.00003932,0.000150
 99,0.00023111,-0.00075300,-0.00096614,-0.00053560,0.00001468,-0.000021
 82,0.00004059,-0.00005399,-0.00002803,0.00002229,0.00004647,0.00010334
 ,-0.00001687,0.00010904,0.00001085,0.00002090,-0.00002138,-0.00023942,
 0.00002846,0.00007631,0.00011443,-0.00005847,0.00001236,-0.00000482,0.
 00001249,-0.00000778,0.00984827,0.00016872,0.00200380,0.03380354,-0.06
 459112,0.03750036,0.01906342,-0.00349973,0.02004134,-0.04260111,0.0641
 3510,-0.00049149,0.00005561,-0.00025229,0.00075707,0.00001440,-0.00048
 157,0.00048791,-0.00008504,-0.00033573,0.00005877,-0.00043492,-0.00016
 278,0.00003648,0.00004729,0.00001684,-0.00002236,-0.00000378,0.0000137
 9,0.00004283,-0.00000221,0.00003248,-0.00144934,0.00105441,0.00068016,
 -0.00056130,-0.00110549,0.00239738,0.00001130,0.00000314,0.00005612,0.
 00002409,0.00009451,0.00011431,-0.00000790,0.00014756,-0.00018741,-0.0
 0005595,-0.00011072,-0.00016195,-0.00000507,0.00001801,0.00004179,0.00
 001437,-0.00003585,0.00000987,-0.00001645,-0.00000699,0.00001009,0.016
 98728,-0.00412984,0.01676359,-0.12742321,0.03737389,-0.19046548,-0.009
 74519,0.00121143,-0.00984545,0.13349074,-0.04066703,0.19574389,0.00049
 833,-0.00048165,0.00050649,-0.00079919,-0.00058901,-0.00028513,-0.0017
 8868,-0.00068596,-0.00020211,0.00007602,0.00058683,0.00030284,-0.00003
 099,-0.00007669,-0.00002546,-0.00006517,-0.00004046,-0.00013779,-0.000
 15959,-0.00001015,-0.00003801,0.00065725,-0.00051237,-0.00025623,0.004
 61035,0.00476538,-0.00266947,0.00002155,-0.00002169,0.00006781,0.00021
 989,0.00008945,0.00016635,0.00000067,-0.00001913,0.00002556,-0.0000731
 3,-0.00009860,-0.00007686,0.00011638,0.00008238,-0.00014835,-0.0001179
 8,0.00003862,-0.00000237,0.00003360,-0.00000298,-0.00000068,-0.0099713
 9,0.02815523,0.03101987,-0.05589535,-0.02547580,-0.02167666,0.00021098
 ,-0.00443432,-0.00577565,0.00030672,-0.01781239,-0.01341048,0.06227270
 ,0.00049968,-0.00007183,0.00045477,-0.00083466,-0.00031421,-0.00013604
 ,-0.00009968,0.00027656,-0.00064341,-0.00005412,0.00058302,0.00000378,
 0.00003117,0.00004813,-0.00003426,-0.00003874,-0.00001321,-0.00002150,
 0.00004097,-0.00005530,-0.00003739,0.00091895,0.00013516,-0.00017546,-
 0.00033126,-0.00086326,0.00218842,0.00007077,0.00008621,0.00006416,-0.
 00009539,-0.00000598,-0.00003743,-0.00005836,-0.00004732,-0.00001075,0
 .00004512,-0.00001248,-0.00004453,-0.00016084,-0.00003878,0.00000259,0
 .00006382,-0.00001203,0.00004059,-0.00001425,0.00000247,0.00001633,0.0
 0972812,-0.00141655,-0.00639162,-0.02243493,-0.20332478,-0.12622954,-0
 .00364828,-0.01830935,-0.01811793,0.00000562,0.00554775,0.00595142,0.0
 1678239,0.21804323,-0.00031228,0.00039460,-0.00033043,0.00021477,0.000
 80994,0.00056900,0.00139986,0.00077330,-0.00026702,-0.00028342,-0.0005
 2284,-0.00023268,0.00009589,0.00008507,0.00004376,0.00005255,0.0000484
 5,0.00010758,0.00006089,-0.00001976,0.00004310,0.00031055,-0.00074148,
 -0.00019582,-0.00298955,-0.00391945,0.00255076,0.00002527,0.00002281,-
 0.00004768,-0.00018700,-0.00001867,-0.00005224,-0.00019812,-0.00013192
 ,-0.00001790,0.00004099,-0.00003220,-0.00005751,0.00013888,-0.00013586
 ,-0.00002685,-0.00004101,0.00009121,-0.00000121,-0.00001132,-0.0000046
 2,0.00000919,0.01238741,-0.00980006,-0.01166342,-0.01904708,-0.1233945
 8,-0.15907164,0.00071608,0.01241433,0.01285924,-0.00372668,-0.01822792
 ,-0.01385514,0.01176153,0.14146469,0.17103056,-0.00034365,0.00018293,-
 0.00010890,-0.01039022,0.00440525,0.00816126,0.00133751,0.00307230,0.0
 0069177,0.00059091,-0.00045857,0.00007600,-0.00009897,-0.00010154,-0.0
 0019881,0.00008128,0.00000917,0.00002755,-0.00007659,0.00003802,-0.000
 01258,-0.27643366,0.05594412,0.11595547,-0.00887879,0.00244768,0.00545
 752,-0.00039454,-0.00069895,-0.00250409,-0.00057679,-0.00023170,0.0001
 3686,0.00173493,-0.00149587,0.00240537,0.00003912,-0.00013866,-0.00007
 691,-0.00015708,0.00007337,0.00026934,0.00017987,-0.00007149,-0.000034
 21,0.00001826,0.00000728,-0.00007755,-0.00112995,-0.00118650,-0.000190
 41,-0.00093586,-0.00241277,0.00143264,0.00055268,-0.00074053,-0.000279
 41,-0.00040115,-0.00149680,0.00127788,-0.00012296,-0.00041611,-0.00040
 822,0.29540566,-0.00120033,0.00062756,-0.00089206,-0.02173548,0.008273
 11,0.01410227,0.00237225,-0.00492463,0.00368201,0.00004622,-0.00137277
 ,-0.00031400,0.00014402,0.00010574,-0.00008829,0.00020896,0.00009928,0
 .00019844,0.00011159,0.00007479,0.00003454,0.05596043,-0.07136851,-0.0
 2234571,0.02520564,0.00250963,-0.01487181,-0.00050246,0.00063841,-0.00
 113210,0.00150391,0.00000308,-0.00026973,-0.00174178,-0.00299550,0.002
 36175,-0.00026531,0.00000841,-0.00024978,-0.00004087,-0.00025936,0.000
 25116,0.00013624,0.00010526,-0.00003628,-0.00000011,0.00002799,-0.0000
 5998,-0.00215065,0.00095782,0.00033762,0.00049964,-0.00278551,0.000678
 41,-0.00022505,0.00016484,-0.00013154,-0.00135714,-0.00154244,0.000610
 18,-0.00023909,-0.00023745,0.00084496,-0.05673063,0.07189024,-0.001011
 03,0.00091998,-0.00092301,0.01281132,-0.00138992,-0.00207433,0.0021956
 3,0.00189504,0.00261064,0.00003699,-0.00114452,-0.00000483,0.00023203,
 -0.00002320,-0.00004383,0.00009440,0.00000289,0.00031691,-0.00001482,0
 .00002713,-0.00000727,0.12006552,-0.02491602,-0.09147354,-0.00448732,0
 .00390327,0.00437479,-0.00300702,-0.00132797,-0.00376876,-0.00041831,-
 0.00010124,0.00000082,0.00506304,0.00291662,0.00466077,-0.00024468,0.0
 0013693,-0.00022519,-0.00006876,-0.00004037,0.00004619,0.00027353,0.00
 000071,0.00007250,-0.00002344,-0.00004183,-0.00004095,-0.00035665,-0.0
 0240261,-0.00139560,0.00091514,0.00265105,-0.00113928,-0.00055449,0.00
 017016,-0.00019777,-0.00035533,-0.00021914,-0.00013251,0.00085482,0.00
 169310,-0.00139366,-0.13200057,0.01728994,0.09073789\\0.00000286,0.000
 00175,0.00000396,-0.00000036,0.00000066,0.00000022,0.00000116,-0.00000
 019,0.00000365,-0.00000199,0.00000401,-0.00001131,-0.00000119,0.000000
 94,-0.00000154,-0.00000316,0.00000060,-0.00000318,-0.00000194,-0.00000
 045,-0.00000146,0.00000389,0.00000819,-0.00000351,0.00000413,0.0000038
 6,-0.00000295,0.00000008,-0.00000167,-0.00000371,-0.00000118,-0.000001
 71,0.00000091,-0.00000050,-0.00000434,-0.00000142,0.00000281,-0.000000
 58,0.00000211,0.00000324,0.00000622,0.00000590,0.00000249,0.00000432,0
 .00000459,-0.00000186,-0.00000083,-0.00000109,-0.00001215,-0.00000437,
 0.00000329,-0.00000355,-0.00001118,0.00001056,0.00000499,0.00000255,0.
 00000753,0.00000049,-0.00000753,-0.00000061,-0.00000269,-0.00000236,-0
 .00000611,0.00000443,0.00000210,-0.00000584\\\@
 The archive entry for this job was punched.


 ONLY THE DAY DAWNS TO WHICH YOU ARE AWAKE.

                                 -- THOREAU
 Job cpu time:       0 days  0 hours 23 minutes  5.1 seconds.
 Elapsed time:       0 days  0 hours  1 minutes 28.3 seconds.
 File lengths (MBytes):  RWF=     84 Int=      0 D2E=      0 Chk=      4 Scr=      1
 Normal termination of Gaussian 16 at Tue Jun 21 10:42:07 2022.
