Job Start Time: Tue Jun 21 10:16:20 MDT 2022
SLURM Job ID: 40858
SLURM Job Name: DATS_14_endo_ii
 Entering Gaussian System, Link 0=/opt/apps/Gaussian/G16C/g16/g16
 Initial command:
 /opt/apps/Gaussian/G16C/g16/l1.exe "/tmp/Gau-3044232.inp" -scrdir="/tmp/"
 Entering Link 1 = /opt/apps/Gaussian/G16C/g16/l1.exe PID=   3044233.
  
 Copyright (c) 1988-2019, Gaussian, Inc.  All Rights Reserved.
  
 This is part of the Gaussian(R) 16 program.  It is based on
 the Gaussian(R) 09 system (copyright 2009, Gaussian, Inc.),
 the Gaussian(R) 03 system (copyright 2003, Gaussian, Inc.),
 the Gaussian(R) 98 system (copyright 1998, Gaussian, Inc.),
 the Gaussian(R) 94 system (copyright 1995, Gaussian, Inc.),
 the Gaussian 92(TM) system (copyright 1992, Gaussian, Inc.),
 the Gaussian 90(TM) system (copyright 1990, Gaussian, Inc.),
 the Gaussian 88(TM) system (copyright 1988, Gaussian, Inc.),
 the Gaussian 86(TM) system (copyright 1986, Carnegie Mellon
 University), and the Gaussian 82(TM) system (copyright 1983,
 Carnegie Mellon University). Gaussian is a federally registered
 trademark of Gaussian, Inc.
  
 This software contains proprietary and confidential information,
 including trade secrets, belonging to Gaussian, Inc.
  
 This software is provided under written license and may be
 used, copied, transmitted, or stored only in accord with that
 written license.
  
 The following legend is applicable only to US Government
 contracts under FAR:
  
                    RESTRICTED RIGHTS LEGEND
  
 Use, reproduction and disclosure by the US Government is
 subject to restrictions as set forth in subparagraphs (a)
 and (c) of the Commercial Computer Software - Restricted
 Rights clause in FAR 52.227-19.
  
 Gaussian, Inc.
 340 Quinnipiac St., Bldg. 40, Wallingford CT 06492
  
  
 ---------------------------------------------------------------
 Warning -- This program may not be used in any manner that
 competes with the business of Gaussian, Inc. or will provide
 assistance to any competitor of Gaussian, Inc.  The licensee
 of this program is prohibited from giving any competitor of
 Gaussian, Inc. access to this program.  By using this program,
 the user acknowledges that Gaussian, Inc. is engaged in the
 business of creating and licensing software in the field of
 computational chemistry and represents and warrants to the
 licensee that it is not a competitor of Gaussian, Inc. and that
 it will not use this program in any manner prohibited above.
 ---------------------------------------------------------------
  

 Cite this work as:
 Gaussian 16, Revision C.01,
 M. J. Frisch, G. W. Trucks, H. B. Schlegel, G. E. Scuseria, 
 M. A. Robb, J. R. Cheeseman, G. Scalmani, V. Barone, 
 G. A. Petersson, H. Nakatsuji, X. Li, M. Caricato, A. V. Marenich, 
 J. Bloino, B. G. Janesko, R. Gomperts, B. Mennucci, H. P. Hratchian, 
 J. V. Ortiz, A. F. Izmaylov, J. L. Sonnenberg, D. Williams-Young, 
 F. Ding, F. Lipparini, F. Egidi, J. Goings, B. Peng, A. Petrone, 
 T. Henderson, D. Ranasinghe, V. G. Zakrzewski, J. Gao, N. Rega, 
 G. Zheng, W. Liang, M. Hada, M. Ehara, K. Toyota, R. Fukuda, 
 J. Hasegawa, M. Ishida, T. Nakajima, Y. Honda, O. Kitao, H. Nakai, 
 T. Vreven, K. Throssell, J. A. Montgomery, Jr., J. E. Peralta, 
 F. Ogliaro, M. J. Bearpark, J. J. Heyd, E. N. Brothers, K. N. Kudin, 
 V. N. Staroverov, T. A. Keith, R. Kobayashi, J. Normand, 
 K. Raghavachari, A. P. Rendell, J. C. Burant, S. S. Iyengar, 
 J. Tomasi, M. Cossi, J. M. Millam, M. Klene, C. Adamo, R. Cammi, 
 J. W. Ochterski, R. L. Martin, K. Morokuma, O. Farkas, 
 J. B. Foresman, and D. J. Fox, Gaussian, Inc., Wallingford CT, 2019.
 
 ******************************************
 Gaussian 16:  AS64L-G16RevC.01  3-Jul-2019
                21-Jun-2022 
 ******************************************
 %chk=DATS_14_endo_ii.chk
 %nprocshared=16
 Will use up to   16 processors via shared memory.
 -------------------------------------------------
 # opt=(calcfc,ts,noeigentest) freq 6-31g(d) m062x
 -------------------------------------------------
 1/5=1,10=4,11=1,18=20,26=3,38=1/1,3;
 2/9=110,12=2,17=6,18=5,40=1/2;
 3/5=1,6=6,7=1,11=2,25=1,30=1,71=2,74=-55,140=1/1,2,3;
 4//1;
 5/5=2,38=5/2;
 8/6=4,10=90,11=11/1;
 11/6=1,8=1,9=11,15=111,16=1/1,2,10;
 10/6=1,13=1/2;
 6/7=2,8=2,9=2,10=2,28=1/1;
 7/10=1,25=1/1,2,3,16;
 1/5=1,10=4,11=1,18=20,26=3/3(2);
 2/9=110/2;
 99//99;
 2/9=110/2;
 3/5=1,6=6,7=1,11=2,25=1,30=1,71=1,74=-55/1,2,3;
 4/5=5,16=3,69=1/1;
 5/5=2,38=5/2;
 7//1,2,3,16;
 1/5=1,11=1,18=20,26=3/3(-5);
 2/9=110/2;
 6/7=2,8=2,9=2,10=2,19=2,28=1/1;
 99/9=1/99;
 -------------------
 Title Card Required
 -------------------
 Symbolic Z-matrix:
 Charge =  0 Multiplicity = 1
 C                    -1.46442  -0.56807  -1.32635 
 C                     0.09333  -1.72764  -0.63331 
 C                    -0.6618   -0.69789   1.96113 
 C                    -2.10543   0.14941  -0.32654 
 H                    -0.79352  -0.00613  -1.97025 
 H                    -1.97319  -1.40925  -1.78957 
 H                    -3.02228  -0.19298   0.14161 
 C                     0.87261  -0.81866   0.0633 
 C                     0.5031   -0.35359   1.37092 
 H                     0.48015  -2.07894  -1.58449 
 H                    -0.94845  -0.2551    2.90938 
 H                     1.11468   0.41255   1.83475 
 H                    -0.51082  -2.43206  -0.07673 
 H                    -1.30902  -1.4761    1.57811 
 O                     1.91672  -0.30717  -0.61036 
 C                     2.22272  -0.81754  -1.90048 
 H                     1.47263  -0.50292  -2.63482 
 H                     3.1842   -0.3788   -2.16634 
 H                     2.29865  -1.90811  -1.86459 
 C                    -1.52803   1.4075    0.06487 
 O                    -0.44963   1.81659  -0.36431 
 H                    -2.09387   2.01039   0.80269 
 
 Add virtual bond connecting atoms C2         and C1         Dist= 3.90D+00.

 GradGradGradGradGradGradGradGradGradGradGradGradGradGradGradGradGradGrad
 Berny optimization.
 Initialization pass.
                           ----------------------------
                           !    Initial Parameters    !
                           ! (Angstroms and Degrees)  !
 --------------------------                            --------------------------
 ! Name  Definition              Value          Derivative Info.                !
 --------------------------------------------------------------------------------
 ! R1    R(1,2)                  2.0619         calculate D2E/DX2 analytically  !
 ! R2    R(1,4)                  1.3876         calculate D2E/DX2 analytically  !
 ! R3    R(1,5)                  1.0865         calculate D2E/DX2 analytically  !
 ! R4    R(1,6)                  1.0867         calculate D2E/DX2 analytically  !
 ! R5    R(2,8)                  1.3852         calculate D2E/DX2 analytically  !
 ! R6    R(2,10)                 1.0853         calculate D2E/DX2 analytically  !
 ! R7    R(2,13)                 1.0821         calculate D2E/DX2 analytically  !
 ! R8    R(3,9)                  1.3505         calculate D2E/DX2 analytically  !
 ! R9    R(3,11)                 1.0851         calculate D2E/DX2 analytically  !
 ! R10   R(3,14)                 1.0822         calculate D2E/DX2 analytically  !
 ! R11   R(4,7)                  1.0849         calculate D2E/DX2 analytically  !
 ! R12   R(4,20)                 1.4385         calculate D2E/DX2 analytically  !
 ! R13   R(8,9)                  1.4362         calculate D2E/DX2 analytically  !
 ! R14   R(8,15)                 1.3437         calculate D2E/DX2 analytically  !
 ! R15   R(9,12)                 1.0845         calculate D2E/DX2 analytically  !
 ! R16   R(15,16)                1.4208         calculate D2E/DX2 analytically  !
 ! R17   R(16,17)                1.0958         calculate D2E/DX2 analytically  !
 ! R18   R(16,18)                1.0898         calculate D2E/DX2 analytically  !
 ! R19   R(16,19)                1.0938         calculate D2E/DX2 analytically  !
 ! R20   R(20,21)                1.2306         calculate D2E/DX2 analytically  !
 ! R21   R(20,22)                1.1082         calculate D2E/DX2 analytically  !
 ! A1    A(2,1,4)              113.4295         calculate D2E/DX2 analytically  !
 ! A2    A(2,1,5)               91.3497         calculate D2E/DX2 analytically  !
 ! A3    A(2,1,6)               93.5351         calculate D2E/DX2 analytically  !
 ! A4    A(4,1,5)              116.4141         calculate D2E/DX2 analytically  !
 ! A5    A(4,1,6)              119.4123         calculate D2E/DX2 analytically  !
 ! A6    A(5,1,6)              115.9008         calculate D2E/DX2 analytically  !
 ! A7    A(1,2,8)              103.0036         calculate D2E/DX2 analytically  !
 ! A8    A(1,2,10)              99.0173         calculate D2E/DX2 analytically  !
 ! A9    A(1,2,13)              96.7289         calculate D2E/DX2 analytically  !
 ! A10   A(8,2,10)             116.9147         calculate D2E/DX2 analytically  !
 ! A11   A(8,2,13)             118.8543         calculate D2E/DX2 analytically  !
 ! A12   A(10,2,13)            116.0454         calculate D2E/DX2 analytically  !
 ! A13   A(9,3,11)             120.3807         calculate D2E/DX2 analytically  !
 ! A14   A(9,3,14)             122.9906         calculate D2E/DX2 analytically  !
 ! A15   A(11,3,14)            116.4069         calculate D2E/DX2 analytically  !
 ! A16   A(1,4,7)              122.5587         calculate D2E/DX2 analytically  !
 ! A17   A(1,4,20)             117.5707         calculate D2E/DX2 analytically  !
 ! A18   A(7,4,20)             119.8549         calculate D2E/DX2 analytically  !
 ! A19   A(2,8,9)              121.7106         calculate D2E/DX2 analytically  !
 ! A20   A(2,8,15)             115.7722         calculate D2E/DX2 analytically  !
 ! A21   A(9,8,15)             122.2151         calculate D2E/DX2 analytically  !
 ! A22   A(3,9,8)              122.4973         calculate D2E/DX2 analytically  !
 ! A23   A(3,9,12)             118.6603         calculate D2E/DX2 analytically  !
 ! A24   A(8,9,12)             118.2339         calculate D2E/DX2 analytically  !
 ! A25   A(8,15,16)            119.0684         calculate D2E/DX2 analytically  !
 ! A26   A(15,16,17)           110.9735         calculate D2E/DX2 analytically  !
 ! A27   A(15,16,18)           105.4809         calculate D2E/DX2 analytically  !
 ! A28   A(15,16,19)           110.0796         calculate D2E/DX2 analytically  !
 ! A29   A(17,16,18)           108.9558         calculate D2E/DX2 analytically  !
 ! A30   A(17,16,19)           110.8408         calculate D2E/DX2 analytically  !
 ! A31   A(18,16,19)           110.375          calculate D2E/DX2 analytically  !
 ! A32   A(4,20,21)            123.1996         calculate D2E/DX2 analytically  !
 ! A33   A(4,20,22)            116.8726         calculate D2E/DX2 analytically  !
 ! A34   A(21,20,22)           119.9195         calculate D2E/DX2 analytically  !
 ! D1    D(4,1,2,8)            -53.5423         calculate D2E/DX2 analytically  !
 ! D2    D(4,1,2,10)          -174.0091         calculate D2E/DX2 analytically  !
 ! D3    D(4,1,2,13)            68.191          calculate D2E/DX2 analytically  !
 ! D4    D(5,1,2,8)             66.139          calculate D2E/DX2 analytically  !
 ! D5    D(5,1,2,10)           -54.3278         calculate D2E/DX2 analytically  !
 ! D6    D(5,1,2,13)          -172.1277         calculate D2E/DX2 analytically  !
 ! D7    D(6,1,2,8)           -177.8066         calculate D2E/DX2 analytically  !
 ! D8    D(6,1,2,10)            61.7266         calculate D2E/DX2 analytically  !
 ! D9    D(6,1,2,13)           -56.0733         calculate D2E/DX2 analytically  !
 ! D10   D(2,1,4,7)            -97.5761         calculate D2E/DX2 analytically  !
 ! D11   D(2,1,4,20)            83.8673         calculate D2E/DX2 analytically  !
 ! D12   D(5,1,4,7)            158.3062         calculate D2E/DX2 analytically  !
 ! D13   D(5,1,4,20)           -20.2503         calculate D2E/DX2 analytically  !
 ! D14   D(6,1,4,7)             11.1744         calculate D2E/DX2 analytically  !
 ! D15   D(6,1,4,20)          -167.3822         calculate D2E/DX2 analytically  !
 ! D16   D(1,2,8,9)             76.8388         calculate D2E/DX2 analytically  !
 ! D17   D(1,2,8,15)           -96.9793         calculate D2E/DX2 analytically  !
 ! D18   D(10,2,8,9)          -175.8457         calculate D2E/DX2 analytically  !
 ! D19   D(10,2,8,15)           10.3362         calculate D2E/DX2 analytically  !
 ! D20   D(13,2,8,9)           -28.501          calculate D2E/DX2 analytically  !
 ! D21   D(13,2,8,15)          157.6809         calculate D2E/DX2 analytically  !
 ! D22   D(11,3,9,8)          -174.3303         calculate D2E/DX2 analytically  !
 ! D23   D(11,3,9,12)           -3.4377         calculate D2E/DX2 analytically  !
 ! D24   D(14,3,9,8)            11.2779         calculate D2E/DX2 analytically  !
 ! D25   D(14,3,9,12)         -177.8294         calculate D2E/DX2 analytically  !
 ! D26   D(1,4,20,21)           -6.0149         calculate D2E/DX2 analytically  !
 ! D27   D(1,4,20,22)          175.0319         calculate D2E/DX2 analytically  !
 ! D28   D(7,4,20,21)          175.3879         calculate D2E/DX2 analytically  !
 ! D29   D(7,4,20,22)           -3.5653         calculate D2E/DX2 analytically  !
 ! D30   D(2,8,9,3)             -4.6293         calculate D2E/DX2 analytically  !
 ! D31   D(2,8,9,12)          -175.5589         calculate D2E/DX2 analytically  !
 ! D32   D(15,8,9,3)           168.7891         calculate D2E/DX2 analytically  !
 ! D33   D(15,8,9,12)           -2.1406         calculate D2E/DX2 analytically  !
 ! D34   D(2,8,15,16)           -6.2161         calculate D2E/DX2 analytically  !
 ! D35   D(9,8,15,16)          180.0            calculate D2E/DX2 analytically  !
 ! D36   D(8,15,16,17)          71.3844         calculate D2E/DX2 analytically  !
 ! D37   D(8,15,16,18)        -170.7659         calculate D2E/DX2 analytically  !
 ! D38   D(8,15,16,19)         -51.6949         calculate D2E/DX2 analytically  !
 --------------------------------------------------------------------------------
 Trust Radius=3.00D-01 FncErr=1.00D-07 GrdErr=1.00D-06 EigMax=2.50D+02 EigMin=1.00D-04
 Number of steps in this run=    103 maximum allowed number of steps=    132.
 Search for a saddle point of order  1.
 GradGradGradGradGradGradGradGradGradGradGradGradGradGradGradGradGradGrad

                          Input orientation:                          
 ---------------------------------------------------------------------
 Center     Atomic      Atomic             Coordinates (Angstroms)
 Number     Number       Type             X           Y           Z
 ---------------------------------------------------------------------
      1          6           0       -1.464415   -0.568069   -1.326353
      2          6           0        0.093334   -1.727641   -0.633314
      3          6           0       -0.661802   -0.697890    1.961129
      4          6           0       -2.105435    0.149406   -0.326537
      5          1           0       -0.793518   -0.006127   -1.970248
      6          1           0       -1.973191   -1.409247   -1.789571
      7          1           0       -3.022283   -0.192977    0.141608
      8          6           0        0.872608   -0.818663    0.063303
      9          6           0        0.503101   -0.353587    1.370921
     10          1           0        0.480154   -2.078938   -1.584489
     11          1           0       -0.948452   -0.255096    2.909377
     12          1           0        1.114683    0.412547    1.834752
     13          1           0       -0.510818   -2.432057   -0.076729
     14          1           0       -1.309017   -1.476100    1.578107
     15          8           0        1.916719   -0.307165   -0.610363
     16          6           0        2.222716   -0.817542   -1.900484
     17          1           0        1.472629   -0.502915   -2.634818
     18          1           0        3.184202   -0.378798   -2.166337
     19          1           0        2.298652   -1.908107   -1.864591
     20          6           0       -1.528032    1.407502    0.064869
     21          8           0       -0.449631    1.816589   -0.364307
     22          1           0       -2.093868    2.010391    0.802692
 ---------------------------------------------------------------------
                    Distance matrix (angstroms):
                    1          2          3          4          5
     1  C    0.000000
     2  C    2.061915   0.000000
     3  C    3.386529   2.891669   0.000000
     4  C    1.387555   2.907233   2.834679   0.000000
     5  H    1.086500   2.353191   3.993947   2.108815   0.000000
     6  H    1.086740   2.389316   4.036523   2.141811   1.842015
     7  H    2.173144   3.558478   3.022824   1.084895   3.076076
     8  C    2.730498   1.385202   2.443511   3.155610   2.751640
     9  C    3.345506   2.464324   1.350514   3.152590   3.600744
    10  H    2.476027   1.085253   3.972753   3.637751   2.463249
    11  H    4.278502   3.975471   1.085085   3.460256   4.888428
    12  H    4.195943   3.422705   2.098795   3.887103   4.277212
    13  H    2.438311   1.082122   2.680111   3.044529   3.090383
    14  H    3.047057   2.630636   1.082222   2.627588   3.875227
    15  O    3.465946   2.311496   3.662514   4.057923   3.047178
    16  C    3.739893   2.639748   4.821496   4.705868   3.124249
    17  H    3.215984   2.721843   5.071148   4.307694   2.413270
    18  H    4.727688   3.704457   5.650623   5.625311   3.999948
    19  H    4.030642   2.532201   4.986487   5.098525   3.631832
    20  C    2.417111   3.597973   2.962909   1.438540   2.584484
    21  O    2.764401   3.595656   3.431512   2.350024   2.453487
    22  H    3.402573   4.562768   3.275298   2.176823   3.666940
                    6          7          8          9         10
     6  H    0.000000
     7  H    2.511844   0.000000
     8  C    3.446811   3.945604   0.000000
     9  C    4.151524   3.737023   1.436209   0.000000
    10  H    2.551362   4.336280   2.111287   3.422252   0.000000
    11  H    4.945934   3.459072   3.425493   2.117440   5.055902
    12  H    5.098001   4.510863   2.170832   1.084497   4.278006
    13  H    2.473561   3.371736   2.129910   2.728325   1.838494
    14  H    3.433198   2.577831   2.736118   2.141666   3.683281
    15  O    4.211474   4.997223   1.343735   2.434329   2.480286
    16  C    4.238874   5.663059   2.383119   3.724839   2.174281
    17  H    3.661906   5.292337   2.782010   4.124104   2.138234
    18  H    5.272805   6.624318   3.241642   4.438596   3.246675
    19  H    4.301527   5.939601   2.633869   4.013611   1.847857
    20  C    3.401645   2.190938   3.273971   2.988764   4.348386
    21  O    3.841696   3.303459   2.979215   2.937410   4.186702
    22  H    4.292821   2.480689   4.165360   3.557460   5.389511
                   11         12         13         14         15
    11  H    0.000000
    12  H    2.420143   0.000000
    13  H    3.721224   3.793123   0.000000
    14  H    1.842047   3.083371   2.071101   0.000000
    15  O    4.538776   2.672047   3.269995   4.069543   0.000000
    16  C    5.788559   4.085688   3.661277   5.000744   1.420750
    17  H    6.054845   4.576380   3.768218   5.141340   2.081815
    18  H    6.546526   4.573604   4.715454   5.950962   2.008158
    19  H    6.005573   4.524639   3.371068   5.005405   2.069294
    20  C    3.345351   3.332621   3.974542   3.263896   3.906703
    21  O    3.906112   3.042084   4.258807   3.918331   3.189120
    22  H    3.298868   3.730020   4.797371   3.656895   4.842788
                   16         17         18         19         20
    16  C    0.000000
    17  H    1.095841   0.000000
    18  H    1.089784   1.778865   0.000000
    19  H    1.093794   1.802811   1.792773   0.000000
    20  C    4.783466   4.465643   5.511288   5.418449   0.000000
    21  O    4.054618   3.772321   4.612133   4.865930   1.230647
    22  H    5.825570   5.554555   6.510098   6.462450   1.108164
                   21         22
    21  O    0.000000
    22  H    2.025577   0.000000
 Stoichiometry    C8H12O2
 Framework group  C1[X(C8H12O2)]
 Deg. of freedom    60
 Full point group                 C1      NOp   1
 Largest Abelian subgroup         C1      NOp   1
 Largest concise Abelian subgroup C1      NOp   1
                         Standard orientation:                         
 ---------------------------------------------------------------------
 Center     Atomic      Atomic             Coordinates (Angstroms)
 Number     Number       Type             X           Y           Z
 ---------------------------------------------------------------------
      1          6           0       -0.620417   -1.310338    1.129166
      2          6           0        0.818154    0.153269    1.328823
      3          6           0       -1.247904    1.925955    0.353762
      4          6           0       -1.825230   -0.835431    0.630972
      5          1           0        0.004303   -1.865744    0.435097
      6          1           0       -0.555271   -1.610956    2.171466
      7          1           0       -2.662999   -0.582345    1.272133
      8          6           0        0.859859    0.723492    0.067122
      9          6           0       -0.152792    1.637532   -0.382059
     10          1           0        1.658415   -0.471817    1.613433
     11          1           0       -2.035812    2.549396   -0.056030
     12          1           0       -0.105039    1.993742   -1.405273
     13          1           0        0.336329    0.695980    2.131504
     14          1           0       -1.354317    1.635420    1.390811
     15          8           0        1.827855    0.270173   -0.747194
     16          6           0        2.796342   -0.632842   -0.232289
     17          1           0        2.355304   -1.619443   -0.050702
     18          1           0        3.554055   -0.721593   -1.010507
     19          1           0        3.236814   -0.228909    0.683794
     20          6           0       -1.953070   -0.711918   -0.796543
     21          8           0       -1.019741   -0.902558   -1.575676
     22          1           0       -2.946341   -0.412955   -1.186493
 ---------------------------------------------------------------------
 Rotational constants (GHZ):           1.7903799           1.0836549           0.9994582
 Standard basis: 6-31G(d) (6D, 7F)
 There are   174 symmetry adapted cartesian basis functions of A   symmetry.
 There are   174 symmetry adapted basis functions of A   symmetry.
   174 basis functions,   328 primitive gaussians,   174 cartesian basis functions
    38 alpha electrons       38 beta electrons
       nuclear repulsion energy       545.3741694168 Hartrees.
 NAtoms=   22 NActive=   22 NUniq=   22 SFac= 1.00D+00 NAtFMM=   60 NAOKFM=F Big=F
 Integral buffers will be    131072 words long.
 Raffenetti 2 integral format.
 Two-electron integral symmetry is turned on.
 One-electron integrals computed using PRISM.
 NBasis=   174 RedAO= T EigKep=  1.85D-03  NBF=   174
 NBsUse=   174 1.00D-06 EigRej= -1.00D+00 NBFU=   174
 ExpMin= 1.61D-01 ExpMax= 5.48D+03 ExpMxC= 8.25D+02 IAcc=3 IRadAn=         5 AccDes= 0.00D+00
 Harris functional with IExCor= 1009 and IRadAn=       5 diagonalized for initial guess.
 HarFok:  IExCor= 1009 AccDes= 0.00D+00 IRadAn=         5 IDoV= 1 UseB2=F ITyADJ=14
 ICtDFT=  3500011 ScaDFX=  1.000000  1.000000  1.000000  1.000000
 FoFCou: FMM=F IPFlag=           0 FMFlag=      100000 FMFlg1=           0
         NFxFlg=           0 DoJE=T BraDBF=F KetDBF=T FulRan=T
         wScrn=  0.000000 ICntrl=       500 IOpCl=  0 I1Cent=   200000004 NGrid=           0
         NMat0=    1 NMatS0=      1 NMatT0=    0 NMatD0=    1 NMtDS0=    0 NMtDT0=    0
 Petite list used in FoFCou.
 Requested convergence on RMS density matrix=1.00D-08 within 128 cycles.
 Requested convergence on MAX density matrix=1.00D-06.
 Requested convergence on             energy=1.00D-06.
 No special actions if energy rises.
 Integral accuracy reduced to 1.0D-05 until final iterations.
 Initial convergence to 1.0D-05 achieved.  Increase integral accuracy.
 SCF Done:  E(RM062X) =  -462.175004802     A.U. after   17 cycles
            NFock= 17  Conv=0.33D-08     -V/T= 2.0084
 DoSCS=F DFT=T ScalE2(SS,OS)=  1.000000  1.000000
 Range of M.O.s used for correlation:     1   174
 NBasis=   174 NAE=    38 NBE=    38 NFC=     0 NFV=     0
 NROrb=    174 NOA=    38 NOB=    38 NVA=   136 NVB=   136
 Symmetrizing basis deriv contribution to polar:
 IMax=3 JMax=2 DiffMx= 0.00D+00
 G2DrvN: will do    23 centers at a time, making    1 passes.
 Calling FoFCou, ICntrl=  3107 FMM=F I1Cent=   0 AccDes= 0.00D+00.
 End of G2Drv F.D. properties file   721 does not exist.
 End of G2Drv F.D. properties file   722 does not exist.
 End of G2Drv F.D. properties file   788 does not exist.
          IDoAtm=1111111111111111111111
          Differentiating once with respect to nuclear coordinates.
 CalDSu exits because no D1Ps are significant.
          There are    69 degrees of freedom in the 1st order CPHF.  IDoFFX=6 NUNeed=     0.
     63 vectors produced by pass  0 Test12= 7.49D-15 1.45D-09 XBig12= 8.96D-02 1.39D-01.
 AX will form    63 AO Fock derivatives at one time.
     63 vectors produced by pass  1 Test12= 7.49D-15 1.45D-09 XBig12= 7.97D-03 1.78D-02.
     63 vectors produced by pass  2 Test12= 7.49D-15 1.45D-09 XBig12= 1.32D-04 2.00D-03.
     63 vectors produced by pass  3 Test12= 7.49D-15 1.45D-09 XBig12= 8.47D-07 1.62D-04.
     63 vectors produced by pass  4 Test12= 7.49D-15 1.45D-09 XBig12= 3.51D-09 6.01D-06.
     63 vectors produced by pass  5 Test12= 7.49D-15 1.45D-09 XBig12= 1.05D-11 4.03D-07.
     33 vectors produced by pass  6 Test12= 7.49D-15 1.45D-09 XBig12= 2.59D-14 1.51D-08.
 InvSVY:  IOpt=1 It=  1 EMax= 3.89D-16
 Solved reduced A of dimension   411 with    69 vectors.
 End of Minotr F.D. properties file   721 does not exist.
 End of Minotr F.D. properties file   722 does not exist.
 End of Minotr F.D. properties file   788 does not exist.

 **********************************************************************

            Population analysis using the SCF Density.

 **********************************************************************

 Orbital symmetries:
       Occupied  (A) (A) (A) (A) (A) (A) (A) (A) (A) (A) (A) (A)
                 (A) (A) (A) (A) (A) (A) (A) (A) (A) (A) (A) (A)
                 (A) (A) (A) (A) (A) (A) (A) (A) (A) (A) (A) (A)
                 (A) (A)
       Virtual   (A) (A) (A) (A) (A) (A) (A) (A) (A) (A) (A) (A)
                 (A) (A) (A) (A) (A) (A) (A) (A) (A) (A) (A) (A)
                 (A) (A) (A) (A) (A) (A) (A) (A) (A) (A) (A) (A)
                 (A) (A) (A) (A) (A) (A) (A) (A) (A) (A) (A) (A)
                 (A) (A) (A) (A) (A) (A) (A) (A) (A) (A) (A) (A)
                 (A) (A) (A) (A) (A) (A) (A) (A) (A) (A) (A) (A)
                 (A) (A) (A) (A) (A) (A) (A) (A) (A) (A) (A) (A)
                 (A) (A) (A) (A) (A) (A) (A) (A) (A) (A) (A) (A)
                 (A) (A) (A) (A) (A) (A) (A) (A) (A) (A) (A) (A)
                 (A) (A) (A) (A) (A) (A) (A) (A) (A) (A) (A) (A)
                 (A) (A) (A) (A) (A) (A) (A) (A) (A) (A) (A) (A)
                 (A) (A) (A) (A)
 The electronic state is 1-A.
 Alpha  occ. eigenvalues --  -19.67826 -19.59276 -10.62592 -10.60768 -10.59625
 Alpha  occ. eigenvalues --  -10.56412 -10.55938 -10.55758 -10.55311 -10.52700
 Alpha  occ. eigenvalues --   -1.20076  -1.11464  -0.91980  -0.86349  -0.83159
 Alpha  occ. eigenvalues --   -0.81425  -0.72151  -0.70390  -0.62772  -0.60778
 Alpha  occ. eigenvalues --   -0.58583  -0.57288  -0.55557  -0.54945  -0.51160
 Alpha  occ. eigenvalues --   -0.48956  -0.48179  -0.46370  -0.45916  -0.45401
 Alpha  occ. eigenvalues --   -0.43918  -0.42173  -0.41553  -0.39519  -0.35896
 Alpha  occ. eigenvalues --   -0.32140  -0.29179  -0.23693
 Alpha virt. eigenvalues --   -0.01661   0.03736   0.11190   0.13506   0.14371
 Alpha virt. eigenvalues --    0.15113   0.16982   0.18025   0.18364   0.18787
 Alpha virt. eigenvalues --    0.20014   0.20985   0.22980   0.23366   0.25081
 Alpha virt. eigenvalues --    0.27934   0.28237   0.32398   0.33610   0.34809
 Alpha virt. eigenvalues --    0.38801   0.39816   0.42758   0.44866   0.52842
 Alpha virt. eigenvalues --    0.56336   0.57267   0.57953   0.58916   0.60934
 Alpha virt. eigenvalues --    0.61995   0.63405   0.64947   0.65702   0.67407
 Alpha virt. eigenvalues --    0.68192   0.71118   0.71369   0.72246   0.76823
 Alpha virt. eigenvalues --    0.79136   0.80519   0.81692   0.86130   0.88748
 Alpha virt. eigenvalues --    0.89484   0.90923   0.91724   0.92556   0.93531
 Alpha virt. eigenvalues --    0.94143   0.95536   0.96020   0.98972   0.99883
 Alpha virt. eigenvalues --    1.00374   1.02535   1.04542   1.06762   1.08187
 Alpha virt. eigenvalues --    1.09345   1.12801   1.14987   1.16770   1.18296
 Alpha virt. eigenvalues --    1.20244   1.25701   1.29584   1.30863   1.32222
 Alpha virt. eigenvalues --    1.37915   1.39966   1.41438   1.43999   1.46081
 Alpha virt. eigenvalues --    1.48334   1.55830   1.56675   1.61439   1.64122
 Alpha virt. eigenvalues --    1.64904   1.70550   1.71915   1.77273   1.80896
 Alpha virt. eigenvalues --    1.84223   1.86100   1.89935   1.94208   1.96352
 Alpha virt. eigenvalues --    1.98383   2.01190   2.01595   2.05794   2.06221
 Alpha virt. eigenvalues --    2.06863   2.12565   2.15304   2.15722   2.16463
 Alpha virt. eigenvalues --    2.17528   2.21341   2.23580   2.27228   2.29890
 Alpha virt. eigenvalues --    2.31431   2.33900   2.37098   2.39337   2.44160
 Alpha virt. eigenvalues --    2.44473   2.54180   2.58261   2.58968   2.60947
 Alpha virt. eigenvalues --    2.62771   2.64563   2.67872   2.70307   2.76471
 Alpha virt. eigenvalues --    2.82985   2.92785   2.99320   3.11792   3.12124
 Alpha virt. eigenvalues --    3.16259   3.97999   4.11203   4.15951   4.26942
 Alpha virt. eigenvalues --    4.29986   4.32594   4.37448   4.46810   4.53239
 Alpha virt. eigenvalues --    4.62650
          Condensed to atoms (all electrons):
               1          2          3          4          5          6
     1  C    5.128094   0.069092  -0.005466   0.499676   0.389076   0.371749
     2  C    0.069092   5.426980  -0.018613  -0.027418  -0.032103  -0.015645
     3  C   -0.005466  -0.018613   5.106879   0.030510   0.000452   0.000201
     4  C    0.499676  -0.027418   0.030510   5.302209  -0.045437  -0.031642
     5  H    0.389076  -0.032103   0.000452  -0.045437   0.511304  -0.030688
     6  H    0.371749  -0.015645   0.000201  -0.031642  -0.030688   0.530108
     7  H   -0.046612   0.000462  -0.001072   0.362563   0.004262  -0.003785
     8  C   -0.014973   0.523650  -0.032506  -0.025844  -0.008895   0.001720
     9  C   -0.010299  -0.079860   0.593710  -0.008428  -0.000202   0.000136
    10  H   -0.009073   0.372586   0.000334   0.001329  -0.002272  -0.001183
    11  H    0.000163   0.000160   0.376891  -0.000492  -0.000004  -0.000003
    12  H   -0.000038   0.006676  -0.047724   0.000097  -0.000007   0.000002
    13  H   -0.013502   0.369749   0.002130  -0.005684   0.001542  -0.003241
    14  H   -0.001088   0.006678   0.372371  -0.000487   0.000026   0.000062
    15  O   -0.000457  -0.081397   0.003042   0.000305   0.002791   0.000012
    16  C   -0.001578  -0.021797  -0.000134   0.000116  -0.000291   0.000041
    17  H    0.000352   0.001225   0.000006   0.000010   0.000286  -0.000130
    18  H   -0.000001   0.001322   0.000002   0.000001   0.000005  -0.000000
    19  H    0.000257  -0.001300  -0.000007   0.000016   0.000367   0.000026
    20  C   -0.021986  -0.004973  -0.001969   0.374944  -0.008622   0.003950
    21  O   -0.000476  -0.002122  -0.007963  -0.101995   0.014356   0.000507
    22  H    0.008957  -0.000164  -0.000323  -0.119744   0.000765  -0.000076
               7          8          9         10         11         12
     1  C   -0.046612  -0.014973  -0.010299  -0.009073   0.000163  -0.000038
     2  C    0.000462   0.523650  -0.079860   0.372586   0.000160   0.006676
     3  C   -0.001072  -0.032506   0.593710   0.000334   0.376891  -0.047724
     4  C    0.362563  -0.025844  -0.008428   0.001329  -0.000492   0.000097
     5  H    0.004262  -0.008895  -0.000202  -0.002272  -0.000004  -0.000007
     6  H   -0.003785   0.001720   0.000136  -0.001183  -0.000003   0.000002
     7  H    0.554380   0.000057   0.000229  -0.000022   0.000042  -0.000008
     8  C    0.000057   4.424172   0.513525  -0.033045   0.003462  -0.031120
     9  C    0.000229   0.513525   4.847831   0.004434  -0.025455   0.365218
    10  H   -0.000022  -0.033045   0.004434   0.525724  -0.000004  -0.000118
    11  H    0.000042   0.003462  -0.025455  -0.000004   0.505285  -0.005894
    12  H   -0.000008  -0.031120   0.365218  -0.000118  -0.005894   0.519585
    13  H    0.000275  -0.019400  -0.006000  -0.030013   0.000042  -0.000060
    14  H    0.000539  -0.014450  -0.029864   0.000005  -0.034023   0.004422
    15  O   -0.000003   0.287499  -0.043167  -0.012915  -0.000037  -0.000845
    16  C   -0.000001  -0.042581   0.003671   0.004099   0.000002  -0.000135
    17  H    0.000002  -0.003123  -0.000179  -0.001766   0.000000   0.000015
    18  H   -0.000000   0.002791  -0.000044   0.000301  -0.000000  -0.000016
    19  H   -0.000000  -0.002609  -0.000055   0.001451  -0.000000   0.000023
    20  C   -0.024552  -0.004141  -0.000439  -0.000014  -0.000097   0.000015
    21  O    0.003012   0.016432   0.000950   0.000000   0.000019   0.000729
    22  H    0.001228   0.000195   0.000072   0.000001   0.000233  -0.000033
              13         14         15         16         17         18
     1  C   -0.013502  -0.001088  -0.000457  -0.001578   0.000352  -0.000001
     2  C    0.369749   0.006678  -0.081397  -0.021797   0.001225   0.001322
     3  C    0.002130   0.372371   0.003042  -0.000134   0.000006   0.000002
     4  C   -0.005684  -0.000487   0.000305   0.000116   0.000010   0.000001
     5  H    0.001542   0.000026   0.002791  -0.000291   0.000286   0.000005
     6  H   -0.003241   0.000062   0.000012   0.000041  -0.000130  -0.000000
     7  H    0.000275   0.000539  -0.000003  -0.000001   0.000002  -0.000000
     8  C   -0.019400  -0.014450   0.287499  -0.042581  -0.003123   0.002791
     9  C   -0.006000  -0.029864  -0.043167   0.003671  -0.000179  -0.000044
    10  H   -0.030013   0.000005  -0.012915   0.004099  -0.001766   0.000301
    11  H    0.000042  -0.034023  -0.000037   0.000002   0.000000  -0.000000
    12  H   -0.000060   0.004422  -0.000845  -0.000135   0.000015  -0.000016
    13  H    0.509200   0.002773   0.003512   0.000224  -0.000038  -0.000009
    14  H    0.002773   0.525085  -0.000010  -0.000006  -0.000001   0.000000
    15  O    0.003512  -0.000010   8.212822   0.234443  -0.036208  -0.032273
    16  C    0.000224  -0.000006   0.234443   4.940343   0.377718   0.389854
    17  H   -0.000038  -0.000001  -0.036208   0.377718   0.559103  -0.030121
    18  H   -0.000009   0.000000  -0.032273   0.389854  -0.030121   0.495405
    19  H    0.000073  -0.000001  -0.037173   0.365375  -0.045091  -0.024986
    20  C   -0.000001  -0.000580   0.000472  -0.000002  -0.000030   0.000000
    21  O    0.000026   0.000048  -0.002401   0.000062   0.000120  -0.000003
    22  H   -0.000003   0.000107  -0.000011   0.000001   0.000000   0.000000
              19         20         21         22
     1  C    0.000257  -0.021986  -0.000476   0.008957
     2  C   -0.001300  -0.004973  -0.002122  -0.000164
     3  C   -0.000007  -0.001969  -0.007963  -0.000323
     4  C    0.000016   0.374944  -0.101995  -0.119744
     5  H    0.000367  -0.008622   0.014356   0.000765
     6  H    0.000026   0.003950   0.000507  -0.000076
     7  H   -0.000000  -0.024552   0.003012   0.001228
     8  C   -0.002609  -0.004141   0.016432   0.000195
     9  C   -0.000055  -0.000439   0.000950   0.000072
    10  H    0.001451  -0.000014   0.000000   0.000001
    11  H   -0.000000  -0.000097   0.000019   0.000233
    12  H    0.000023   0.000015   0.000729  -0.000033
    13  H    0.000073  -0.000001   0.000026  -0.000003
    14  H   -0.000001  -0.000580   0.000048   0.000107
    15  O   -0.037173   0.000472  -0.002401  -0.000011
    16  C    0.365375  -0.000002   0.000062   0.000001
    17  H   -0.045091  -0.000030   0.000120   0.000000
    18  H   -0.024986   0.000000  -0.000003   0.000000
    19  H    0.576166   0.000005  -0.000003   0.000000
    20  C    0.000005   4.559117   0.527361   0.373189
    21  O   -0.000003   0.527361   8.097710  -0.057944
    22  H    0.000000   0.373189  -0.057944   0.688184
 Mulliken charges:
               1
     1  C   -0.341868
     2  C   -0.493189
     3  C   -0.370750
     4  C   -0.204604
     5  H    0.203289
     6  H    0.177879
     7  H    0.149003
     8  C    0.459182
     9  C   -0.125784
    10  H    0.180160
    11  H    0.179709
    12  H    0.189217
    13  H    0.188408
    14  H    0.168392
    15  O   -0.498000
    16  C   -0.249422
    17  H    0.177848
    18  H    0.197773
    19  H    0.167464
    20  C    0.228353
    21  O   -0.488424
    22  H    0.105366
 Sum of Mulliken charges =  -0.00000
 Mulliken charges with hydrogens summed into heavy atoms:
               1
     1  C    0.039299
     2  C   -0.124621
     3  C   -0.022648
     4  C   -0.055602
     8  C    0.459182
     9  C    0.063433
    15  O   -0.498000
    16  C    0.293663
    20  C    0.333719
    21  O   -0.488424
 APT charges:
               1
     1  C   -0.930480
     2  C   -0.838398
     3  C   -0.740512
     4  C   -0.502684
     5  H    0.313204
     6  H    0.563126
     7  H    0.563928
     8  C   -0.035230
     9  C   -0.579142
    10  H    0.483898
    11  H    0.657109
    12  H    0.499383
    13  H    0.476961
    14  H    0.346172
    15  O   -0.243523
    16  C   -1.209408
    17  H    0.288343
    18  H    0.711084
    19  H    0.420646
    20  C   -0.268777
    21  O   -0.475799
    22  H    0.500102
 Sum of APT charges =  -0.00000
 APT charges with hydrogens summed into heavy atoms:
               1
     1  C   -0.054151
     2  C    0.122461
     3  C    0.262769
     4  C    0.061243
     8  C   -0.035230
     9  C   -0.079759
    15  O   -0.243523
    16  C    0.210664
    20  C    0.231325
    21  O   -0.475799
 Electronic spatial extent (au):  <R**2>=           1423.2894
 Charge=             -0.0000 electrons
 Dipole moment (field-independent basis, Debye):
    X=              1.3407    Y=              0.6706    Z=              3.3512  Tot=              3.6712
 Quadrupole moment (field-independent basis, Debye-Ang):
   XX=            -51.7335   YY=            -60.2792   ZZ=            -62.6355
   XY=             -6.4168   XZ=             -0.7627   YZ=             -3.4478
 Traceless Quadrupole moment (field-independent basis, Debye-Ang):
   XX=              6.4826   YY=             -2.0631   ZZ=             -4.4195
   XY=             -6.4168   XZ=             -0.7627   YZ=             -3.4478
 Octapole moment (field-independent basis, Debye-Ang**2):
  XXX=             18.2433  YYY=             -2.2833  ZZZ=              5.4904  XYY=              2.3353
  XXY=             -4.9708  XXZ=             -3.5528  XZZ=              3.5249  YZZ=              4.1283
  YYZ=             -4.5367  XYZ=              2.0288
 Hexadecapole moment (field-independent basis, Debye-Ang**3):
 XXXX=           -893.5904 YYYY=           -518.0897 ZZZZ=           -383.3286 XXXY=            -29.7624
 XXXZ=             -4.3818 YYYX=            -20.4769 YYYZ=             -6.8789 ZZZX=            -12.9251
 ZZZY=             -9.4126 XXYY=           -244.2375 XXZZ=           -223.9727 YYZZ=           -145.6839
 XXYZ=              6.5133 YYXZ=              0.3589 ZZXY=             -7.1587
 N-N= 5.453741694168D+02 E-N=-2.167088675826D+03  KE= 4.583117112233D+02
  Exact polarizability:       0.000       0.000       0.000       0.000       0.000       0.000
 Approx polarizability:     149.685       0.308     114.777      -6.792      -9.001     119.934
 Calling FoFJK, ICntrl=    100127 FMM=F ISym2X=0 I1Cent= 0 IOpClX= 0 NMat=1 NMatS=1 NMatT=0.
 ***** Axes restored to original set *****
 -------------------------------------------------------------------
 Center     Atomic                   Forces (Hartrees/Bohr)
 Number     Number              X              Y              Z
 -------------------------------------------------------------------
      1        6          -0.006189912    0.003749282    0.000338373
      2        6          -0.006237205   -0.006291271    0.008288339
      3        6           0.001773259   -0.001729204   -0.001915476
      4        6          -0.000139107   -0.004275891   -0.003701704
      5        1          -0.001264561    0.000696244    0.000475011
      6        1           0.000321975   -0.000066459   -0.000014057
      7        1           0.000388835   -0.000693635    0.000275562
      8        6          -0.007238368   -0.020061513   -0.022877737
      9        6           0.006863538    0.005633355   -0.001096155
     10        1          -0.010376585   -0.004107154    0.005417124
     11        1           0.000508604    0.000083063   -0.000234537
     12        1           0.002693322    0.001121417   -0.002624792
     13        1          -0.001775464    0.000529014   -0.001188681
     14        1          -0.000289338    0.000124619   -0.000135164
     15        8           0.011539706    0.015970340    0.013522351
     16        6           0.004187283    0.007895821    0.007536223
     17        1           0.000173841   -0.002135986    0.000583620
     18        1          -0.000038363   -0.000015309    0.000679058
     19        1           0.003936876    0.000478018   -0.003344201
     20        6           0.006897585    0.006161323   -0.002288342
     21        8          -0.005372122   -0.003052238    0.002074420
     22        1          -0.000363797   -0.000013839    0.000230765
 -------------------------------------------------------------------
 Cartesian Forces:  Max     0.022877737 RMS     0.005968295
 FormGI is forming the generalized inverse of G from B-inverse, IUseBI=4.

 GradGradGradGradGradGradGradGradGradGradGradGradGradGradGradGradGradGrad
 Berny optimization.
 Internal  Forces:  Max     0.064419125 RMS     0.009862577
 Search for a saddle point.
 Step number   1 out of a maximum of  103
 All quantities printed in internal units (Hartrees-Bohrs-Radians)
 Swapping is turned off.
 Second derivative matrix not updated -- analytic derivatives used.
 ITU=  0
     Eigenvalues ---   -0.02409  -0.00285   0.00378   0.01074   0.01343
     Eigenvalues ---    0.01559   0.02055   0.02178   0.02720   0.02799
     Eigenvalues ---    0.03344   0.03699   0.03879   0.03993   0.04501
     Eigenvalues ---    0.05053   0.05487   0.06476   0.07416   0.08128
     Eigenvalues ---    0.08468   0.09046   0.09317   0.10594   0.11015
     Eigenvalues ---    0.11125   0.13344   0.13612   0.13833   0.14237
     Eigenvalues ---    0.15972   0.18784   0.18960   0.19254   0.21487
     Eigenvalues ---    0.23491   0.24769   0.31270   0.32046   0.32657
     Eigenvalues ---    0.34291   0.34977   0.35610   0.35914   0.36428
     Eigenvalues ---    0.36699   0.37210   0.37290   0.37347   0.37504
     Eigenvalues ---    0.37879   0.38658   0.40052   0.41191   0.50039
     Eigenvalues ---    0.53889   0.61424   0.62483   0.81611   1.05858
 Eigenvectors required to have negative eigenvalues:
                          R1        D12       D20       D21       D15
   1                   -0.76201  -0.22552  -0.21775  -0.18446   0.17702
                          D24       A2        D13       R2        A3
   1                    0.17656   0.16211  -0.14253   0.12009   0.11507
 RFO step:  Lambda0=2.180715923D-03 Lambda=-1.69689661D-02.
 Linear search not attempted -- option 19 set.
 Maximum step size (   0.300) exceeded in Quadratic search.
    -- Step size scaled by   0.881
 Iteration  1 RMS(Cart)=  0.14492040 RMS(Int)=  0.02181375
 Iteration  2 RMS(Cart)=  0.05393456 RMS(Int)=  0.00213994
 Iteration  3 RMS(Cart)=  0.00330818 RMS(Int)=  0.00103923
 Iteration  4 RMS(Cart)=  0.00001205 RMS(Int)=  0.00103922
 Iteration  5 RMS(Cart)=  0.00000000 RMS(Int)=  0.00103922
 Variable       Old X    -DE/DX   Delta X   Delta X   Delta X     New X
                                 (Linear)    (Quad)   (Total)
    R1        3.89645   0.00661   0.00000  -0.15933  -0.15933   3.73713
    R2        2.62210  -0.00409   0.00000   0.01923   0.01923   2.64133
    R3        2.05319  -0.00070   0.00000  -0.00356  -0.00356   2.04963
    R4        2.05364  -0.00009   0.00000   0.00056   0.00056   2.05420
    R5        2.61765   0.01343   0.00000   0.02107   0.02107   2.63872
    R6        2.05083  -0.00712   0.00000   0.00159   0.00159   2.05242
    R7        2.04491   0.00004   0.00000   0.00009   0.00009   2.04500
    R8        2.55210  -0.00233   0.00000   0.00238   0.00238   2.55448
    R9        2.05051  -0.00030   0.00000  -0.00018  -0.00018   2.05033
   R10        2.04510   0.00013   0.00000  -0.00027  -0.00027   2.04483
   R11        2.05015   0.00001   0.00000  -0.00139  -0.00139   2.04876
   R12        2.71845   0.00317   0.00000  -0.00558  -0.00558   2.71286
   R13        2.71404  -0.00674   0.00000  -0.02054  -0.02054   2.69350
   R14        2.53929   0.01432   0.00000  -0.01049  -0.01049   2.52880
   R15        2.04940   0.00119   0.00000   0.00227   0.00227   2.05168
   R16        2.68483  -0.00542   0.00000  -0.01739  -0.01739   2.66744
   R17        2.07084  -0.00113   0.00000  -0.00385  -0.00385   2.06699
   R18        2.05939  -0.00020   0.00000  -0.00195  -0.00195   2.05744
   R19        2.06697  -0.00031   0.00000   0.00344   0.00344   2.07042
   R20        2.32559  -0.00645   0.00000   0.00078   0.00078   2.32637
   R21        2.09413   0.00033   0.00000  -0.00019  -0.00019   2.09394
    A1        1.97972   0.00124   0.00000  -0.01071  -0.01040   1.96932
    A2        1.59435   0.00111   0.00000   0.06026   0.06034   1.65469
    A3        1.63250  -0.00133   0.00000   0.04516   0.04512   1.67761
    A4        2.03181  -0.00118   0.00000  -0.03070  -0.03142   2.00039
    A5        2.08414   0.00041   0.00000  -0.00517  -0.00595   2.07819
    A6        2.02285   0.00023   0.00000  -0.01643  -0.01944   2.00341
    A7        1.79775   0.00445   0.00000   0.08820   0.08692   1.88467
    A8        1.72818  -0.00410   0.00000   0.04978   0.04721   1.77539
    A9        1.68824  -0.00281   0.00000  -0.03177  -0.02978   1.65846
   A10        2.04055   0.00646   0.00000   0.01473   0.00892   2.04947
   A11        2.07440  -0.00256   0.00000  -0.04790  -0.04795   2.02645
   A12        2.02537  -0.00278   0.00000  -0.02712  -0.02773   1.99764
   A13        2.10104  -0.00071   0.00000   0.00219   0.00212   2.10316
   A14        2.14659   0.00047   0.00000  -0.00162  -0.00169   2.14490
   A15        2.03168   0.00026   0.00000  -0.00234  -0.00240   2.02928
   A16        2.13905   0.00030   0.00000   0.00913   0.00912   2.14818
   A17        2.05200  -0.00146   0.00000  -0.02804  -0.02805   2.02395
   A18        2.09186   0.00116   0.00000   0.01905   0.01905   2.11091
   A19        2.12425  -0.01433   0.00000   0.00676   0.00651   2.13076
   A20        2.02061   0.06442   0.00000   0.12387   0.12373   2.14434
   A21        2.13306  -0.05013   0.00000  -0.12657  -0.12698   2.00608
   A22        2.13798  -0.00042   0.00000  -0.00128  -0.00136   2.13662
   A23        2.07101   0.00402   0.00000   0.03165   0.03152   2.10254
   A24        2.06357  -0.00358   0.00000  -0.03362  -0.03366   2.02991
   A25        2.07814   0.03408   0.00000  -0.01182  -0.01182   2.06632
   A26        1.93685   0.00082   0.00000  -0.00695  -0.00693   1.92992
   A27        1.84099  -0.00261   0.00000   0.00426   0.00425   1.84524
   A28        1.92125   0.00611   0.00000   0.02299   0.02300   1.94425
   A29        1.90164   0.00038   0.00000   0.01453   0.01454   1.91617
   A30        1.93454  -0.00157   0.00000  -0.01235  -0.01233   1.92221
   A31        1.92641  -0.00327   0.00000  -0.02199  -0.02199   1.90441
   A32        2.15024  -0.00117   0.00000  -0.01478  -0.01483   2.13541
   A33        2.03981   0.00029   0.00000   0.00954   0.00949   2.04930
   A34        2.09299   0.00087   0.00000   0.00495   0.00490   2.09789
    D1       -0.93449   0.00340   0.00000   0.08044   0.08184  -0.85265
    D2       -3.03703  -0.00349   0.00000   0.01840   0.01688  -3.02016
    D3        1.19016   0.00096   0.00000   0.04335   0.04348   1.23364
    D4        1.15434   0.00298   0.00000   0.07387   0.07465   1.22900
    D5       -0.94820  -0.00391   0.00000   0.01183   0.00969  -0.93851
    D6       -3.00420   0.00054   0.00000   0.03679   0.03629  -2.96790
    D7       -3.10331   0.00323   0.00000   0.06478   0.06679  -3.03652
    D8        1.07733  -0.00367   0.00000   0.00273   0.00183   1.07916
    D9       -0.97866   0.00078   0.00000   0.02769   0.02843  -0.95023
   D10       -1.70302   0.00101   0.00000  -0.02803  -0.02811  -1.73113
   D11        1.46376   0.00111   0.00000  -0.03462  -0.03468   1.42909
   D12        2.76297  -0.00048   0.00000  -0.07942  -0.07897   2.68400
   D13       -0.35343  -0.00037   0.00000  -0.08600  -0.08554  -0.43897
   D14        0.19503   0.00044   0.00000   0.02021   0.01981   0.21484
   D15       -2.92137   0.00054   0.00000   0.01363   0.01324  -2.90813
   D16        1.34109  -0.00190   0.00000  -0.05492  -0.05457   1.28652
   D17       -1.69261   0.00142   0.00000  -0.08865  -0.09089  -1.78350
   D18       -3.06909  -0.00151   0.00000   0.06350   0.06468  -3.00441
   D19        0.18040   0.00181   0.00000   0.02977   0.02835   0.20875
   D20       -0.49744  -0.00033   0.00000  -0.05385  -0.05149  -0.54893
   D21        2.75205   0.00298   0.00000  -0.08759  -0.08782   2.66423
   D22       -3.04264   0.00001   0.00000   0.03509   0.03530  -3.00734
   D23       -0.06000  -0.00013   0.00000   0.00801   0.00780  -0.05220
   D24        0.19684  -0.00017   0.00000   0.05752   0.05772   0.25456
   D25       -3.10371  -0.00032   0.00000   0.03043   0.03022  -3.07348
   D26       -0.10498  -0.00046   0.00000  -0.02046  -0.02045  -0.12543
   D27        3.05488  -0.00005   0.00000  -0.00193  -0.00193   3.05296
   D28        3.06110  -0.00035   0.00000  -0.02673  -0.02674   3.03436
   D29       -0.06223   0.00006   0.00000  -0.00820  -0.00821  -0.07044
   D30       -0.08080  -0.00099   0.00000   0.01961   0.02156  -0.05924
   D31       -3.06408  -0.00150   0.00000   0.04093   0.04244  -3.02164
   D32        2.94593   0.00271   0.00000   0.07164   0.07014   3.01606
   D33       -0.03736   0.00220   0.00000   0.09297   0.09102   0.05366
   D34       -0.10849  -0.00483   0.00000   0.34399   0.34327   0.23478
   D35        3.14159  -0.00397   0.00000   0.30093   0.30165  -2.83995
   D36        1.24589  -0.00188   0.00000  -0.24413  -0.24415   1.00175
   D37       -2.98043  -0.00252   0.00000  -0.22798  -0.22799   3.07477
   D38       -0.90225  -0.00470   0.00000  -0.23964  -0.23961  -1.14186
         Item               Value     Threshold  Converged?
 Maximum Force            0.064419     0.000450     NO 
 RMS     Force            0.009863     0.000300     NO 
 Maximum Displacement     0.683249     0.001800     NO 
 RMS     Displacement     0.187454     0.001200     NO 
 Predicted change in Energy=-9.538386D-03
 GradGradGradGradGradGradGradGradGradGradGradGradGradGradGradGradGradGrad

                          Input orientation:                          
 ---------------------------------------------------------------------
 Center     Atomic      Atomic             Coordinates (Angstroms)
 Number     Number       Type             X           Y           Z
 ---------------------------------------------------------------------
      1          6           0       -1.512372   -0.685158   -1.314488
      2          6           0       -0.011094   -1.778178   -0.634499
      3          6           0       -0.671471   -0.670291    1.954905
      4          6           0       -2.080968    0.127785   -0.329869
      5          1           0       -0.914157   -0.155273   -2.047804
      6          1           0       -2.089899   -1.515939   -1.711874
      7          1           0       -2.989738   -0.133015    0.200715
      8          6           0        0.849301   -0.936241    0.073075
      9          6           0        0.519210   -0.427263    1.362872
     10          1           0        0.367311   -2.226340   -1.548587
     11          1           0       -0.939768   -0.168513    2.878723
     12          1           0        1.200659    0.308652    1.778565
     13          1           0       -0.633101   -2.433176   -0.038532
     14          1           0       -1.353272   -1.436861    1.610795
     15          8           0        2.001659   -0.483135   -0.434374
     16          6           0        2.227898   -0.628204   -1.820100
     17          1           0        1.433021   -0.141355   -2.392427
     18          1           0        3.178636   -0.135560   -2.017018
     19          1           0        2.305043   -1.683533   -2.104189
     20          6           0       -1.400665    1.363982   -0.065465
     21          8           0       -0.311256    1.637236   -0.569483
     22          1           0       -1.876642    2.065896    0.647674
 ---------------------------------------------------------------------
                    Distance matrix (angstroms):
                    1          2          3          4          5
     1  C    0.000000
     2  C    1.977603   0.000000
     3  C    3.375836   2.892840   0.000000
     4  C    1.397731   2.830172   2.800679   0.000000
     5  H    1.084616   2.333833   4.042997   2.095918   0.000000
     6  H    1.087038   2.356043   4.021484   2.147522   1.829380
     7  H    2.187079   3.503778   2.956384   1.084158   3.060126
     8  C    2.750613   1.396351   2.434084   3.143405   2.866674
     9  C    3.370771   2.468944   1.351772   3.151885   3.709613
    10  H    2.441977   1.086093   3.971752   3.608497   2.486101
    11  H    4.263546   3.974442   1.084990   3.418362   4.926612
    12  H    4.232632   3.412635   2.119976   3.904777   4.396450
    13  H    2.335969   1.082170   2.661396   2.956302   3.050411
    14  H    3.024509   2.638045   1.082078   2.596889   3.901363
    15  O    3.628198   2.401740   3.590168   4.129405   3.348526
    16  C    3.774719   2.782297   4.760124   4.621541   3.185596
    17  H    3.183239   2.802672   4.858803   4.083467   2.372383
    18  H    4.775056   3.844988   5.557467   5.529852   4.092956
    19  H    4.024057   2.744711   5.134447   5.066180   3.563987
    20  C    2.402397   3.482510   2.958359   1.435585   2.544503
    21  O    2.718681   3.429195   3.439036   2.338319   2.400419
    22  H    3.398686   4.461069   3.263129   2.180278   3.622923
                    6          7          8          9         10
     6  H    0.000000
     7  H    2.525903   0.000000
     8  C    3.487261   3.924243   0.000000
     9  C    4.176929   3.708087   1.425340   0.000000
    10  H    2.563048   4.325719   2.127547   3.425835   0.000000
    11  H    4.920564   3.372739   3.414943   2.119758   5.054125
    12  H    5.132259   4.499345   2.140539   1.085700   4.265043
    13  H    2.400762   3.301775   2.109688   2.704707   1.823148
    14  H    3.404263   2.523164   2.732495   2.141714   3.683120
    15  O    4.409029   5.043804   1.338184   2.330423   2.636536
    16  C    4.409440   5.617173   2.362103   3.618191   2.467700
    17  H    3.842343   5.126914   2.655424   3.875444   2.488969
    18  H    5.454908   6.554936   3.230384   4.310603   3.534733
    19  H    4.415599   5.979246   2.723620   4.097307   2.087615
    20  C    3.388164   2.199319   3.220647   2.989085   4.267998
    21  O    3.796201   3.301705   2.895265   2.947173   4.043058
    22  H    4.294472   2.504788   4.095577   3.530929   5.318099
                   11         12         13         14         15
    11  H    0.000000
    12  H    2.453459   0.000000
    13  H    3.705823   3.765918   0.000000
    14  H    1.840471   3.097987   2.057078   0.000000
    15  O    4.441576   2.483068   3.301713   4.043249   0.000000
    16  C    5.685452   3.857890   3.823248   5.024912   1.411547
    17  H    5.780648   4.201628   3.880995   5.046538   2.067398
    18  H    6.397704   4.303042   4.870604   5.949168   2.002709
    19  H    6.136245   4.501582   3.669004   5.219695   2.078768
    20  C    3.351002   3.358729   3.874054   3.264478   3.888926
    21  O    3.942826   3.092629   4.117493   3.910176   3.140669
    22  H    3.293615   3.719759   4.717936   3.670262   4.765460
                   16         17         18         19         20
    16  C    0.000000
    17  H    1.093805   0.000000
    18  H    1.088750   1.785536   0.000000
    19  H    1.095617   1.794941   1.779602   0.000000
    20  C    4.496001   3.963656   5.198768   5.213062   0.000000
    21  O    3.625406   3.086911   4.173429   4.497538   1.231062
    22  H    5.495028   5.006800   6.123955   6.254395   1.108063
                   21         22
    21  O    0.000000
    22  H    2.028707   0.000000
 Stoichiometry    C8H12O2
 Framework group  C1[X(C8H12O2)]
 Deg. of freedom    60
 Full point group                 C1      NOp   1
 Largest Abelian subgroup         C1      NOp   1
 Largest concise Abelian subgroup C1      NOp   1
                         Standard orientation:                         
 ---------------------------------------------------------------------
 Center     Atomic      Atomic             Coordinates (Angstroms)
 Number     Number       Type             X           Y           Z
 ---------------------------------------------------------------------
      1          6           0       -0.800020   -1.239928    1.188742
      2          6           0        0.606232    0.128071    1.437633
      3          6           0       -1.248109    1.943936    0.159909
      4          6           0       -1.902895   -0.760687    0.476247
      5          1           0       -0.165594   -1.922512    0.633788
      6          1           0       -0.915808   -1.480167    2.242559
      7          1           0       -2.818627   -0.431506    0.954235
      8          6           0        0.855739    0.720360    0.197981
      9          6           0       -0.056057    1.638574   -0.399603
     10          1           0        1.406148   -0.456248    1.882944
     11          1           0       -1.970526    2.548375   -0.378581
     12          1           0        0.173274    1.953674   -1.412946
     13          1           0        0.038209    0.720643    2.142828
     14          1           0       -1.494495    1.703768    1.185826
     15          8           0        1.920194    0.413044   -0.552505
     16          6           0        2.665819   -0.738505   -0.220173
     17          1           0        2.025833   -1.625525   -0.225075
     18          1           0        3.427932   -0.829575   -0.992357
     19          1           0        3.153960   -0.631031    0.754785
     20          6           0       -1.770030   -0.746915   -0.953110
     21          8           0       -0.708315   -1.008758   -1.518540
     22          1           0       -2.659402   -0.453609   -1.545389
 ---------------------------------------------------------------------
 Rotational constants (GHZ):           1.7590868           1.1332222           1.0327194
 Standard basis: 6-31G(d) (6D, 7F)
 There are   174 symmetry adapted cartesian basis functions of A   symmetry.
 There are   174 symmetry adapted basis functions of A   symmetry.
   174 basis functions,   328 primitive gaussians,   174 cartesian basis functions
    38 alpha electrons       38 beta electrons
       nuclear repulsion energy       548.5831551404 Hartrees.
 NAtoms=   22 NActive=   22 NUniq=   22 SFac= 1.00D+00 NAtFMM=   60 NAOKFM=F Big=F
 Integral buffers will be    131072 words long.
 Raffenetti 2 integral format.
 Two-electron integral symmetry is turned on.
 One-electron integrals computed using PRISM.
 NBasis=   174 RedAO= T EigKep=  1.89D-03  NBF=   174
 NBsUse=   174 1.00D-06 EigRej= -1.00D+00 NBFU=   174
 Initial guess from the checkpoint file:  "DATS_14_endo_ii.chk"
 B after Tr=    -0.000000   -0.000000   -0.000000
         Rot=    0.998927    0.012023    0.044169    0.006988 Ang=   5.31 deg.
 ExpMin= 1.61D-01 ExpMax= 5.48D+03 ExpMxC= 8.25D+02 IAcc=3 IRadAn=         5 AccDes= 0.00D+00
 Harris functional with IExCor= 1009 and IRadAn=       5 diagonalized for initial guess.
 HarFok:  IExCor= 1009 AccDes= 0.00D+00 IRadAn=         5 IDoV= 1 UseB2=F ITyADJ=14
 ICtDFT=  3500011 ScaDFX=  1.000000  1.000000  1.000000  1.000000
 FoFCou: FMM=F IPFlag=           0 FMFlag=      100000 FMFlg1=           0
         NFxFlg=           0 DoJE=T BraDBF=F KetDBF=T FulRan=T
         wScrn=  0.000000 ICntrl=       500 IOpCl=  0 I1Cent=   200000004 NGrid=           0
         NMat0=    1 NMatS0=      1 NMatT0=    0 NMatD0=    1 NMtDS0=    0 NMtDT0=    0
 Petite list used in FoFCou.
 Requested convergence on RMS density matrix=1.00D-08 within 128 cycles.
 Requested convergence on MAX density matrix=1.00D-06.
 Requested convergence on             energy=1.00D-06.
 No special actions if energy rises.
 Integral accuracy reduced to 1.0D-05 until final iterations.
 Initial convergence to 1.0D-05 achieved.  Increase integral accuracy.
 SCF Done:  E(RM062X) =  -462.183688798     A.U. after   16 cycles
            NFock= 16  Conv=0.68D-08     -V/T= 2.0084
 Calling FoFJK, ICntrl=      2127 FMM=F ISym2X=0 I1Cent= 0 IOpClX= 0 NMat=1 NMatS=1 NMatT=0.
 ***** Axes restored to original set *****
 -------------------------------------------------------------------
 Center     Atomic                   Forces (Hartrees/Bohr)
 Number     Number              X              Y              Z
 -------------------------------------------------------------------
      1        6          -0.000430242   -0.000747749    0.000710769
      2        6          -0.002286870    0.001538398   -0.000745770
      3        6          -0.000013704   -0.000341144   -0.000116263
      4        6          -0.000416159    0.000283894   -0.000382755
      5        1           0.000253448   -0.000136021   -0.000748002
      6        1          -0.000181990   -0.000213017    0.000415777
      7        1          -0.000072062    0.000064026   -0.000078992
      8        6          -0.001009855   -0.005606183   -0.001886076
      9        6          -0.000510451    0.000858875    0.001347411
     10        1          -0.002685563   -0.000741249    0.000954077
     11        1          -0.000086462    0.000102592   -0.000086147
     12        1           0.000299776    0.000219857   -0.000864509
     13        1           0.000070850   -0.000808023   -0.000001706
     14        1          -0.000092661   -0.000169138   -0.000072993
     15        8           0.003918280    0.005906590    0.001953775
     16        6           0.001821083   -0.000560686   -0.000163146
     17        1          -0.000167017    0.000213125    0.000304738
     18        1           0.000059554    0.000545173   -0.000458956
     19        1           0.000612369   -0.000327768   -0.000515852
     20        6           0.000594666    0.000168042    0.000357158
     21        8           0.000204454   -0.000231910    0.000091073
     22        1           0.000118555   -0.000017684   -0.000013612
 -------------------------------------------------------------------
 Cartesian Forces:  Max     0.005906590 RMS     0.001346794

 GradGradGradGradGradGradGradGradGradGradGradGradGradGradGradGradGradGrad
 Berny optimization.
 FormGI is forming the generalized inverse of G from B-inverse, IUseBI=4.
 Internal  Forces:  Max     0.011571633 RMS     0.001866599
 Search for a saddle point.
 Step number   2 out of a maximum of  103
 All quantities printed in internal units (Hartrees-Bohrs-Radians)
 Swapping is turned off.
 Update second derivatives using D2CorX and points    1    2
 ITU=  0  0
     Eigenvalues ---   -0.02596   0.00114   0.00441   0.01090   0.01377
     Eigenvalues ---    0.01559   0.02056   0.02177   0.02712   0.02814
     Eigenvalues ---    0.03345   0.03691   0.03883   0.03997   0.04500
     Eigenvalues ---    0.05052   0.05477   0.06459   0.07408   0.08143
     Eigenvalues ---    0.08458   0.09054   0.09317   0.10604   0.11016
     Eigenvalues ---    0.11124   0.13341   0.13602   0.13853   0.14236
     Eigenvalues ---    0.15957   0.18789   0.18952   0.19262   0.21503
     Eigenvalues ---    0.23518   0.24771   0.31328   0.32046   0.32677
     Eigenvalues ---    0.34292   0.34983   0.35643   0.35916   0.36428
     Eigenvalues ---    0.36699   0.37210   0.37291   0.37347   0.37504
     Eigenvalues ---    0.37882   0.38703   0.40065   0.41259   0.50042
     Eigenvalues ---    0.53887   0.61400   0.62433   0.81617   1.05848
 Eigenvectors required to have negative eigenvalues:
                          R1        D12       D20       D21       D24
   1                   -0.76011  -0.22355  -0.21459  -0.18130   0.17574
                          D15       A2        D13       R2        A3
   1                    0.16324   0.15856  -0.14764   0.12040   0.11857
 RFO step:  Lambda0=4.234679698D-06 Lambda=-1.25931540D-03.
 Linear search not attempted -- option 19 set.
 Iteration  1 RMS(Cart)=  0.13263643 RMS(Int)=  0.00512795
 Iteration  2 RMS(Cart)=  0.00831393 RMS(Int)=  0.00013757
 Iteration  3 RMS(Cart)=  0.00003108 RMS(Int)=  0.00013662
 Iteration  4 RMS(Cart)=  0.00000000 RMS(Int)=  0.00013662
 Variable       Old X    -DE/DX   Delta X   Delta X   Delta X     New X
                                 (Linear)    (Quad)   (Total)
    R1        3.73713  -0.00063   0.00000   0.03929   0.03929   3.77642
    R2        2.64133  -0.00004   0.00000  -0.00436  -0.00436   2.63697
    R3        2.04963   0.00058   0.00000  -0.00086  -0.00086   2.04876
    R4        2.05420   0.00011   0.00000   0.00030   0.00030   2.05451
    R5        2.63872   0.00320   0.00000  -0.00068  -0.00068   2.63804
    R6        2.05242  -0.00143   0.00000  -0.00075  -0.00075   2.05167
    R7        2.04500   0.00045   0.00000   0.00195   0.00195   2.04695
    R8        2.55448   0.00012   0.00000  -0.00391  -0.00391   2.55057
    R9        2.05033  -0.00000   0.00000  -0.00002  -0.00002   2.05031
   R10        2.04483   0.00020   0.00000   0.00118   0.00118   2.04601
   R11        2.04876   0.00001   0.00000  -0.00036  -0.00036   2.04840
   R12        2.71286   0.00045   0.00000  -0.00194  -0.00194   2.71092
   R13        2.69350   0.00052   0.00000   0.01160   0.01160   2.70510
   R14        2.52880   0.00690   0.00000   0.01052   0.01052   2.53932
   R15        2.05168   0.00001   0.00000   0.00052   0.00052   2.05219
   R16        2.66744   0.00120   0.00000   0.00326   0.00326   2.67069
   R17        2.06699   0.00005   0.00000  -0.00049  -0.00049   2.06651
   R18        2.05744   0.00038   0.00000   0.00098   0.00098   2.05842
   R19        2.07042   0.00049   0.00000   0.00204   0.00204   2.07245
   R20        2.32637   0.00009   0.00000   0.00212   0.00212   2.32849
   R21        2.09394  -0.00007   0.00000  -0.00183  -0.00183   2.09211
    A1        1.96932  -0.00083   0.00000  -0.00077  -0.00079   1.96852
    A2        1.65469  -0.00028   0.00000  -0.03784  -0.03782   1.61687
    A3        1.67761   0.00070   0.00000   0.01820   0.01820   1.69581
    A4        2.00039   0.00010   0.00000   0.00960   0.00937   2.00976
    A5        2.07819   0.00025   0.00000   0.00182   0.00172   2.07991
    A6        2.00341  -0.00009   0.00000   0.00025   0.00038   2.00378
    A7        1.88467  -0.00168   0.00000   0.03765   0.03750   1.92217
    A8        1.77539  -0.00054   0.00000  -0.01859  -0.01912   1.75627
    A9        1.65846   0.00096   0.00000  -0.01460  -0.01446   1.64400
   A10        2.04947   0.00263   0.00000   0.01952   0.01951   2.06898
   A11        2.02645  -0.00086   0.00000  -0.01606  -0.01583   2.01062
   A12        1.99764  -0.00105   0.00000  -0.00927  -0.00949   1.98815
   A13        2.10316   0.00006   0.00000   0.00184   0.00180   2.10497
   A14        2.14490  -0.00006   0.00000  -0.00134  -0.00137   2.14353
   A15        2.02928   0.00001   0.00000   0.00108   0.00104   2.03033
   A16        2.14818   0.00049   0.00000   0.00362   0.00324   2.15142
   A17        2.02395  -0.00097   0.00000  -0.00591  -0.00629   2.01766
   A18        2.11091   0.00048   0.00000   0.00312   0.00275   2.11366
   A19        2.13076  -0.00567   0.00000  -0.01004  -0.01011   2.12065
   A20        2.14434   0.01157   0.00000   0.03230   0.03224   2.17658
   A21        2.00608  -0.00595   0.00000  -0.02096  -0.02104   1.98504
   A22        2.13662  -0.00035   0.00000   0.00901   0.00901   2.14563
   A23        2.10254   0.00104   0.00000   0.00487   0.00487   2.10740
   A24        2.02991  -0.00072   0.00000  -0.01434  -0.01434   2.01558
   A25        2.06632   0.00489   0.00000  -0.01304  -0.01304   2.05328
   A26        1.92992  -0.00086   0.00000  -0.01204  -0.01204   1.91788
   A27        1.84524   0.00032   0.00000   0.00345   0.00344   1.84869
   A28        1.94425   0.00099   0.00000   0.00549   0.00549   1.94974
   A29        1.91617  -0.00036   0.00000  -0.00212  -0.00213   1.91404
   A30        1.92221   0.00019   0.00000   0.00543   0.00544   1.92765
   A31        1.90441  -0.00029   0.00000  -0.00033  -0.00034   1.90407
   A32        2.13541  -0.00031   0.00000  -0.00834  -0.00838   2.12703
   A33        2.04930   0.00024   0.00000   0.00823   0.00819   2.05750
   A34        2.09789   0.00006   0.00000  -0.00040  -0.00043   2.09745
    D1       -0.85265   0.00158   0.00000   0.12683   0.12675  -0.72590
    D2       -3.02016  -0.00036   0.00000   0.09651   0.09662  -2.92354
    D3        1.23364   0.00057   0.00000   0.11389   0.11372   1.34736
    D4        1.22900   0.00127   0.00000   0.11743   0.11752   1.34652
    D5       -0.93851  -0.00067   0.00000   0.08710   0.08739  -0.85112
    D6       -2.96790   0.00026   0.00000   0.10449   0.10449  -2.86341
    D7       -3.03652   0.00124   0.00000   0.11429   0.11417  -2.92234
    D8        1.07916  -0.00071   0.00000   0.08396   0.08404   1.16320
    D9       -0.95023   0.00023   0.00000   0.10135   0.10115  -0.84908
   D10       -1.73113  -0.00069   0.00000  -0.06873  -0.06876  -1.79989
   D11        1.42909  -0.00110   0.00000  -0.11946  -0.11950   1.30959
   D12        2.68400   0.00011   0.00000  -0.02677  -0.02671   2.65729
   D13       -0.43897  -0.00030   0.00000  -0.07750  -0.07744  -0.51642
   D14        0.21484  -0.00023   0.00000  -0.04394  -0.04396   0.17088
   D15       -2.90813  -0.00064   0.00000  -0.09467  -0.09469  -3.00282
   D16        1.28652  -0.00050   0.00000  -0.01262  -0.01280   1.27372
   D17       -1.78350   0.00063   0.00000  -0.03503  -0.03544  -1.81894
   D18       -3.00441  -0.00084   0.00000   0.00213   0.00249  -3.00192
   D19        0.20875   0.00028   0.00000  -0.02029  -0.02015   0.18860
   D20       -0.54893  -0.00025   0.00000  -0.00987  -0.00971  -0.55864
   D21        2.66423   0.00087   0.00000  -0.03228  -0.03235   2.63188
   D22       -3.00734   0.00030   0.00000   0.00256   0.00256  -3.00478
   D23       -0.05220  -0.00002   0.00000  -0.00194  -0.00194  -0.05414
   D24        0.25456   0.00019   0.00000  -0.01374  -0.01374   0.24082
   D25       -3.07348  -0.00014   0.00000  -0.01824  -0.01824  -3.09173
   D26       -0.12543  -0.00006   0.00000   0.00317   0.00316  -0.12227
   D27        3.05296   0.00025   0.00000   0.01909   0.01908   3.07204
   D28        3.03436  -0.00046   0.00000  -0.04640  -0.04639   2.98796
   D29       -0.07044  -0.00015   0.00000  -0.03048  -0.03047  -0.10091
   D30       -0.05924   0.00038   0.00000  -0.01907  -0.01885  -0.07809
   D31       -3.02164   0.00051   0.00000  -0.01656  -0.01635  -3.03799
   D32        3.01606   0.00002   0.00000   0.00372   0.00350   3.01957
   D33        0.05366   0.00016   0.00000   0.00623   0.00601   0.05967
   D34        0.23478  -0.00137   0.00000   0.15014   0.15020   0.38498
   D35       -2.83995  -0.00027   0.00000   0.12897   0.12890  -2.71104
   D36        1.00175  -0.00027   0.00000  -0.09166  -0.09168   0.91007
   D37        3.07477  -0.00096   0.00000  -0.09852  -0.09853   2.97624
   D38       -1.14186  -0.00060   0.00000  -0.09393  -0.09392  -1.23578
         Item               Value     Threshold  Converged?
 Maximum Force            0.011572     0.000450     NO 
 RMS     Force            0.001867     0.000300     NO 
 Maximum Displacement     0.423133     0.001800     NO 
 RMS     Displacement     0.133696     0.001200     NO 
 Predicted change in Energy=-7.664621D-04
 GradGradGradGradGradGradGradGradGradGradGradGradGradGradGradGradGradGrad

                          Input orientation:                          
 ---------------------------------------------------------------------
 Center     Atomic      Atomic             Coordinates (Angstroms)
 Number     Number       Type             X           Y           Z
 ---------------------------------------------------------------------
      1          6           0       -1.582098   -0.755226   -1.304815
      2          6           0       -0.026827   -1.807422   -0.620997
      3          6           0       -0.688598   -0.700318    1.972788
      4          6           0       -2.068149    0.160115   -0.370412
      5          1           0       -1.000154   -0.324734   -2.111920
      6          1           0       -2.202741   -1.600877   -1.590606
      7          1           0       -2.971323   -0.002059    0.206618
      8          6           0        0.841819   -0.975497    0.087626
      9          6           0        0.506963   -0.477705    1.387319
     10          1           0        0.326444   -2.263305   -1.540837
     11          1           0       -0.950513   -0.202628    2.900625
     12          1           0        1.205719    0.239791    1.807173
     13          1           0       -0.636672   -2.463430   -0.011848
     14          1           0       -1.391393   -1.439368    1.609286
     15          8           0        2.018308   -0.523212   -0.378187
     16          6           0        2.201935   -0.495591   -1.779204
     17          1           0        1.369875    0.032578   -2.253083
     18          1           0        3.127981    0.052410   -1.948455
     19          1           0        2.301433   -1.505386   -2.195326
     20          6           0       -1.268711    1.336075   -0.180747
     21          8           0       -0.162234    1.462557   -0.707994
     22          1           0       -1.652730    2.118750    0.501609
 ---------------------------------------------------------------------
                    Distance matrix (angstroms):
                    1          2          3          4          5
     1  C    0.000000
     2  C    1.998397   0.000000
     3  C    3.397651   2.896780   0.000000
     4  C    1.395423   2.846224   2.852033   0.000000
     5  H    1.084159   2.317020   4.113753   2.099653   0.000000
     6  H    1.087197   2.391109   3.975098   2.146644   1.829350
     7  H    2.186695   3.551667   2.969470   1.083968   3.060268
     8  C    2.804066   1.395991   2.443713   3.157108   2.941829
     9  C    3.418886   2.467065   1.349702   3.182395   3.813067
    10  H    2.443878   1.085696   3.977285   3.602352   2.417448
    11  H    4.288355   3.978741   1.084979   3.475684   5.014278
    12  H    4.294933   3.406796   2.121242   3.932740   4.532533
    13  H    2.341699   1.083199   2.655190   3.010097   3.019345
    14  H    2.999400   2.640391   1.082704   2.633543   3.904209
    15  O    3.724969   2.427082   3.589677   4.143203   3.486594
    16  C    3.822481   2.833677   4.740732   4.544037   3.223859
    17  H    3.199061   2.828441   4.757355   3.921826   2.400965
    18  H    4.821970   3.895374   5.523497   5.431537   4.148549
    19  H    4.054326   2.826753   5.192454   5.019706   3.507331
    20  C    2.394844   3.408470   3.020123   1.434557   2.561218
    21  O    2.700143   3.273938   3.484491   2.332987   2.422298
    22  H    3.395276   4.395297   3.322810   2.183861   3.636895
                    6          7          8          9         10
     6  H    0.000000
     7  H    2.525262   0.000000
     8  C    3.532266   3.937232   0.000000
     9  C    4.179958   3.703885   1.431478   0.000000
    10  H    2.614969   4.363725   2.139147   3.434393   0.000000
    11  H    4.867682   3.373659   3.423850   2.118962   5.060000
    12  H    5.152723   4.479726   2.136865   1.085973   4.271743
    13  H    2.385172   3.399510   2.099947   2.684897   1.818091
    14  H    3.305099   2.555291   2.741872   2.139584   3.681455
    15  O    4.522010   5.050743   1.343751   2.324488   2.691112
    16  C    4.545151   5.563242   2.359084   3.591674   2.588261
    17  H    3.983796   4.989721   2.602686   3.775915   2.620519
    18  H    5.592675   6.469066   3.229358   4.275296   3.657499
    19  H    4.545590   5.985923   2.761000   4.136616   2.214357
    20  C    3.389070   2.199895   3.141612   2.983564   4.165321
    21  O    3.785142   3.297362   2.754132   2.933050   3.848959
    22  H    4.302964   2.514665   3.996064   3.491467   5.224091
                   11         12         13         14         15
    11  H    0.000000
    12  H    2.457786   0.000000
    13  H    3.700300   3.743080   0.000000
    14  H    1.841591   3.098988   2.060675   0.000000
    15  O    4.434781   2.453217   3.308711   4.051598   0.000000
    16  C    5.650183   3.794119   3.879901   5.028378   1.413270
    17  H    5.656874   4.068853   3.908890   4.970826   2.060244
    18  H    6.341352   4.223145   4.924685   5.942026   2.007102
    19  H    6.183935   4.501803   3.783898   5.302489   2.084903
    20  C    3.458860   3.358046   3.855417   3.304898   3.781590
    21  O    4.051711   3.113281   4.015357   3.911750   2.967628
    22  H    3.411332   3.661382   4.721482   3.735700   4.607659
                   16         17         18         19         20
    16  C    0.000000
    17  H    1.093549   0.000000
    18  H    1.089272   1.784413   0.000000
    19  H    1.096696   1.799019   1.780689   0.000000
    20  C    4.237387   3.599418   4.909531   4.987820   0.000000
    21  O    3.251328   2.603747   3.788506   4.134066   1.232184
    22  H    5.186071   4.590923   5.755674   6.003601   1.107096
                   21         22
    21  O    0.000000
    22  H    2.028622   0.000000
 Stoichiometry    C8H12O2
 Framework group  C1[X(C8H12O2)]
 Deg. of freedom    60
 Full point group                 C1      NOp   1
 Largest Abelian subgroup         C1      NOp   1
 Largest concise Abelian subgroup C1      NOp   1
                         Standard orientation:                         
 ---------------------------------------------------------------------
 Center     Atomic      Atomic             Coordinates (Angstroms)
 Number     Number       Type             X           Y           Z
 ---------------------------------------------------------------------
      1          6           0       -0.956943   -1.183076    1.238326
      2          6           0        0.464080    0.201135    1.479662
      3          6           0       -1.296152    1.962482   -0.000396
      4          6           0       -1.936689   -0.797882    0.322396
      5          1           0       -0.248816   -1.918532    0.873549
      6          1           0       -1.223780   -1.287702    2.287063
      7          1           0       -2.919394   -0.446584    0.615428
[...]
 348831,-0.08669341,-0.00019878,-0.00002994,-0.00022645,0.00245003,-0.0
 0290081,0.00284845,0.14273172,0.18483444,0.00130529,-0.00085966,0.0001
 9827,0.00314328,-0.00173138,-0.00457255,0.01103301,0.01174118,0.009066
 03,-0.00003327,0.00080583,0.00074615,-0.00012821,0.00003144,-0.0000819
 5,0.00005998,0.00001828,-0.00001940,-0.00015985,0.00009567,-0.00006715
 ,-0.01909543,-0.02052369,-0.00875076,-0.06410568,-0.08248186,-0.096302
 55,-0.00125734,-0.00087207,-0.00071382,-0.00199785,0.00267595,-0.00122
 514,0.06759425,0.09344362,0.09764461,-0.00858148,0.01637992,-0.0078501
 6,-0.11434887,-0.11062953,0.10434773,0.00281346,0.00122850,0.00160300,
 0.00136684,-0.00438796,-0.00478004,-0.00097657,0.00078946,0.00000300,0
 .00060272,0.00045460,-0.00001850,0.00012540,-0.00019953,0.00040449,-0.
 01970336,-0.01657243,0.00672399,-0.00451135,0.00216472,0.00164709,-0.0
 0476870,-0.00515569,0.00318027,-0.00028687,0.00043683,-0.00033772,-0.0
 0004836,0.00009393,0.00023328,0.14393680,0.00713636,-0.01344542,0.0055
 2818,-0.12541084,-0.16079789,0.09376478,-0.00266250,-0.00029253,-0.000
 54643,-0.00082720,0.00343866,0.00389608,0.00050546,-0.00022504,0.00003
 219,-0.00075605,0.00117860,-0.00067449,-0.00008029,0.00014446,-0.00022
 330,-0.00456915,-0.00415308,0.01851018,0.00279785,-0.00091040,-0.00176
 566,0.00820433,0.01034795,-0.00713067,0.00046711,0.00034153,0.00026325
 ,0.00006074,0.00011730,-0.00005355,0.11781078,0.16529578,-0.00270564,0
 .00746958,-0.00328326,0.10754693,0.10014733,-0.14406423,-0.00030257,-0
 .00232670,-0.00130504,0.00039032,-0.00301542,-0.00162885,-0.00064906,0
 .00000817,0.00009550,-0.00017251,-0.00012534,-0.00005553,0.00005780,-0
 .00002217,0.00014812,-0.01174330,-0.01061444,0.01228737,0.00015765,0.0
 0082317,-0.00132172,0.01212176,0.01643027,-0.01075261,0.00002568,-0.00
 013270,0.00018112,0.00000341,0.00026812,0.00020689,-0.10485529,-0.1058
 3002,0.15336222,-0.00105188,0.00116438,0.00045132,0.00135898,-0.000877
 17,0.00115235,-0.16563451,-0.14024318,-0.05297845,-0.00074091,0.002461
 17,-0.00377098,0.00007845,-0.00002665,0.00016096,0.00006378,-0.0001522
 2,0.00002907,-0.00011734,0.00044225,-0.00035661,-0.00115808,0.00039626
 ,-0.00478693,-0.01534201,-0.02090917,-0.00973513,0.00012439,0.00057316
 ,-0.00034315,0.00723243,0.00649746,0.00302798,-0.00126340,-0.00280314,
 0.00494310,0.00040582,0.00099975,0.00124626,0.17626076,0.00229134,-0.0
 0233602,-0.00042039,-0.00098878,0.00165772,-0.00280161,-0.14654402,-0.
 19484064,-0.08118132,0.00088403,-0.00249862,0.00458672,-0.00027028,0.0
 0006218,-0.00022654,-0.00027221,0.00020164,-0.00017336,0.00032609,0.00
 027654,-0.00016124,0.00116110,-0.00258257,0.00385992,0.00062610,0.0004
 3678,-0.00564378,0.00046103,0.00011529,0.00017045,-0.00870630,-0.00532
 478,-0.00326832,-0.00293490,0.00537604,-0.00285782,0.00005886,-0.00016
 386,-0.00130129,0.15249264,0.19886296,-0.00225420,0.00215739,-0.000158
 78,0.00347513,-0.00024106,-0.00000843,-0.05214654,-0.08282592,-0.08189
 405,-0.00162881,0.00275131,-0.00511774,0.00024941,-0.00015769,0.000238
 59,-0.00001692,-0.00016018,-0.00005034,0.00012862,0.00009698,0.0000455
 4,-0.00183705,0.00056775,-0.00432853,0.00416325,0.01036339,0.01261851,
 -0.00025830,0.00020337,0.00013170,-0.01574367,-0.01691118,-0.00404921,
 0.00450027,-0.00303412,0.00155734,0.00157137,-0.00168209,-0.00169524,0
 .06053809,0.08948674,0.08260863,0.01099885,-0.00564448,0.00199896,-0.0
 4398915,-0.02464940,0.00534157,0.01028753,-0.00151066,-0.00100518,-0.0
 0487298,0.01717316,0.00521166,-0.00247466,0.00075183,-0.00181064,0.000
 35928,0.00002154,-0.00103918,-0.00012240,0.00006497,-0.00050325,-0.262
 90354,-0.10359963,0.05411755,-0.02484222,-0.00499356,0.03363523,0.0013
 5823,-0.00062407,0.00146178,-0.00021418,0.00043924,-0.00008834,-0.0005
 9004,0.00123830,-0.00161338,0.00294509,-0.00429305,-0.00254177,-0.0000
 3789,0.00143483,-0.00088551,0.39608389,0.01176501,-0.01209479,-0.00032
 897,-0.04230838,-0.00260411,0.00183728,-0.00022041,0.00068876,-0.00331
 770,-0.00025572,0.01312001,0.00669537,-0.00200336,0.00054829,-0.001272
 45,-0.00057645,0.00119930,-0.00108057,-0.00042735,0.00046697,-0.000635
 50,-0.10152121,-0.09465514,0.00973842,0.00768316,0.00734045,0.00074307
 ,0.00403613,-0.00130755,0.00246010,0.00042507,0.00028297,-0.00027383,0
 .00091781,-0.00063823,0.00099028,-0.00449525,0.00059847,-0.00292826,0.
 00036135,0.00014125,-0.00006572,0.13864537,0.15717963,-0.00507879,0.00
 321952,-0.00237636,-0.00048527,-0.00356067,0.01900932,-0.00683717,-0.0
 0362727,-0.00419270,0.00259683,-0.01107523,-0.00136255,0.00096676,-0.0
 0045784,0.00147508,-0.00008999,-0.00015938,0.00072814,-0.00005190,0.00
 004183,0.00030612,0.08731260,0.02070193,-0.13270742,0.05463937,0.01715
 406,-0.03109968,0.00039049,0.00267016,-0.00192133,0.00178911,-0.000028
 30,-0.00068442,-0.00009940,0.00173631,0.00183476,-0.00191110,-0.002429
 19,-0.00167744,0.00043851,-0.00039049,0.00062175,-0.15648614,0.0136422
 9,0.48544269,-0.00086343,-0.00011485,0.00028829,-0.00059353,-0.0003414
 1,0.00218930,-0.00100975,0.00082524,0.00143204,0.00077142,-0.00153386,
 -0.00012913,0.00017809,0.00000503,-0.00022047,0.00003253,0.00014625,0.
 00005358,-0.00007368,0.00010786,-0.00017719,-0.02174057,0.00057204,0.0
 4399224,-0.00184324,-0.00441468,-0.00097026,-0.00235288,0.00006896,0.0
 0165914,-0.00036834,0.00005422,0.00002605,0.00002350,0.00025674,0.0001
 6920,-0.00004348,0.00115004,0.00090037,0.00011062,-0.00014592,0.000089
 35,-0.08008997,-0.01085283,0.00402394,0.63494119,0.00047917,0.00017447
 ,0.00002691,-0.00157240,-0.00138919,0.00207826,0.00013883,0.00099209,0
 .00007721,-0.00052259,0.00087229,0.00029932,0.00038222,-0.00018775,0.0
 0014278,-0.00009533,-0.00015917,0.00009111,-0.00001709,-0.00002123,0.0
 0004891,-0.00017428,-0.00043532,0.01645733,-0.00300022,0.00119239,-0.0
 0121929,-0.00191727,-0.00141879,0.00146297,-0.00000805,-0.00016787,0.0
 0022361,0.00024830,0.00001341,0.00037824,-0.00010387,-0.00004210,-0.00
 030938,0.00008364,0.00001657,-0.00015842,-0.00823822,-0.07352026,-0.02
 919290,0.02188603,0.60243716,0.00576559,-0.00492174,0.00246288,-0.0125
 2712,-0.00169934,0.00116367,0.00221999,-0.00070653,-0.00047908,-0.0015
 8435,0.00725210,0.00224003,-0.00090693,0.00086697,-0.00145083,-0.00010
 380,0.00037909,-0.00074564,-0.00024006,0.00012174,-0.00058031,0.030008
 53,0.01020200,-0.03058384,-0.00279728,0.00082796,0.00657118,0.00063043
 ,-0.00129557,0.00034645,-0.00022135,0.00023088,0.00005925,-0.00018437,
 0.00008028,-0.00051044,0.00018970,-0.00198273,-0.00102557,-0.00013743,
 0.00026653,-0.00022110,0.03160996,-0.02306262,-0.24580155,0.01487234,-
 0.01406103,0.49762491,-0.00087971,0.00050800,-0.00026373,0.00097134,-0
 .00050472,-0.00058072,0.00014030,0.00003208,0.00000863,-0.00000898,0.0
 0001724,-0.00027742,-0.00109206,-0.00007174,0.00014592,0.00014208,-0.0
 0002146,-0.00009742,0.00018816,-0.00014409,0.00017484,0.00209728,-0.00
 091751,0.00111802,-0.00018418,0.00031560,-0.00001009,0.00006453,-0.000
 49919,0.00056589,0.00000829,-0.00000397,-0.00000556,0.00002319,-0.0000
 4111,0.00002903,-0.00037490,0.00038261,-0.00001448,-0.00000357,-0.0000
 3405,-0.00000574,0.01000980,-0.00478426,0.00552253,-0.21112142,0.08611
 509,-0.10571086,0.21918223,-0.00069706,0.00025982,0.00021273,0.0005786
 8,0.00043317,0.00024874,0.00013672,-0.00006730,0.00000630,0.00008650,-
 0.00069528,-0.00033608,-0.00003483,0.00056917,-0.00006098,0.00000050,0
 .00000714,-0.00003423,-0.00001117,-0.00007073,-0.00004496,0.00092088,0
 .00021324,0.00060794,-0.00023081,-0.00008105,0.00017797,0.00037870,-0.
 00091877,0.00008000,-0.00000495,-0.00001070,-0.00001381,-0.00000892,-0
 .00000599,-0.00003284,0.00001705,-0.00004697,-0.00028176,-0.00002773,-
 0.00001021,0.00000332,-0.00528554,0.00483548,-0.00338791,0.08572666,-0
 .10200714,0.05894270,-0.09217395,0.09996167,-0.00071936,0.00052098,-0.
 00045391,0.00151511,0.00071959,0.00110358,-0.00096339,-0.00003663,0.00
 021208,0.00018901,-0.00172903,-0.00015464,0.00070220,-0.00008854,0.000
 73560,-0.00012171,-0.00005829,0.00015936,-0.00004038,-0.00001817,0.000
 08870,-0.01009696,-0.00261989,0.00317581,0.00145656,-0.00058966,-0.001
 49346,-0.00004310,0.00071733,-0.00036693,-0.00000397,0.00002782,-0.000
 05563,-0.00010983,0.00017478,0.00010138,0.00001365,0.00003361,0.000150
 76,0.00007294,-0.00008057,0.00007952,-0.01605010,0.01405546,-0.0417785
 5,-0.09794738,0.05524002,-0.11358688,0.11292324,-0.06244464,0.13996606
 ,0.00036857,-0.00018756,-0.00007499,-0.00016331,-0.00018107,-0.0001691
 7,0.00004534,0.00009070,0.00010696,-0.00006019,0.00035464,0.00018147,0
 .00021788,-0.00007246,0.00003779,-0.00005248,-0.00001450,0.00003737,-0
 .00001992,0.00003332,0.00001257,0.00239914,0.00100491,-0.00001627,-0.0
 0021700,-0.00031862,0.00016231,-0.00017631,0.00026891,0.00003531,-0.00
 003919,0.00002160,-0.00000163,-0.00001084,0.00000209,0.00000773,0.0000
 6562,-0.00004294,0.00009089,0.00002165,0.00000855,-0.00000157,-0.00507
 898,-0.00177226,0.00590608,-0.25891072,-0.12174897,0.03627793,-0.01789
 290,-0.01322728,0.00337292,0.27362792,0.00012626,-0.00006922,0.0001036
 0,-0.00013297,-0.00029098,-0.00024852,-0.00003928,-0.00001071,0.000006
 27,-0.00001420,0.00012320,-0.00002448,-0.00021386,0.00003203,-0.000039
 17,0.00005412,0.00000958,-0.00003675,0.00001061,-0.00001230,-0.0000012
 5,0.00055169,0.00036553,-0.00133879,0.00009495,0.00024431,-0.00012188,
 0.00015375,0.00012183,0.00049162,0.00004286,-0.00003053,0.00002711,-0.
 00001513,0.00001398,0.00001195,-0.00013230,0.00017018,0.00014074,-0.00
 000018,0.00003034,-0.00001972,0.00541749,0.00362728,-0.00162081,-0.124
 08801,-0.12676798,0.02417925,0.01273455,0.00874309,-0.00304637,0.13286
 538,0.12763364,-0.00027841,0.00021374,-0.00010982,0.00017513,-0.000846
 97,-0.00025966,-0.00033323,-0.00033329,-0.00037190,0.00009662,-0.00059
 743,-0.00008955,0.00026110,-0.00009537,0.00009701,-0.00001343,-0.00004
 278,0.00009494,-0.00001827,0.00001416,0.00002638,-0.00161542,-0.001630
 56,-0.00523960,0.00162444,0.00080482,-0.00051194,-0.00043521,0.0004036
 4,0.00053870,0.00014941,0.00001314,-0.00006061,-0.00003502,-0.00000786
 ,-0.00002087,-0.00007207,0.00026111,0.00028256,0.00000780,-0.00000514,
 0.00004765,0.03981929,0.01967475,-0.02070345,0.02420184,0.01653353,-0.
 05169571,-0.01298489,-0.00989944,0.00469807,-0.04404089,-0.02281863,0.
 07045789,-0.00070446,0.00077610,-0.00037971,-0.00012647,0.00001179,0.0
 0019599,0.00041100,-0.00012863,0.00003129,-0.00004274,-0.00043429,-0.0
 0031127,-0.00002079,0.00001585,0.00015329,-0.00000390,-0.00005941,0.00
 005003,0.00005721,-0.00006763,0.00008462,0.00221775,0.00192717,-0.0003
 8472,-0.00050121,-0.00022990,0.00066871,-0.00242226,-0.00042734,0.0003
 4160,-0.00001928,0.00000840,-0.00002201,-0.00000144,-0.00002352,-0.000
 09487,0.00036400,-0.00026109,-0.00010383,-0.00004524,0.00005168,0.0000
 0567,-0.00090487,0.00552929,0.00515687,-0.05793905,0.02848750,0.005189
 60,-0.00123429,0.02405555,0.00576233,0.00592377,-0.02733737,-0.0065840
 1,0.05503007,-0.00066394,0.00050729,0.00000770,0.00039197,-0.00113823,
 -0.00038913,-0.00009783,0.00008897,0.00010455,0.00033354,-0.00077507,-
 0.00039796,0.00008976,-0.00009333,-0.00001537,0.00009383,-0.00000160,0
 .00004577,0.00002952,0.00000582,0.00002866,-0.00279039,-0.00051350,0.0
 0116787,0.00039092,-0.00008216,-0.00013156,-0.00121959,0.00076644,0.00
 058272,0.00005990,-0.00002933,0.00001858,0.00001075,0.00000825,0.00014
 347,-0.00002645,0.00030758,0.00053074,0.00002680,0.00005594,0.00000363
 ,0.00226939,0.00513316,-0.01112144,0.03070544,-0.29931295,-0.05195050,
 -0.00077178,-0.01159214,-0.00222619,0.00302423,-0.01384826,-0.00205775
 ,-0.03223442,0.32025671,-0.00005981,0.00007546,-0.00007263,0.00100027,
 0.00141751,0.00084131,-0.00074398,0.00027653,-0.00002504,0.00011984,-0
 .00062836,0.00003938,0.00008378,-0.00000206,0.00010201,-0.00002793,-0.
 00003861,0.00006939,-0.00002759,0.00002656,0.00000314,-0.00716326,-0.0
 0433725,0.00350329,0.00090767,0.00054360,-0.00182854,0.00120924,0.0000
 2080,0.00010875,0.00008158,-0.00006817,0.00002715,0.00005152,0.0000277
 0,0.00032486,-0.00018662,0.00012710,-0.00000045,0.00009096,-0.00006786
 ,0.00002142,0.01136859,-0.03579066,-0.02784779,0.00540982,-0.04784117,
 -0.06174912,-0.00042155,0.01587280,0.00664001,-0.00192964,0.00437251,0
 .00260632,-0.00990486,0.06565818,0.07683110,0.04442462,-0.02062002,-0.
 01192590,-0.03094441,0.00251412,-0.01673279,0.01024746,-0.00501146,0.0
 0126531,-0.13041758,-0.04595351,0.02235220,-0.00638795,0.00451509,0.00
 083979,-0.00045862,0.00005941,0.00508201,-0.00892846,-0.01937006,-0.00
 945405,0.01218980,0.03420952,-0.00797089,-0.00833965,0.00608610,0.0108
 6979,0.00078648,-0.00070827,0.00074240,0.00018192,0.00015304,-0.000308
 24,-0.00084505,-0.00021188,-0.00143664,0.00323607,-0.00239058,0.001723
 56,-0.00119983,0.00082079,-0.00057834,-0.01547219,-0.01272017,0.010028
 93,0.00030561,-0.00024166,-0.00561833,-0.00003871,0.00112527,0.0022049
 0,-0.00032024,-0.00006265,0.00053208,0.00052543,0.00021816,0.00058253,
 0.75050306,0.01417787,-0.04593147,-0.02144120,-0.02022989,0.00110550,-
 0.01189935,0.01042970,-0.00603170,0.00391292,-0.08964297,-0.22718185,-
 0.03426514,-0.00159276,0.00008480,0.00075411,-0.00079611,-0.00008364,-
 0.00418365,0.00413889,0.00421547,-0.00099430,0.01370482,0.01804515,-0.
 00772499,-0.00204736,0.00087429,0.01144293,0.00075201,-0.00031203,0.00
 064812,-0.00010045,0.00102404,-0.00123712,-0.00098699,0.00009574,-0.00
 091988,0.00186978,-0.00128601,0.00109562,-0.00067855,0.00084614,-0.000
 71925,-0.01474060,-0.00997293,0.00989473,0.00092752,-0.00065427,-0.005
 83522,0.00020671,0.00107007,0.00190902,-0.00041779,-0.00004197,0.00052
 967,0.00033323,0.00035157,0.00069051,0.10720797,0.55487692,-0.01660812
 ,-0.02006871,-0.00138361,0.00679241,-0.00138500,0.00128887,0.00016461,
 0.00194066,-0.00301298,-0.00406095,-0.06424178,-0.09625349,-0.00201675
 ,-0.00208384,-0.00194552,0.00591094,-0.00530235,-0.00122664,0.00692393
 ,0.01948831,0.00108533,-0.00105148,-0.00822955,-0.00328722,-0.00430822
 ,0.00482266,0.00100348,0.00025050,-0.00018090,0.00010979,-0.00007931,0
 .00041756,-0.00067263,0.00007340,-0.00017346,0.00057546,-0.00050672,0.
 00065669,0.00003110,0.00021985,-0.00033565,-0.00003843,-0.00155886,0.0
 0235345,0.00000699,0.00068014,-0.00054155,-0.00031327,0.00003191,-0.00
 028067,-0.00026526,-0.00001116,0.00003754,-0.00002117,-0.00019675,0.00
 019798,0.00007765,-0.27911699,0.14533307,0.44614525,-0.02596667,0.0222
 0959,0.00876517,0.02075511,-0.00030263,0.01098436,-0.00901793,0.002999
 94,-0.00144875,-0.04798325,-0.07186606,0.00106603,0.00195955,-0.002543
 25,-0.00070845,0.00074299,0.00065350,0.00015451,0.00018552,-0.00511841
 ,0.00177924,-0.01294880,-0.02297086,0.00607153,0.00318371,-0.00050560,
 -0.00955609,-0.00061519,0.00037504,-0.00051995,-0.00010878,-0.00014676
 ,0.00018696,0.00081667,0.00004666,0.00138199,-0.00223638,0.00171581,-0
 .00116454,0.00098292,-0.00076212,0.00072677,0.01037386,0.01226300,-0.0
 0787708,0.00043455,-0.00009951,0.00348948,-0.00012054,-0.00112613,-0.0
 0190328,0.00030945,-0.00002998,-0.00044859,-0.00051730,0.00011055,-0.0
 0045016,-0.53919267,-0.07021303,0.24419292,0.62427401,-0.00103915,-0.0
 0427258,0.00105080,-0.00333137,0.00064394,-0.00071857,-0.00021564,-0.0
 0032302,0.00000212,-0.04400787,-0.00392754,0.01634422,-0.00111277,-0.0
 0102700,0.00084802,-0.00117756,0.00021099,0.00200490,-0.00483619,-0.00
 501699,-0.00276750,-0.00402495,0.00445092,-0.00053860,-0.00200779,-0.0
 0234590,0.00210357,0.00002984,-0.00014247,-0.00000084,-0.00000227,-0.0
 0022240,0.00025708,0.00027140,-0.00003492,-0.00001463,0.00040668,-0.00
 051602,-0.00000638,0.00015974,-0.00026347,0.00026918,0.00477806,-0.000
 38125,-0.00151695,-0.00086793,0.00031956,0.00179361,-0.00024569,-0.000
 62299,-0.00045071,0.00026904,-0.00003362,-0.00010467,0.00000440,-0.000
 07634,-0.00027715,-0.09200927,-0.11278001,0.02613651,0.12958532,0.1071
 1013,0.00507947,-0.00967528,-0.00749801,-0.00884096,0.00181947,-0.0033
 4337,0.00121887,0.00173394,0.00015101,0.01007217,0.02201957,0.02188485
 ,-0.00196936,0.00085332,0.00206992,-0.00174760,-0.00017111,0.00121964,
 0.00072904,-0.00306490,0.00274220,0.00325417,0.00794958,-0.00276356,0.
 00204842,0.00148835,-0.00180934,-0.00001251,0.00015075,0.00022454,0.00
 000037,0.00007311,0.00012051,0.00010759,-0.00006580,0.00001438,0.00064
 941,-0.00078324,0.00011850,-0.00028260,0.00047629,-0.00038679,-0.00100
 754,-0.00371685,0.00289396,-0.00015474,0.00009206,-0.00180217,-0.00021
 646,0.00070091,0.00093455,-0.00002272,-0.00007026,0.00023641,0.0003090
 7,-0.00010638,0.00031056,0.23587014,0.01645966,-0.19707206,-0.28158756
 ,-0.03490416,0.18808905,0.00033676,-0.00389887,0.00034490,-0.00002132,
 -0.00023948,-0.00035585,-0.00027048,0.00062259,0.00003522,0.01221509,-
 0.01041134,-0.00552568,-0.00009900,-0.00004036,-0.00024732,-0.00003930
 ,-0.00034586,-0.00090731,-0.00031243,0.00146618,0.00002341,0.00034985,
 -0.00116001,0.00106067,0.00067971,-0.00001482,-0.00045388,0.00006604,-
 0.00006886,0.00003532,0.00004032,0.00002207,-0.00006928,-0.00009023,0.
 00000642,0.00002238,0.00001849,0.00006285,-0.00001165,-0.00004512,0.00
 004152,-0.00009127,-0.00082346,0.00031144,0.00014482,0.00015253,-0.000
 08132,-0.00022167,0.00012409,-0.00019815,-0.00021337,-0.00003724,0.000
 01427,-0.00000830,-0.00004591,0.00004964,0.00000961,-0.07985508,0.0476
 9799,0.04427468,-0.02531080,0.01937398,0.03650331,0.09296750,-0.004778
 76,-0.00450539,-0.00122821,-0.00096929,0.00071881,0.00005037,-0.000829
 33,0.00021375,-0.00037103,0.01000180,-0.01093322,-0.02111215,0.0000467
 2,0.00036209,0.00016286,0.00099715,-0.00101472,-0.00103633,-0.00029200
 ,-0.00001151,0.00078285,-0.00064965,0.00094232,0.00025653,0.00020567,0
 .00014764,-0.00057088,-0.00010303,0.00008081,-0.00001214,0.00007163,-0
 .00017336,0.00031534,0.00012590,-0.00001873,0.00001149,-0.00000812,-0.
 00006120,-0.00001986,0.00005939,-0.00005922,0.00007230,0.00134503,0.00
 001222,-0.00049247,-0.00007255,0.00006608,0.00037215,-0.00009835,0.000
 03644,-0.00000992,0.00004008,-0.00000941,-0.00000866,0.00000263,-0.000
 01881,-0.00005796,0.04239006,-0.17831380,-0.09856098,0.00572493,0.0192
 5097,-0.00125902,-0.05320989,0.17328825,0.00034506,-0.00112630,0.00329
 171,0.00122502,-0.00069026,0.00049749,-0.00048345,0.00033526,0.0002610
 3,0.00623833,-0.00740025,0.00394408,0.00067108,0.00071969,0.00032605,-
 0.00036581,0.00013061,-0.00018382,-0.00115264,-0.00060405,-0.00079024,
 -0.00035485,-0.00100087,0.00006320,0.00033349,-0.00025813,-0.00054390,
 0.00007985,-0.00004571,0.00001904,0.00009096,-0.00022710,0.00025037,0.
 00006691,-0.00002592,-0.00000549,-0.00004876,0.00002822,-0.00005419,0.
 00001206,0.00006872,-0.00002202,0.00002531,0.00028264,-0.00016554,-0.0
 0038845,0.00017148,0.00007715,0.00006891,-0.00003611,0.00010978,0.0000
 3871,0.00001605,-0.00000167,0.00003296,-0.00009357,0.00001721,0.041048
 53,-0.10345028,-0.14483164,0.02686550,-0.00950986,-0.00633478,-0.07434
 873,0.12271572,0.14407619\\-0.00000715,-0.00000165,-0.00000542,0.00001
 265,0.00001780,-0.00000812,0.00000295,0.00000216,0.00000022,-0.0000009
 6,0.00000234,-0.00000529,0.00000097,0.00000152,-0.00000021,0.00000369,
 -0.00000274,-0.00000100,-0.00000077,-0.00000128,-0.00000279,0.00000435
 ,-0.00000414,0.00000099,-0.00000087,-0.00000549,0.00000704,0.00000771,
 -0.00000817,-0.00000206,-0.00000239,-0.00000051,-0.00000030,-0.0000014
 6,0.00000095,0.00000101,0.00000250,0.00000128,0.00000097,-0.00000274,0
 .00000181,-0.00000231,-0.00000957,0.00000854,0.00000504,-0.00000406,-0
 .00000404,0.00000620,0.00000120,-0.00000128,0.00000105,0.00000018,0.00
 000231,0.00000208,-0.00000243,-0.00000304,0.00000324,-0.00000257,-0.00
 000427,0.00000135,0.00000111,-0.00000202,0.00000101,-0.00000234,-0.000
 00006,-0.00000266\\\@
 The archive entry for this job was punched.


 NEVER LOSE YOUR IGNORANCE, IT CAN'T BE REPLACED.
   -- ANDY CAPP
 Job cpu time:       0 days  0 hours 25 minutes  7.5 seconds.
 Elapsed time:       0 days  0 hours  1 minutes 39.5 seconds.
 File lengths (MBytes):  RWF=     84 Int=      0 D2E=      0 Chk=      5 Scr=      1
 Normal termination of Gaussian 16 at Tue Jun 21 10:22:19 2022.
