Job Start Time: Tue Jun 21 10:17:14 MDT 2022
SLURM Job ID: 40866
SLURM Job Name: DATS_14_exo_iii
 Entering Gaussian System, Link 0=/opt/apps/Gaussian/G16C/g16/g16
 Initial command:
 /opt/apps/Gaussian/G16C/g16/l1.exe "/tmp/Gau-2309020.inp" -scrdir="/tmp/"
 Entering Link 1 = /opt/apps/Gaussian/G16C/g16/l1.exe PID=   2309021.
  
 Copyright (c) 1988-2019, Gaussian, Inc.  All Rights Reserved.
  
 This is part of the Gaussian(R) 16 program.  It is based on
 the Gaussian(R) 09 system (copyright 2009, Gaussian, Inc.),
 the Gaussian(R) 03 system (copyright 2003, Gaussian, Inc.),
 the Gaussian(R) 98 system (copyright 1998, Gaussian, Inc.),
 the Gaussian(R) 94 system (copyright 1995, Gaussian, Inc.),
 the Gaussian 92(TM) system (copyright 1992, Gaussian, Inc.),
 the Gaussian 90(TM) system (copyright 1990, Gaussian, Inc.),
 the Gaussian 88(TM) system (copyright 1988, Gaussian, Inc.),
 the Gaussian 86(TM) system (copyright 1986, Carnegie Mellon
 University), and the Gaussian 82(TM) system (copyright 1983,
 Carnegie Mellon University). Gaussian is a federally registered
 trademark of Gaussian, Inc.
  
 This software contains proprietary and confidential information,
 including trade secrets, belonging to Gaussian, Inc.
  
 This software is provided under written license and may be
 used, copied, transmitted, or stored only in accord with that
 written license.
  
 The following legend is applicable only to US Government
 contracts under FAR:
  
                    RESTRICTED RIGHTS LEGEND
  
 Use, reproduction and disclosure by the US Government is
 subject to restrictions as set forth in subparagraphs (a)
 and (c) of the Commercial Computer Software - Restricted
 Rights clause in FAR 52.227-19.
  
 Gaussian, Inc.
 340 Quinnipiac St., Bldg. 40, Wallingford CT 06492
  
  
 ---------------------------------------------------------------
 Warning -- This program may not be used in any manner that
 competes with the business of Gaussian, Inc. or will provide
 assistance to any competitor of Gaussian, Inc.  The licensee
 of this program is prohibited from giving any competitor of
 Gaussian, Inc. access to this program.  By using this program,
 the user acknowledges that Gaussian, Inc. is engaged in the
 business of creating and licensing software in the field of
 computational chemistry and represents and warrants to the
 licensee that it is not a competitor of Gaussian, Inc. and that
 it will not use this program in any manner prohibited above.
 ---------------------------------------------------------------
  

 Cite this work as:
 Gaussian 16, Revision C.01,
 M. J. Frisch, G. W. Trucks, H. B. Schlegel, G. E. Scuseria, 
 M. A. Robb, J. R. Cheeseman, G. Scalmani, V. Barone, 
 G. A. Petersson, H. Nakatsuji, X. Li, M. Caricato, A. V. Marenich, 
 J. Bloino, B. G. Janesko, R. Gomperts, B. Mennucci, H. P. Hratchian, 
 J. V. Ortiz, A. F. Izmaylov, J. L. Sonnenberg, D. Williams-Young, 
 F. Ding, F. Lipparini, F. Egidi, J. Goings, B. Peng, A. Petrone, 
 T. Henderson, D. Ranasinghe, V. G. Zakrzewski, J. Gao, N. Rega, 
 G. Zheng, W. Liang, M. Hada, M. Ehara, K. Toyota, R. Fukuda, 
 J. Hasegawa, M. Ishida, T. Nakajima, Y. Honda, O. Kitao, H. Nakai, 
 T. Vreven, K. Throssell, J. A. Montgomery, Jr., J. E. Peralta, 
 F. Ogliaro, M. J. Bearpark, J. J. Heyd, E. N. Brothers, K. N. Kudin, 
 V. N. Staroverov, T. A. Keith, R. Kobayashi, J. Normand, 
 K. Raghavachari, A. P. Rendell, J. C. Burant, S. S. Iyengar, 
 J. Tomasi, M. Cossi, J. M. Millam, M. Klene, C. Adamo, R. Cammi, 
 J. W. Ochterski, R. L. Martin, K. Morokuma, O. Farkas, 
 J. B. Foresman, and D. J. Fox, Gaussian, Inc., Wallingford CT, 2019.
 
 ******************************************
 Gaussian 16:  AS64L-G16RevC.01  3-Jul-2019
                21-Jun-2022 
 ******************************************
 %nprocshared=16
 Will use up to   16 processors via shared memory.
 -------------------------------------------------
 # opt=(calcfc,ts,noeigentest) freq 6-31g(d) m062x
 -------------------------------------------------
 1/5=1,10=4,11=1,18=20,26=3,38=1/1,3;
 2/9=110,12=2,17=6,18=5,40=1/2;
 3/5=1,6=6,7=1,11=2,25=1,30=1,71=2,74=-55,140=1/1,2,3;
 4//1;
 5/5=2,38=5/2;
 8/6=4,10=90,11=11/1;
 11/6=1,8=1,9=11,15=111,16=1/1,2,10;
 10/6=1,13=1/2;
 6/7=2,8=2,9=2,10=2,28=1/1;
 7/10=1,25=1/1,2,3,16;
 1/5=1,10=4,11=1,18=20,26=3/3(2);
 2/9=110/2;
 99//99;
 2/9=110/2;
 3/5=1,6=6,7=1,11=2,25=1,30=1,71=1,74=-55/1,2,3;
 4/5=5,16=3,69=1/1;
 5/5=2,38=5/2;
 7//1,2,3,16;
 1/5=1,11=1,18=20,26=3/3(-5);
 2/9=110/2;
 6/7=2,8=2,9=2,10=2,19=2,28=1/1;
 99/9=1/99;
 -------------------
 Title Card Required
 -------------------
 Symbolic Z-matrix:
 Charge =  0 Multiplicity = 1
 C                    -1.46442  -0.56807  -1.32635 
 C                     0.09333  -1.72764  -0.63331 
 C                    -0.6618   -0.69789   1.96113 
 C                    -2.10543   0.14941  -0.32654 
 H                    -0.79352  -0.00613  -1.97025 
 H                    -1.97319  -1.40925  -1.78957 
 H                    -1.73485   1.10165   0.038 
 C                     0.87261  -0.81866   0.0633 
 C                     0.5031   -0.35359   1.37092 
 H                     0.48015  -2.07894  -1.58449 
 H                    -0.94845  -0.2551    2.90938 
 H                     1.11468   0.41255   1.83475 
 H                    -0.51082  -2.43206  -0.07673 
 H                    -1.30902  -1.4761    1.57811 
 O                     1.91672  -0.30717  -0.61036 
 C                     2.5086    0.90066  -0.1528 
 H                     3.06613   0.73688   0.77628 
 H                     3.20547   1.19806  -0.9361 
 H                     1.74024   1.66695  -0.01562 
 C                    -3.28822  -0.42828   0.25371 
 O                    -3.93686   0.11772   1.14571 
 H                    -3.59914  -1.42145  -0.12703 
 
 Add virtual bond connecting atoms C2         and C1         Dist= 3.90D+00.

 GradGradGradGradGradGradGradGradGradGradGradGradGradGradGradGradGradGrad
 Berny optimization.
 Initialization pass.
                           ----------------------------
                           !    Initial Parameters    !
                           ! (Angstroms and Degrees)  !
 --------------------------                            --------------------------
 ! Name  Definition              Value          Derivative Info.                !
 --------------------------------------------------------------------------------
 ! R1    R(1,2)                  2.0619         calculate D2E/DX2 analytically  !
 ! R2    R(1,4)                  1.3876         calculate D2E/DX2 analytically  !
 ! R3    R(1,5)                  1.0865         calculate D2E/DX2 analytically  !
 ! R4    R(1,6)                  1.0867         calculate D2E/DX2 analytically  !
 ! R5    R(2,8)                  1.3852         calculate D2E/DX2 analytically  !
 ! R6    R(2,10)                 1.0853         calculate D2E/DX2 analytically  !
 ! R7    R(2,13)                 1.0821         calculate D2E/DX2 analytically  !
 ! R8    R(3,9)                  1.3505         calculate D2E/DX2 analytically  !
 ! R9    R(3,11)                 1.0851         calculate D2E/DX2 analytically  !
 ! R10   R(3,14)                 1.0822         calculate D2E/DX2 analytically  !
 ! R11   R(4,7)                  1.0849         calculate D2E/DX2 analytically  !
 ! R12   R(4,20)                 1.4385         calculate D2E/DX2 analytically  !
 ! R13   R(8,9)                  1.4362         calculate D2E/DX2 analytically  !
 ! R14   R(8,15)                 1.3437         calculate D2E/DX2 analytically  !
 ! R15   R(9,12)                 1.0845         calculate D2E/DX2 analytically  !
 ! R16   R(15,16)                1.4208         calculate D2E/DX2 analytically  !
 ! R17   R(16,17)                1.0958         calculate D2E/DX2 analytically  !
 ! R18   R(16,18)                1.0898         calculate D2E/DX2 analytically  !
 ! R19   R(16,19)                1.0938         calculate D2E/DX2 analytically  !
 ! R20   R(20,21)                1.2306         calculate D2E/DX2 analytically  !
 ! R21   R(20,22)                1.1082         calculate D2E/DX2 analytically  !
 ! A1    A(2,1,4)              113.4295         calculate D2E/DX2 analytically  !
 ! A2    A(2,1,5)               91.3497         calculate D2E/DX2 analytically  !
 ! A3    A(2,1,6)               93.5351         calculate D2E/DX2 analytically  !
 ! A4    A(4,1,5)              116.4141         calculate D2E/DX2 analytically  !
 ! A5    A(4,1,6)              119.4123         calculate D2E/DX2 analytically  !
 ! A6    A(5,1,6)              115.9008         calculate D2E/DX2 analytically  !
 ! A7    A(1,2,8)              103.0036         calculate D2E/DX2 analytically  !
 ! A8    A(1,2,10)              99.0173         calculate D2E/DX2 analytically  !
 ! A9    A(1,2,13)              96.7289         calculate D2E/DX2 analytically  !
 ! A10   A(8,2,10)             116.9147         calculate D2E/DX2 analytically  !
 ! A11   A(8,2,13)             118.8543         calculate D2E/DX2 analytically  !
 ! A12   A(10,2,13)            116.0454         calculate D2E/DX2 analytically  !
 ! A13   A(9,3,11)             120.3807         calculate D2E/DX2 analytically  !
 ! A14   A(9,3,14)             122.9906         calculate D2E/DX2 analytically  !
 ! A15   A(11,3,14)            116.4069         calculate D2E/DX2 analytically  !
 ! A16   A(1,4,7)              122.5587         calculate D2E/DX2 analytically  !
 ! A17   A(1,4,20)             117.5707         calculate D2E/DX2 analytically  !
 ! A18   A(7,4,20)             119.8549         calculate D2E/DX2 analytically  !
 ! A19   A(2,8,9)              121.7106         calculate D2E/DX2 analytically  !
 ! A20   A(2,8,15)             115.7722         calculate D2E/DX2 analytically  !
 ! A21   A(9,8,15)             122.2151         calculate D2E/DX2 analytically  !
 ! A22   A(3,9,8)              122.4973         calculate D2E/DX2 analytically  !
 ! A23   A(3,9,12)             118.6603         calculate D2E/DX2 analytically  !
 ! A24   A(8,9,12)             118.2339         calculate D2E/DX2 analytically  !
 ! A25   A(8,15,16)            119.0684         calculate D2E/DX2 analytically  !
 ! A26   A(15,16,17)           110.9735         calculate D2E/DX2 analytically  !
 ! A27   A(15,16,18)           105.4809         calculate D2E/DX2 analytically  !
 ! A28   A(15,16,19)           110.0796         calculate D2E/DX2 analytically  !
 ! A29   A(17,16,18)           108.9558         calculate D2E/DX2 analytically  !
 ! A30   A(17,16,19)           110.8408         calculate D2E/DX2 analytically  !
 ! A31   A(18,16,19)           110.375          calculate D2E/DX2 analytically  !
 ! A32   A(4,20,21)            123.1996         calculate D2E/DX2 analytically  !
 ! A33   A(4,20,22)            116.8726         calculate D2E/DX2 analytically  !
 ! A34   A(21,20,22)           119.9195         calculate D2E/DX2 analytically  !
 ! D1    D(4,1,2,8)            -53.5423         calculate D2E/DX2 analytically  !
 ! D2    D(4,1,2,10)          -174.0091         calculate D2E/DX2 analytically  !
 ! D3    D(4,1,2,13)            68.191          calculate D2E/DX2 analytically  !
 ! D4    D(5,1,2,8)             66.139          calculate D2E/DX2 analytically  !
 ! D5    D(5,1,2,10)           -54.3278         calculate D2E/DX2 analytically  !
 ! D6    D(5,1,2,13)          -172.1277         calculate D2E/DX2 analytically  !
 ! D7    D(6,1,2,8)           -177.8066         calculate D2E/DX2 analytically  !
 ! D8    D(6,1,2,10)            61.7266         calculate D2E/DX2 analytically  !
 ! D9    D(6,1,2,13)           -56.0733         calculate D2E/DX2 analytically  !
 ! D10   D(2,1,4,7)             83.2147         calculate D2E/DX2 analytically  !
 ! D11   D(2,1,4,20)           -95.3419         calculate D2E/DX2 analytically  !
 ! D12   D(5,1,4,7)            -20.9029         calculate D2E/DX2 analytically  !
 ! D13   D(5,1,4,20)           160.5405         calculate D2E/DX2 analytically  !
 ! D14   D(6,1,4,7)           -168.0348         calculate D2E/DX2 analytically  !
 ! D15   D(6,1,4,20)            13.4086         calculate D2E/DX2 analytically  !
 ! D16   D(1,2,8,9)             76.8388         calculate D2E/DX2 analytically  !
 ! D17   D(1,2,8,15)           -96.9793         calculate D2E/DX2 analytically  !
 ! D18   D(10,2,8,9)          -175.8457         calculate D2E/DX2 analytically  !
 ! D19   D(10,2,8,15)           10.3362         calculate D2E/DX2 analytically  !
 ! D20   D(13,2,8,9)           -28.501          calculate D2E/DX2 analytically  !
 ! D21   D(13,2,8,15)          157.6809         calculate D2E/DX2 analytically  !
 ! D22   D(11,3,9,8)          -174.3303         calculate D2E/DX2 analytically  !
 ! D23   D(11,3,9,12)           -3.4377         calculate D2E/DX2 analytically  !
 ! D24   D(14,3,9,8)            11.2779         calculate D2E/DX2 analytically  !
 ! D25   D(14,3,9,12)         -177.8294         calculate D2E/DX2 analytically  !
 ! D26   D(1,4,20,21)          180.0            calculate D2E/DX2 analytically  !
 ! D27   D(1,4,20,22)            1.0468         calculate D2E/DX2 analytically  !
 ! D28   D(7,4,20,21)            1.4027         calculate D2E/DX2 analytically  !
 ! D29   D(7,4,20,22)         -177.5505         calculate D2E/DX2 analytically  !
 ! D30   D(2,8,9,3)             -4.6293         calculate D2E/DX2 analytically  !
 ! D31   D(2,8,9,12)          -175.5589         calculate D2E/DX2 analytically  !
 ! D32   D(15,8,9,3)           168.7891         calculate D2E/DX2 analytically  !
 ! D33   D(15,8,9,12)           -2.1406         calculate D2E/DX2 analytically  !
 ! D34   D(2,8,15,16)          160.7172         calculate D2E/DX2 analytically  !
 ! D35   D(9,8,15,16)          -13.0667         calculate D2E/DX2 analytically  !
 ! D36   D(8,15,16,17)          71.3844         calculate D2E/DX2 analytically  !
 ! D37   D(8,15,16,18)        -170.7659         calculate D2E/DX2 analytically  !
 ! D38   D(8,15,16,19)         -51.6949         calculate D2E/DX2 analytically  !
 --------------------------------------------------------------------------------
 Trust Radius=3.00D-01 FncErr=1.00D-07 GrdErr=1.00D-06 EigMax=2.50D+02 EigMin=1.00D-04
 Number of steps in this run=    103 maximum allowed number of steps=    132.
 Search for a saddle point of order  1.
 GradGradGradGradGradGradGradGradGradGradGradGradGradGradGradGradGradGrad

                          Input orientation:                          
 ---------------------------------------------------------------------
 Center     Atomic      Atomic             Coordinates (Angstroms)
 Number     Number       Type             X           Y           Z
 ---------------------------------------------------------------------
      1          6           0       -1.464415   -0.568069   -1.326353
      2          6           0        0.093334   -1.727641   -0.633314
      3          6           0       -0.661802   -0.697890    1.961129
      4          6           0       -2.105435    0.149406   -0.326537
      5          1           0       -0.793518   -0.006127   -1.970248
      6          1           0       -1.973191   -1.409247   -1.789571
      7          1           0       -1.734847    1.101654    0.037995
      8          6           0        0.872608   -0.818663    0.063303
      9          6           0        0.503101   -0.353587    1.370921
     10          1           0        0.480154   -2.078938   -1.584489
     11          1           0       -0.948452   -0.255096    2.909377
     12          1           0        1.114683    0.412547    1.834752
     13          1           0       -0.510818   -2.432057   -0.076729
     14          1           0       -1.309017   -1.476100    1.578107
     15          8           0        1.916719   -0.307165   -0.610363
     16          6           0        2.508600    0.900663   -0.152804
     17          1           0        3.066130    0.736876    0.776283
     18          1           0        3.205472    1.198063   -0.936099
     19          1           0        1.740240    1.666946   -0.015622
     20          6           0       -3.288222   -0.428280    0.253714
     21          8           0       -3.936858    0.117720    1.145705
     22          1           0       -3.599144   -1.421451   -0.127033
 ---------------------------------------------------------------------
                    Distance matrix (angstroms):
                    1          2          3          4          5
     1  C    0.000000
     2  C    2.061915   0.000000
     3  C    3.386529   2.891669   0.000000
     4  C    1.387555   2.907233   2.834679   0.000000
     5  H    1.086500   2.353191   3.993947   2.108815   0.000000
     6  H    1.086740   2.389316   4.036523   2.141811   1.842015
     7  H    2.173144   3.434795   2.843981   1.084895   2.479178
     8  C    2.730498   1.385202   2.443511   3.155610   2.751640
     9  C    3.345506   2.464324   1.350514   3.152590   3.600744
    10  H    2.476027   1.085253   3.972753   3.637751   2.463249
    11  H    4.278502   3.975471   1.085085   3.460256   4.888428
    12  H    4.195943   3.422705   2.098795   3.887103   4.277212
    13  H    2.438311   1.082122   2.680111   3.044529   3.090383
    14  H    3.047057   2.630636   1.082222   2.627588   3.875227
    15  O    3.465946   2.311496   3.662514   4.057923   3.047178
    16  C    4.395366   3.601719   4.132255   4.678022   3.876771
    17  H    5.162344   4.110757   4.166520   5.320378   4.795036
    18  H    5.007930   4.282152   5.190797   5.447658   4.302494
    19  H    4.121058   3.823227   3.907659   4.145939   3.611048
    20  C    2.417111   3.729622   3.144207   1.438540   3.368645
    21  O    3.562914   4.776266   3.472194   2.350024   4.427764
    22  H    2.593009   3.739581   3.675859   2.176823   3.643092
                    6          7          8          9         10
     6  H    0.000000
     7  H    3.114712   0.000000
     8  C    3.446811   3.238377   0.000000
     9  C    4.151524   2.983761   1.436209   0.000000
    10  H    2.551362   4.201768   2.111287   3.422252   0.000000
    11  H    4.945934   3.271700   3.425493   2.117440   5.055902
    12  H    5.098001   3.438463   2.170832   1.084497   4.278006
    13  H    2.473561   3.741460   2.129910   2.728325   1.838494
    14  H    3.433198   3.032836   2.736118   2.141666   3.683281
    15  O    4.211474   3.967251   1.343735   2.434329   2.480286
    16  C    5.301051   4.252487   2.383119   2.813700   3.878445
    17  H    6.048488   4.871090   2.782010   2.848126   4.493253
    18  H    5.860463   5.036359   3.241642   3.877211   4.311207
    19  H    5.138037   3.521173   2.633869   2.745099   4.252153
    20  C    2.620423   2.190938   4.183439   3.953209   4.506032
    21  O    3.847527   2.654054   5.017905   4.470580   5.638197
    22  H    2.325490   3.141479   4.516209   4.495844   4.381454
                   11         12         13         14         15
    11  H    0.000000
    12  H    2.420143   0.000000
    13  H    3.721224   3.793123   0.000000
    14  H    1.842047   3.083371   2.071101   0.000000
    15  O    4.538776   2.672047   3.269995   4.069543   0.000000
    16  C    4.760666   2.476215   4.497743   4.818636   1.420750
    17  H    4.653060   2.243589   4.854310   4.968108   2.081815
    18  H    5.844180   3.558939   5.265653   5.818332   2.008158
    19  H    4.413494   2.321362   4.676839   4.660116   2.069294
    20  C    3.543594   4.753130   3.440681   2.601768   5.277567
    21  O    3.490000   5.106836   4.442236   3.103672   6.126065
    22  H    4.195990   5.425155   3.249863   2.855726   5.648007
                   16         17         18         19         20
    16  C    0.000000
    17  H    1.095841   0.000000
    18  H    1.089784   1.778865   0.000000
    19  H    1.093794   1.802811   1.792773   0.000000
    20  C    5.961082   6.481393   6.799170   5.454168   0.000000
    21  O    6.621409   7.040005   7.517575   5.998185   1.230647
    22  H    6.534325   7.064009   7.336159   6.169248   1.108164
                   21         22
    21  O    0.000000
    22  H    2.025577   0.000000
 Stoichiometry    C8H12O2
 Framework group  C1[X(C8H12O2)]
 Deg. of freedom    60
 Full point group                 C1      NOp   1
 Largest Abelian subgroup         C1      NOp   1
 Largest concise Abelian subgroup C1      NOp   1
                         Standard orientation:                         
 ---------------------------------------------------------------------
 Center     Atomic      Atomic             Coordinates (Angstroms)
 Number     Number       Type             X           Y           Z
 ---------------------------------------------------------------------
      1          6           0       -0.767416   -1.585475   -0.259034
      2          6           0        0.621240   -1.060922    1.172040
      3          6           0       -0.401834    1.615700    0.783754
      4          6           0       -1.490320   -0.506713   -0.747900
      5          1           0        0.010919   -1.979165   -0.906866
      6          1           0       -1.258763   -2.308740    0.386311
      7          1           0       -1.116928    0.136575   -1.537681
      8          6           0        1.354261   -0.066573    0.545355
      9          6           0        0.846588    1.269302    0.402517
     10          1           0        1.106675   -2.023241    1.298802
     11          1           0       -0.782594    2.610525    0.576986
     12          1           0        1.435455    1.984367   -0.161442
     13          1           0       -0.087767   -0.781535    1.940311
     14          1           0       -1.037028    0.970916    1.377037
     15          8           0        2.503136   -0.461510   -0.028870
     16          6           0        3.097992    0.363113   -1.021177
     17          1           0        3.521651    1.270005   -0.575163
     18          1           0        3.905147   -0.231740   -1.448120
     19          1           0        2.362429    0.614899   -1.790551
     20          6           0       -2.768218   -0.233997   -0.146235
     21          8           0       -3.494413    0.694978   -0.498570
     22          1           0       -3.082739   -0.897212    0.683977
 ---------------------------------------------------------------------
 Rotational constants (GHZ):           2.4061669           0.7269200           0.6611620
 Standard basis: 6-31G(d) (6D, 7F)
 There are   174 symmetry adapted cartesian basis functions of A   symmetry.
 There are   174 symmetry adapted basis functions of A   symmetry.
   174 basis functions,   328 primitive gaussians,   174 cartesian basis functions
    38 alpha electrons       38 beta electrons
       nuclear repulsion energy       519.0798108414 Hartrees.
 NAtoms=   22 NActive=   22 NUniq=   22 SFac= 1.00D+00 NAtFMM=   60 NAOKFM=F Big=F
 Integral buffers will be    131072 words long.
 Raffenetti 2 integral format.
 Two-electron integral symmetry is turned on.
 One-electron integrals computed using PRISM.
 NBasis=   174 RedAO= T EigKep=  2.05D-03  NBF=   174
 NBsUse=   174 1.00D-06 EigRej= -1.00D+00 NBFU=   174
 ExpMin= 1.61D-01 ExpMax= 5.48D+03 ExpMxC= 8.25D+02 IAcc=3 IRadAn=         5 AccDes= 0.00D+00
 Harris functional with IExCor= 1009 and IRadAn=       5 diagonalized for initial guess.
 HarFok:  IExCor= 1009 AccDes= 0.00D+00 IRadAn=         5 IDoV= 1 UseB2=F ITyADJ=14
 ICtDFT=  3500011 ScaDFX=  1.000000  1.000000  1.000000  1.000000
 FoFCou: FMM=F IPFlag=           0 FMFlag=      100000 FMFlg1=           0
         NFxFlg=           0 DoJE=T BraDBF=F KetDBF=T FulRan=T
         wScrn=  0.000000 ICntrl=       500 IOpCl=  0 I1Cent=   200000004 NGrid=           0
         NMat0=    1 NMatS0=      1 NMatT0=    0 NMatD0=    1 NMtDS0=    0 NMtDT0=    0
 Petite list used in FoFCou.
 Requested convergence on RMS density matrix=1.00D-08 within 128 cycles.
 Requested convergence on MAX density matrix=1.00D-06.
 Requested convergence on             energy=1.00D-06.
 No special actions if energy rises.
 Integral accuracy reduced to 1.0D-05 until final iterations.
 Initial convergence to 1.0D-05 achieved.  Increase integral accuracy.
 SCF Done:  E(RM062X) =  -462.172375308     A.U. after   16 cycles
            NFock= 16  Conv=0.94D-08     -V/T= 2.0084
 DoSCS=F DFT=T ScalE2(SS,OS)=  1.000000  1.000000
 Range of M.O.s used for correlation:     1   174
 NBasis=   174 NAE=    38 NBE=    38 NFC=     0 NFV=     0
 NROrb=    174 NOA=    38 NOB=    38 NVA=   136 NVB=   136
 Symmetrizing basis deriv contribution to polar:
 IMax=3 JMax=2 DiffMx= 0.00D+00
 G2DrvN: will do    23 centers at a time, making    1 passes.
 Calling FoFCou, ICntrl=  3107 FMM=F I1Cent=   0 AccDes= 0.00D+00.
 End of G2Drv F.D. properties file   721 does not exist.
 End of G2Drv F.D. properties file   722 does not exist.
 End of G2Drv F.D. properties file   788 does not exist.
          IDoAtm=1111111111111111111111
          Differentiating once with respect to nuclear coordinates.
 CalDSu exits because no D1Ps are significant.
          There are    69 degrees of freedom in the 1st order CPHF.  IDoFFX=6 NUNeed=     0.
     63 vectors produced by pass  0 Test12= 7.49D-15 1.45D-09 XBig12= 8.98D-02 1.14D-01.
 AX will form    63 AO Fock derivatives at one time.
     63 vectors produced by pass  1 Test12= 7.49D-15 1.45D-09 XBig12= 7.11D-03 1.93D-02.
     63 vectors produced by pass  2 Test12= 7.49D-15 1.45D-09 XBig12= 1.43D-04 3.35D-03.
     63 vectors produced by pass  3 Test12= 7.49D-15 1.45D-09 XBig12= 9.96D-07 1.16D-04.
     63 vectors produced by pass  4 Test12= 7.49D-15 1.45D-09 XBig12= 4.02D-09 7.75D-06.
     63 vectors produced by pass  5 Test12= 7.49D-15 1.45D-09 XBig12= 1.15D-11 3.26D-07.
     29 vectors produced by pass  6 Test12= 7.49D-15 1.45D-09 XBig12= 3.12D-14 1.68D-08.
 InvSVY:  IOpt=1 It=  1 EMax= 3.33D-16
 Solved reduced A of dimension   407 with    69 vectors.
 End of Minotr F.D. properties file   721 does not exist.
 End of Minotr F.D. properties file   722 does not exist.
 End of Minotr F.D. properties file   788 does not exist.

 **********************************************************************

            Population analysis using the SCF Density.

 **********************************************************************

 Orbital symmetries:
       Occupied  (A) (A) (A) (A) (A) (A) (A) (A) (A) (A) (A) (A)
                 (A) (A) (A) (A) (A) (A) (A) (A) (A) (A) (A) (A)
                 (A) (A) (A) (A) (A) (A) (A) (A) (A) (A) (A) (A)
                 (A) (A)
       Virtual   (A) (A) (A) (A) (A) (A) (A) (A) (A) (A) (A) (A)
                 (A) (A) (A) (A) (A) (A) (A) (A) (A) (A) (A) (A)
                 (A) (A) (A) (A) (A) (A) (A) (A) (A) (A) (A) (A)
                 (A) (A) (A) (A) (A) (A) (A) (A) (A) (A) (A) (A)
                 (A) (A) (A) (A) (A) (A) (A) (A) (A) (A) (A) (A)
                 (A) (A) (A) (A) (A) (A) (A) (A) (A) (A) (A) (A)
                 (A) (A) (A) (A) (A) (A) (A) (A) (A) (A) (A) (A)
                 (A) (A) (A) (A) (A) (A) (A) (A) (A) (A) (A) (A)
                 (A) (A) (A) (A) (A) (A) (A) (A) (A) (A) (A) (A)
                 (A) (A) (A) (A) (A) (A) (A) (A) (A) (A) (A) (A)
                 (A) (A) (A) (A) (A) (A) (A) (A) (A) (A) (A) (A)
                 (A) (A) (A) (A)
 The electronic state is 1-A.
 Alpha  occ. eigenvalues --  -19.68868 -19.59448 -10.62779 -10.61568 -10.60261
 Alpha  occ. eigenvalues --  -10.57021 -10.56917 -10.56688 -10.55749 -10.53091
 Alpha  occ. eigenvalues --   -1.21049  -1.11591  -0.92859  -0.87330  -0.85663
 Alpha  occ. eigenvalues --   -0.79238  -0.73069  -0.70965  -0.63596  -0.62740
 Alpha  occ. eigenvalues --   -0.60233  -0.57298  -0.56533  -0.52580  -0.51638
 Alpha  occ. eigenvalues --   -0.50305  -0.49249  -0.47595  -0.46266  -0.45328
 Alpha  occ. eigenvalues --   -0.44419  -0.43704  -0.42487  -0.40468  -0.37337
 Alpha  occ. eigenvalues --   -0.33068  -0.29360  -0.23584
 Alpha virt. eigenvalues --   -0.03365   0.03876   0.10685   0.12349   0.12871
 Alpha virt. eigenvalues --    0.14433   0.16608   0.17226   0.17759   0.19062
 Alpha virt. eigenvalues --    0.19960   0.20109   0.21098   0.22299   0.24203
 Alpha virt. eigenvalues --    0.25268   0.26759   0.31605   0.33009   0.34325
 Alpha virt. eigenvalues --    0.37176   0.39778   0.43088   0.43653   0.52212
 Alpha virt. eigenvalues --    0.53573   0.56654   0.57464   0.59620   0.60307
 Alpha virt. eigenvalues --    0.61745   0.62757   0.63181   0.65361   0.66630
 Alpha virt. eigenvalues --    0.67753   0.69467   0.70650   0.73700   0.75348
 Alpha virt. eigenvalues --    0.77664   0.79907   0.82487   0.84679   0.88016
 Alpha virt. eigenvalues --    0.88599   0.89372   0.90419   0.91361   0.92146
 Alpha virt. eigenvalues --    0.92948   0.95132   0.96009   0.98883   1.00344
 Alpha virt. eigenvalues --    1.00427   1.02211   1.03404   1.03685   1.06068
 Alpha virt. eigenvalues --    1.07260   1.09946   1.11147   1.12430   1.15829
 Alpha virt. eigenvalues --    1.19462   1.21686   1.23770   1.26173   1.29825
 Alpha virt. eigenvalues --    1.35953   1.37303   1.39836   1.42858   1.45122
 Alpha virt. eigenvalues --    1.49142   1.52981   1.56069   1.58892   1.62343
 Alpha virt. eigenvalues --    1.66344   1.69872   1.74745   1.75787   1.78862
 Alpha virt. eigenvalues --    1.83578   1.85996   1.87794   1.91022   1.92126
 Alpha virt. eigenvalues --    1.95470   1.97166   2.00281   2.04129   2.05947
 Alpha virt. eigenvalues --    2.07915   2.10530   2.12647   2.15083   2.15854
 Alpha virt. eigenvalues --    2.18662   2.18787   2.20430   2.26356   2.27924
 Alpha virt. eigenvalues --    2.30207   2.31424   2.36637   2.37492   2.41011
 Alpha virt. eigenvalues --    2.46967   2.50214   2.52013   2.55935   2.57772
 Alpha virt. eigenvalues --    2.60431   2.66082   2.67071   2.70356   2.76886
 Alpha virt. eigenvalues --    2.88438   2.90979   3.00587   3.08468   3.11977
 Alpha virt. eigenvalues --    3.12507   3.95454   4.08349   4.14936   4.21642
 Alpha virt. eigenvalues --    4.26416   4.30263   4.32886   4.42272   4.52437
 Alpha virt. eigenvalues --    4.61397
          Condensed to atoms (all electrons):
               1          2          3          4          5          6
     1  C    5.217292   0.049497  -0.004385   0.441916   0.381379   0.382048
     2  C    0.049497   5.357537  -0.019736  -0.038874  -0.033430  -0.014200
     3  C   -0.004385  -0.019736   5.074152   0.026189   0.000422   0.000175
     4  C    0.441916  -0.038874   0.026189   5.309008  -0.028096  -0.043689
     5  H    0.381379  -0.033430   0.000422  -0.028096   0.530093  -0.030173
     6  H    0.382048  -0.014200   0.000175  -0.043689  -0.030173   0.513182
     7  H   -0.042520  -0.000250   0.000230   0.370101  -0.003699   0.003830
     8  C   -0.017969   0.571599  -0.030086  -0.025658  -0.010778   0.001514
     9  C   -0.009438  -0.080358   0.576044  -0.006121   0.000046   0.000152
    10  H   -0.007013   0.359478   0.000165   0.001675  -0.001377  -0.001257
    11  H    0.000149   0.000212   0.376389  -0.000173  -0.000002  -0.000002
    12  H    0.000011   0.005331  -0.044221  -0.000101  -0.000003   0.000001
    13  H   -0.014171   0.374014   0.001238  -0.005538   0.001806  -0.002585
    14  H   -0.001267   0.006095   0.380277  -0.002991  -0.000023   0.000081
    15  O   -0.001451  -0.080328   0.004028   0.000237   0.004147   0.000034
    16  C    0.000069   0.005271  -0.000088   0.000096   0.000093   0.000003
    17  H    0.000002  -0.000218   0.000033   0.000019   0.000025   0.000000
    18  H   -0.000003  -0.000125  -0.000000  -0.000002  -0.000018  -0.000000
    19  H    0.000007   0.000496  -0.000295  -0.000197  -0.000283  -0.000001
    20  C   -0.012936  -0.001078   0.001686   0.380972   0.002519  -0.005490
    21  O    0.004755   0.000043  -0.001753  -0.078455  -0.000082   0.000087
    22  H    0.013790  -0.000447  -0.000110  -0.134254  -0.000114   0.008308
               7          8          9         10         11         12
     1  C   -0.042520  -0.017969  -0.009438  -0.007013   0.000149   0.000011
     2  C   -0.000250   0.571599  -0.080358   0.359478   0.000212   0.005331
     3  C    0.000230  -0.030086   0.576044   0.000165   0.376389  -0.044221
     4  C    0.370101  -0.025658  -0.006121   0.001675  -0.000173  -0.000101
     5  H   -0.003699  -0.010778   0.000046  -0.001377  -0.000002  -0.000003
     6  H    0.003830   0.001514   0.000152  -0.001257  -0.000002   0.000001
     7  H    0.526155   0.000449   0.001423  -0.000020  -0.000023   0.000120
     8  C    0.000449   4.470701   0.463096  -0.024560   0.003178  -0.043063
     9  C    0.001423   0.463096   4.968275   0.005872  -0.024711   0.371183
    10  H   -0.000020  -0.024560   0.005872   0.500516  -0.000003  -0.000127
    11  H   -0.000023   0.003178  -0.024711  -0.000003   0.487573  -0.005596
    12  H    0.000120  -0.043063   0.371183  -0.000127  -0.005596   0.543729
    13  H   -0.000010  -0.024354  -0.005337  -0.027114   0.000048   0.000031
    14  H    0.000190  -0.012539  -0.037876  -0.000024  -0.030771   0.004418
    15  O   -0.000036   0.299467  -0.052567   0.000380  -0.000046  -0.007568
    16  C    0.000006  -0.046496  -0.007170   0.000020  -0.000005   0.006147
    17  H   -0.000002  -0.003822   0.000408   0.000029   0.000005   0.000506
    18  H   -0.000000   0.003235   0.000493  -0.000037  -0.000000   0.000062
    19  H    0.000229  -0.002347   0.002594   0.000017   0.000009   0.000441
    20  C   -0.023730  -0.000359   0.000560  -0.000023  -0.000118   0.000003
    21  O   -0.000246   0.000026   0.000181   0.000000   0.000210  -0.000001
    22  H    0.004485   0.000022   0.000036  -0.000004   0.000016   0.000000
              13         14         15         16         17         18
     1  C   -0.014171  -0.001267  -0.001451   0.000069   0.000002  -0.000003
     2  C    0.374014   0.006095  -0.080328   0.005271  -0.000218  -0.000125
     3  C    0.001238   0.380277   0.004028  -0.000088   0.000033  -0.000000
     4  C   -0.005538  -0.002991   0.000237   0.000096   0.000019  -0.000002
     5  H    0.001806  -0.000023   0.004147   0.000093   0.000025  -0.000018
     6  H   -0.002585   0.000081   0.000034   0.000003   0.000000  -0.000000
     7  H   -0.000010   0.000190  -0.000036   0.000006  -0.000002  -0.000000
     8  C   -0.024354  -0.012539   0.299467  -0.046496  -0.003822   0.003235
     9  C   -0.005337  -0.037876  -0.052567  -0.007170   0.000408   0.000493
    10  H   -0.027114  -0.000024   0.000380   0.000020   0.000029  -0.000037
    11  H    0.000048  -0.030771  -0.000046  -0.000005   0.000005  -0.000000
    12  H    0.000031   0.004418  -0.007568   0.006147   0.000506   0.000062
    13  H    0.505597   0.002569   0.002725  -0.000154   0.000015   0.000003
    14  H    0.002569   0.511198   0.000001   0.000012  -0.000004   0.000001
    15  O    0.002725   0.000001   8.221809   0.219794  -0.035781  -0.032689
    16  C   -0.000154   0.000012   0.219794   4.931179   0.376999   0.390892
    17  H    0.000015  -0.000004  -0.035781   0.376999   0.560377  -0.030770
    18  H    0.000003   0.000001  -0.032689   0.390892  -0.030770   0.497205
    19  H   -0.000016  -0.000004  -0.036239   0.373913  -0.041107  -0.025176
    20  C    0.000694   0.000619   0.000002   0.000001   0.000000   0.000000
    21  O   -0.000002  -0.000359  -0.000000  -0.000000  -0.000000   0.000000
    22  H    0.000491   0.000541  -0.000000  -0.000000   0.000000   0.000000
              19         20         21         22
     1  C    0.000007  -0.012936   0.004755   0.013790
     2  C    0.000496  -0.001078   0.000043  -0.000447
     3  C   -0.000295   0.001686  -0.001753  -0.000110
     4  C   -0.000197   0.380972  -0.078455  -0.134254
     5  H   -0.000283   0.002519  -0.000082  -0.000114
     6  H   -0.000001  -0.005490   0.000087   0.008308
     7  H    0.000229  -0.023730  -0.000246   0.004485
     8  C   -0.002347  -0.000359   0.000026   0.000022
     9  C    0.002594   0.000560   0.000181   0.000036
    10  H    0.000017  -0.000023   0.000000  -0.000004
    11  H    0.000009  -0.000118   0.000210   0.000016
    12  H    0.000441   0.000003  -0.000001   0.000000
    13  H   -0.000016   0.000694  -0.000002   0.000491
    14  H   -0.000004   0.000619  -0.000359   0.000541
    15  O   -0.036239   0.000002  -0.000000  -0.000000
    16  C    0.373913   0.000001  -0.000000  -0.000000
    17  H   -0.041107   0.000000  -0.000000   0.000000
    18  H   -0.025176   0.000000   0.000000   0.000000
    19  H    0.555094   0.000000   0.000000   0.000000
    20  C    0.000000   4.555049   0.520244   0.367784
    21  O    0.000000   0.520244   8.090255  -0.053680
    22  H    0.000000   0.367784  -0.053680   0.691869
 Mulliken charges:
               1
     1  C   -0.379762
     2  C   -0.460529
     3  C   -0.340354
     4  C   -0.166063
     5  H    0.187549
     6  H    0.187982
     7  H    0.163319
     8  C    0.428745
     9  C   -0.166786
    10  H    0.193408
    11  H    0.193661
    12  H    0.168698
    13  H    0.190050
    14  H    0.179857
    15  O   -0.505916
    16  C   -0.250583
    17  H    0.173286
    18  H    0.196930
    19  H    0.172865
    20  C    0.213603
    21  O   -0.481225
    22  H    0.101267
 Sum of Mulliken charges =  -0.00000
 Mulliken charges with hydrogens summed into heavy atoms:
               1
     1  C   -0.004230
     2  C   -0.077071
     3  C    0.033163
     4  C   -0.002744
     8  C    0.428745
     9  C    0.001912
    15  O   -0.505916
    16  C    0.292498
    20  C    0.314870
    21  O   -0.481225
 APT charges:
               1
     1  C   -0.953608
     2  C   -0.850942
     3  C   -0.812847
     4  C   -0.369416
     5  H    0.381547
     6  H    0.542894
     7  H    0.288330
     8  C    0.016932
     9  C   -0.530504
    10  H    0.559675
    11  H    0.612160
    12  H    0.500465
    13  H    0.398182
    14  H    0.319633
    15  O   -0.202016
    16  C   -1.232630
    17  H    0.506748
    18  H    0.758848
    19  H    0.181213
    20  C   -0.653533
    21  O    0.140079
    22  H    0.398791
 Sum of APT charges =  -0.00000
 APT charges with hydrogens summed into heavy atoms:
               1
     1  C   -0.029167
     2  C    0.106915
     3  C    0.118946
     4  C   -0.081086
     8  C    0.016932
     9  C   -0.030039
    15  O   -0.202016
    16  C    0.214179
    20  C   -0.254743
    21  O    0.140079
 Electronic spatial extent (au):  <R**2>=           1802.0085
 Charge=             -0.0000 electrons
 Dipole moment (field-independent basis, Debye):
    X=              4.9444    Y=             -0.5512    Z=              0.4033  Tot=              4.9913
 Quadrupole moment (field-independent basis, Debye-Ang):
   XX=            -72.7238   YY=            -56.9884   ZZ=            -59.2249
   XY=              7.9917   XZ=             -9.5549   YZ=             -1.3063
 Traceless Quadrupole moment (field-independent basis, Debye-Ang):
   XX=             -9.7448   YY=              5.9906   ZZ=              3.7541
   XY=              7.9917   XZ=             -9.5549   YZ=             -1.3063
 Octapole moment (field-independent basis, Debye-Ang**2):
  XXX=             86.2932  YYY=              3.2213  ZZZ=             -5.0722  XYY=              3.6364
  XXY=            -11.6516  XXZ=             -0.5931  XZZ=              3.8418  YZZ=             -1.6181
  YYZ=              1.8987  XYZ=             -3.2179
 Hexadecapole moment (field-independent basis, Debye-Ang**3):
 XXXX=          -1756.0272 YYYY=           -426.8480 ZZZZ=           -268.2170 XXXY=             84.9302
 XXXZ=            -92.0570 YYYX=            -15.6218 YYYZ=            -10.2068 ZZZX=            -12.5958
 ZZZY=             -8.3707 XXYY=           -346.6505 XXZZ=           -301.9681 YYZZ=           -124.5771
 XXYZ=              5.0320 YYXZ=             -8.5064 ZZXY=             -7.2671
 N-N= 5.190798108414D+02 E-N=-2.114033166056D+03  KE= 4.583368255721D+02
  Exact polarizability:       0.000       0.000       0.000       0.000       0.000       0.000
 Approx polarizability:     182.209     -10.046     133.153      10.061      -8.051      90.169
 Calling FoFJK, ICntrl=    100127 FMM=F ISym2X=0 I1Cent= 0 IOpClX= 0 NMat=1 NMatS=1 NMatT=0.
 ***** Axes restored to original set *****
 -------------------------------------------------------------------
 Center     Atomic                   Forces (Hartrees/Bohr)
 Number     Number              X              Y              Z
 -------------------------------------------------------------------
      1        6          -0.001344422    0.023791358    0.002285965
      2        6           0.013038534   -0.000571467    0.005928107
      3        6           0.001121474    0.000470540    0.000770017
      4        6           0.004120025   -0.018973595   -0.012593152
      5        1           0.000547515   -0.004294604   -0.003413233
      6        1          -0.000386155   -0.000752575    0.000556814
      7        1          -0.003571052   -0.000226426   -0.000980331
      8        6          -0.006953149   -0.018085689    0.002206821
      9        6          -0.001065341    0.003126776   -0.002982150
     10        1          -0.000225729    0.000015054   -0.000205566
     11        1          -0.001227240    0.000280136   -0.000877842
     12        1           0.000429270   -0.000432740    0.001434067
     13        1          -0.001151275    0.000795051   -0.000442893
     14        1           0.000518852    0.000085437    0.000806832
     15        8           0.006321879    0.006805684   -0.004647316
     16        6          -0.000666242   -0.005271355   -0.001854058
     17        1          -0.001065848    0.001525864    0.000193983
     18        1          -0.000544116    0.001014211    0.000183509
     19        1           0.001703929    0.002392954    0.001249120
     20        6          -0.013290507    0.021919988    0.027215628
     21        8           0.002770128   -0.011522546   -0.011548708
     22        1           0.000919472   -0.002092057   -0.003285614
 -------------------------------------------------------------------
 Cartesian Forces:  Max     0.027215628 RMS     0.007397448
 FormGI is forming the generalized inverse of G from B-inverse, IUseBI=4.

 GradGradGradGradGradGradGradGradGradGradGradGradGradGradGradGradGradGrad
 Berny optimization.
 Internal  Forces:  Max     0.014942810 RMS     0.003884780
 Search for a saddle point.
 Step number   1 out of a maximum of  103
 All quantities printed in internal units (Hartrees-Bohrs-Radians)
 Swapping is turned off.
 Second derivative matrix not updated -- analytic derivatives used.
 ITU=  0
     Eigenvalues ---   -0.02471   0.00160   0.00305   0.00729   0.00964
     Eigenvalues ---    0.01316   0.01877   0.01933   0.02137   0.02411
     Eigenvalues ---    0.02790   0.02966   0.03607   0.03859   0.04023
     Eigenvalues ---    0.05169   0.05446   0.06096   0.07398   0.07631
     Eigenvalues ---    0.08026   0.08907   0.09121   0.09974   0.10653
     Eigenvalues ---    0.11112   0.11685   0.12571   0.13528   0.14082
     Eigenvalues ---    0.14165   0.16963   0.18145   0.19140   0.19291
     Eigenvalues ---    0.22015   0.23283   0.26867   0.31443   0.31802
     Eigenvalues ---    0.34118   0.34566   0.35844   0.36056   0.36440
     Eigenvalues ---    0.36651   0.37173   0.37346   0.37373   0.37551
     Eigenvalues ---    0.37864   0.38716   0.39584   0.40425   0.44772
     Eigenvalues ---    0.51809   0.54781   0.61331   0.62139   0.81454
 Eigenvectors required to have negative eigenvalues:
                          R1        D20       D13       D24       D14
   1                    0.70305   0.24525   0.23923  -0.23288  -0.18459
                          D31       D21       A2        D16       D25
   1                   -0.17126   0.16506  -0.14768   0.13950  -0.12701
 RFO step:  Lambda0=2.924876570D-03 Lambda=-8.69994452D-03.
 Linear search not attempted -- option 19 set.
 Iteration  1 RMS(Cart)=  0.14887738 RMS(Int)=  0.00675501
 Iteration  2 RMS(Cart)=  0.01049387 RMS(Int)=  0.00078878
 Iteration  3 RMS(Cart)=  0.00010153 RMS(Int)=  0.00078456
 Iteration  4 RMS(Cart)=  0.00000003 RMS(Int)=  0.00078456
 Variable       Old X    -DE/DX   Delta X   Delta X   Delta X     New X
                                 (Linear)    (Quad)   (Total)
    R1        3.89645   0.01274   0.00000  -0.06373  -0.06373   3.83273
    R2        2.62210  -0.00231   0.00000   0.00892   0.00892   2.63101
    R3        2.05319   0.00014   0.00000  -0.00134  -0.00134   2.05184
    R4        2.05364   0.00053   0.00000   0.00486   0.00486   2.05850
    R5        2.61765  -0.00788   0.00000   0.00557   0.00557   2.62322
    R6        2.05083   0.00009   0.00000   0.00171   0.00171   2.05254
    R7        2.04491  -0.00010   0.00000   0.00041   0.00041   2.04532
    R8        2.55210  -0.00027   0.00000   0.01762   0.01762   2.56972
    R9        2.05051  -0.00033   0.00000  -0.00018  -0.00018   2.05033
   R10        2.04510  -0.00066   0.00000  -0.00293  -0.00293   2.04217
   R11        2.05015  -0.00175   0.00000  -0.00274  -0.00274   2.04741
   R12        2.71845   0.00955   0.00000   0.02630   0.02630   2.74475
   R13        2.71404   0.00043   0.00000  -0.02879  -0.02879   2.68525
   R14        2.53929   0.00938   0.00000   0.02225   0.02225   2.56154
   R15        2.04940   0.00055   0.00000   0.00050   0.00050   2.04990
   R16        2.68483  -0.00060   0.00000  -0.01231  -0.01231   2.67252
   R17        2.07084  -0.00061   0.00000  -0.00003  -0.00003   2.07081
   R18        2.05939  -0.00020   0.00000  -0.00023  -0.00023   2.05916
   R19        2.06697   0.00064   0.00000   0.00346   0.00346   2.07043
   R20        2.32559  -0.01494   0.00000  -0.02822  -0.02822   2.29737
   R21        2.09413   0.00275   0.00000   0.01637   0.01637   2.11050
    A1        1.97972   0.00799   0.00000   0.02183   0.02071   2.00043
    A2        1.59435  -0.00389   0.00000   0.05684   0.05480   1.64915
    A3        1.63250  -0.00338   0.00000  -0.01588  -0.01567   1.61682
    A4        2.03181   0.00446   0.00000   0.04064   0.03842   2.07023
    A5        2.08414  -0.00402   0.00000  -0.04373  -0.04360   2.04054
    A6        2.02285  -0.00112   0.00000  -0.03307  -0.03308   1.98977
    A7        1.79775   0.00499   0.00000   0.01491   0.01459   1.81234
    A8        1.72818  -0.00101   0.00000   0.06951   0.06948   1.79766
    A9        1.68824  -0.00350   0.00000  -0.03898  -0.03870   1.64954
   A10        2.04055  -0.00170   0.00000  -0.00979  -0.01133   2.02922
   A11        2.07440   0.00088   0.00000  -0.00164  -0.00177   2.07263
   A12        2.02537   0.00051   0.00000  -0.01357  -0.01305   2.01233
   A13        2.10104   0.00104   0.00000   0.00971   0.00881   2.10985
   A14        2.14659  -0.00020   0.00000  -0.00131  -0.00222   2.14438
   A15        2.03168  -0.00079   0.00000  -0.01498  -0.01590   2.01579
   A16        2.13905  -0.00328   0.00000  -0.00478  -0.00774   2.13132
   A17        2.05200   0.01085   0.00000   0.04560   0.04276   2.09476
   A18        2.09186  -0.00754   0.00000  -0.03773  -0.04049   2.05137
   A19        2.12425   0.00292   0.00000  -0.00810  -0.00961   2.11464
   A20        2.02061  -0.00057   0.00000  -0.00822  -0.00972   2.01088
   A21        2.13306  -0.00254   0.00000   0.00650   0.00486   2.13791
   A22        2.13798   0.00048   0.00000  -0.01898  -0.01944   2.11854
   A23        2.07101  -0.00102   0.00000  -0.00505  -0.00547   2.06554
   A24        2.06357   0.00055   0.00000   0.01648   0.01597   2.07954
   A25        2.07814   0.00158   0.00000   0.00192   0.00192   2.08005
   A26        1.93685   0.00086   0.00000   0.00719   0.00714   1.94399
   A27        1.84099   0.00050   0.00000   0.00508   0.00502   1.84601
   A28        1.92125   0.00394   0.00000   0.02237   0.02231   1.94356
   A29        1.90164  -0.00021   0.00000   0.00433   0.00427   1.90591
   A30        1.93454  -0.00290   0.00000  -0.02280  -0.02285   1.91169
   A31        1.92641  -0.00208   0.00000  -0.01505  -0.01511   1.91130
   A32        2.15024   0.01284   0.00000   0.05035   0.05033   2.20057
   A33        2.03981  -0.00932   0.00000  -0.05419  -0.05422   1.98560
   A34        2.09299  -0.00349   0.00000   0.00404   0.00402   2.09701
    D1       -0.93449  -0.00430   0.00000  -0.05460  -0.05459  -0.98908
    D2       -3.03703  -0.00370   0.00000  -0.07396  -0.07511  -3.11214
    D3        1.19016  -0.00316   0.00000  -0.06558  -0.06581   1.12435
    D4        1.15434   0.00091   0.00000   0.02616   0.02708   1.18142
    D5       -0.94820   0.00151   0.00000   0.00680   0.00656  -0.94164
    D6       -3.00420   0.00205   0.00000   0.01519   0.01586  -2.98834
    D7       -3.10331  -0.00071   0.00000  -0.00336  -0.00288  -3.10619
    D8        1.07733  -0.00012   0.00000  -0.02272  -0.02340   1.05394
    D9       -0.97866   0.00042   0.00000  -0.01433  -0.01410  -0.99276
   D10        1.45237   0.00230   0.00000   0.15504   0.15599   1.60836
   D11       -1.66403   0.00059   0.00000   0.01287   0.01298  -1.65105
   D12       -0.36483  -0.00034   0.00000   0.04694   0.04691  -0.31792
   D13        2.80196  -0.00205   0.00000  -0.09523  -0.09610   2.70586
   D14       -2.93276   0.00116   0.00000   0.12193   0.12227  -2.81049
   D15        0.23402  -0.00055   0.00000  -0.02024  -0.02074   0.21329
   D16        1.34109  -0.00222   0.00000  -0.17757  -0.17715   1.16394
   D17       -1.69261  -0.00005   0.00000  -0.07776  -0.07789  -1.77049
   D18       -3.06909  -0.00109   0.00000  -0.08973  -0.08968   3.12442
   D19        0.18040   0.00109   0.00000   0.01009   0.00958   0.18998
   D20       -0.49744  -0.00151   0.00000  -0.13935  -0.13900  -0.63644
   D21        2.75205   0.00066   0.00000  -0.03954  -0.03974   2.71231
   D22       -3.04264   0.00106   0.00000   0.08790   0.08778  -2.95486
   D23       -0.06000   0.00114   0.00000   0.03339   0.03365  -0.02635
   D24        0.19684   0.00048   0.00000   0.17177   0.17151   0.36835
   D25       -3.10371   0.00056   0.00000   0.11726   0.11738  -2.98632
   D26        3.14159   0.00198   0.00000   0.08562   0.08481  -3.05679
   D27        0.01827   0.00003   0.00000   0.07271   0.07191   0.09018
   D28        0.02448   0.00026   0.00000  -0.05300  -0.05219  -0.02771
   D29       -3.09884  -0.00168   0.00000  -0.06590  -0.06509   3.11926
   D30       -0.08080   0.00076   0.00000   0.11038   0.11039   0.02960
   D31       -3.06408   0.00082   0.00000   0.16652   0.16683  -2.89725
   D32        2.94593  -0.00140   0.00000   0.00313   0.00282   2.94875
   D33       -0.03736  -0.00134   0.00000   0.05927   0.05926   0.02190
   D34        2.80504  -0.00036   0.00000   0.02786   0.02768   2.83273
   D35       -0.22806   0.00145   0.00000   0.12922   0.12940  -0.09865
   D36        1.24589  -0.00039   0.00000  -0.07060  -0.07061   1.17528
   D37       -2.98043   0.00010   0.00000  -0.05880  -0.05881  -3.03923
   D38       -0.90225  -0.00003   0.00000  -0.06210  -0.06208  -0.96433
         Item               Value     Threshold  Converged?
 Maximum Force            0.014943     0.000450     NO 
 RMS     Force            0.003885     0.000300     NO 
 Maximum Displacement     0.438150     0.001800     NO 
 RMS     Displacement     0.148996     0.001200     NO 
 Predicted change in Energy=-3.627811D-03
 GradGradGradGradGradGradGradGradGradGradGradGradGradGradGradGradGradGrad

                          Input orientation:                          
 ---------------------------------------------------------------------
 Center     Atomic      Atomic             Coordinates (Angstroms)
 Number     Number       Type             X           Y           Z
 ---------------------------------------------------------------------
      1          6           0       -1.467403   -0.523561   -1.252076
      2          6           0        0.098464   -1.677954   -0.678494
      3          6           0       -0.730108   -0.605116    1.825919
      4          6           0       -2.147997    0.092303   -0.205211
      5          1           0       -0.877018    0.093337   -1.922762
      6          1           0       -1.967724   -1.357768   -1.742363
      7          1           0       -1.893246    1.086674    0.141460
      8          6           0        0.903677   -0.809382    0.045501
      9          6           0        0.471402   -0.267532    1.285948
     10          1           0        0.500652   -2.031217   -1.623578
     11          1           0       -1.129645   -0.064425    2.677518
     12          1           0        1.009848    0.572261    1.712015
     13          1           0       -0.513578   -2.390667   -0.141002
     14          1           0       -1.261972   -1.506253    1.555874
     15          8           0        1.983851   -0.332765   -0.620429
     16          6           0        2.642476    0.819124   -0.131119
     17          1           0        3.134702    0.620922    0.827663
     18          1           0        3.397163    1.067893   -0.876724
     19          1           0        1.947670    1.658871   -0.019477
     20          6           0       -3.328868   -0.534638    0.362350
     21          8           0       -4.051599   -0.058992    1.216390
     22          1           0       -3.545425   -1.547551   -0.055277
 ---------------------------------------------------------------------
                    Distance matrix (angstroms):
                    1          2          3          4          5
     1  C    0.000000
     2  C    2.028191   0.000000
     3  C    3.166119   2.847735   0.000000
     4  C    1.392273   2.899033   2.573382   0.000000
     5  H    1.085789   2.374287   3.816023   2.136673   0.000000
     6  H    1.089313   2.345948   3.851080   2.120858   1.824250
     7  H    2.171668   3.504626   2.655644   1.083445   2.506083
     8  C    2.717981   1.388147   2.425049   3.191959   2.803540
     9  C    3.204073   2.446917   1.359837   3.035505   3.499184
    10  H    2.506847   1.086155   3.930339   3.679190   2.549748
    11  H    3.970718   3.921038   1.084987   3.061328   4.609912
    12  H    4.015400   3.407142   2.103958   3.725332   4.123256
    13  H    2.372837   1.082337   2.665306   2.973313   3.078479
    14  H    2.982025   2.621578   1.080672   2.538079   3.848089
    15  O    3.513764   2.316805   3.663928   4.174357   3.172098
    16  C    4.466594   3.606524   4.151239   4.845863   4.015420
    17  H    5.178274   4.095372   4.175696   5.408620   4.892554
    18  H    5.132019   4.296554   5.209376   5.670229   4.506948
    19  H    4.236158   3.871468   3.962527   4.388977   3.748634
    20  C    2.464050   3.759938   2.983380   1.452458   3.409935
    21  O    3.603778   4.840935   3.420830   2.380660   4.467152
    22  H    2.607500   3.699099   3.514697   2.159724   3.646973
                    6          7          8          9         10
     6  H    0.000000
     7  H    3.087010   0.000000
     8  C    3.426679   3.380386   0.000000
     9  C    4.038393   2.955552   1.420975   0.000000
    10  H    2.561352   4.308985   2.107400   3.402467   0.000000
    11  H    4.680861   2.887855   3.408353   2.130979   5.002556
    12  H    4.952138   3.340541   2.167366   1.084763   4.261872
    13  H    2.397035   3.751689   2.131632   2.741181   1.831911
    14  H    3.376167   3.020322   2.730731   2.147528   3.673057
    15  O    4.233711   4.198471   1.355509   2.434344   2.467980
    16  C    5.346860   4.551775   2.388860   2.811132   3.865138
    17  H    6.046072   5.095886   2.763154   2.844739   4.469971
    18  H    5.951064   5.387530   3.254556   3.875640   4.307209
    19  H    5.234382   3.886636   2.680750   2.755818   4.275950
    20  C    2.638195   2.176799   4.253270   3.920004   4.566057
    21  O    3.844941   2.669553   5.146729   4.528340   5.716474
    22  H    2.317632   3.115693   4.511048   4.424052   4.366261
                   11         12         13         14         15
    11  H    0.000000
    12  H    2.432077   0.000000
    13  H    3.706075   3.812275   0.000000
    14  H    1.831519   3.083143   2.054670   0.000000
    15  O    4.543382   2.684781   3.271385   4.080286   0.000000
    16  C    4.785186   2.474583   4.501504   4.847478   1.414235
    17  H    4.698544   2.302053   4.828863   4.938209   2.081093
    18  H    5.865729   3.556191   5.272269   5.852461   2.006235
    19  H    4.439978   2.249065   4.740387   4.775096   2.080641
    20  C    3.227644   4.676674   3.409408   2.576935   5.406624
    21  O    3.266916   5.124682   4.449361   3.160986   6.314706
    22  H    3.937489   5.326109   3.148061   2.794936   5.689287
                   16         17         18         19         20
    16  C    0.000000
    17  H    1.095825   0.000000
    18  H    1.089663   1.781461   0.000000
    19  H    1.095625   1.789981   1.784701   0.000000
    20  C    6.142730   6.582519   7.024450   5.727052   0.000000
    21  O    6.884585   7.228852   7.818891   6.361576   1.215715
    22  H    6.625483   7.078555   7.464238   6.360544   1.116827
                   21         22
    21  O    0.000000
    22  H    2.022166   0.000000
 Stoichiometry    C8H12O2
 Framework group  C1[X(C8H12O2)]
 Deg. of freedom    60
 Full point group                 C1      NOp   1
 Largest Abelian subgroup         C1      NOp   1
 Largest concise Abelian subgroup C1      NOp   1
                         Standard orientation:                         
 ---------------------------------------------------------------------
 Center     Atomic      Atomic             Coordinates (Angstroms)
 Number     Number       Type             X           Y           Z
 ---------------------------------------------------------------------
      1          6           0       -0.743215   -1.486033   -0.436245
      2          6           0        0.638799   -1.171263    1.014451
      3          6           0       -0.471798    1.437469    0.748569
      4          6           0       -1.525801   -0.375953   -0.742360
      5          1           0       -0.020052   -1.830555   -1.169237
      6          1           0       -1.222474   -2.287781    0.124213
      7          1           0       -1.256857    0.319234   -1.528640
      8          6           0        1.387086   -0.105122    0.534489
      9          6           0        0.816131    1.188108    0.390493
     10          1           0        1.149778   -2.127690    1.076743
     11          1           0       -0.953604    2.371786    0.480035
     12          1           0        1.342798    1.936309   -0.192196
     13          1           0       -0.092820   -0.986362    1.790337
     14          1           0       -1.019022    0.814200    1.441341
     15          8           0        2.583262   -0.437702   -0.009530
     16          6           0        3.240704    0.490838   -0.849556
     17          1           0        3.572488    1.371843   -0.288680
     18          1           0        4.111691   -0.031756   -1.244071
     19          1           0        2.596372    0.805298   -1.678016
     20          6           0       -2.817273   -0.198387   -0.101888
     21          8           0       -3.622846    0.678858   -0.345728
     22          1           0       -3.039413   -0.961715    0.682515
 ---------------------------------------------------------------------
 Rotational constants (GHZ):           2.6994095           0.6974757           0.6366599
 Standard basis: 6-31G(d) (6D, 7F)
 There are   174 symmetry adapted cartesian basis functions of A   symmetry.
 There are   174 symmetry adapted basis functions of A   symmetry.
   174 basis functions,   328 primitive gaussians,   174 cartesian basis functions
    38 alpha electrons       38 beta electrons
       nuclear repulsion energy       519.8515044330 Hartrees.
 NAtoms=   22 NActive=   22 NUniq=   22 SFac= 1.00D+00 NAtFMM=   60 NAOKFM=F Big=F
 Integral buffers will be    131072 words long.
 Raffenetti 2 integral format.
 Two-electron integral symmetry is turned on.
 One-electron integrals computed using PRISM.
 NBasis=   174 RedAO= T EigKep=  1.90D-03  NBF=   174
 NBsUse=   174 1.00D-06 EigRej= -1.00D+00 NBFU=   174
 Initial guess from the checkpoint file:  "/tmp/Gau-2309021.chk"
 B after Tr=     0.000000    0.000000   -0.000000
         Rot=    0.999020   -0.043890    0.002164   -0.005265 Ang=  -5.07 deg.
 ExpMin= 1.61D-01 ExpMax= 5.48D+03 ExpMxC= 8.25D+02 IAcc=3 IRadAn=         5 AccDes= 0.00D+00
 Harris functional with IExCor= 1009 and IRadAn=       5 diagonalized for initial guess.
 HarFok:  IExCor= 1009 AccDes= 0.00D+00 IRadAn=         5 IDoV= 1 UseB2=F ITyADJ=14
 ICtDFT=  3500011 ScaDFX=  1.000000  1.000000  1.000000  1.000000
 FoFCou: FMM=F IPFlag=           0 FMFlag=      100000 FMFlg1=           0
         NFxFlg=           0 DoJE=T BraDBF=F KetDBF=T FulRan=T
         wScrn=  0.000000 ICntrl=       500 IOpCl=  0 I1Cent=   200000004 NGrid=           0
         NMat0=    1 NMatS0=      1 NMatT0=    0 NMatD0=    1 NMtDS0=    0 NMtDT0=    0
 Petite list used in FoFCou.
 Requested convergence on RMS density matrix=1.00D-08 within 128 cycles.
 Requested convergence on MAX density matrix=1.00D-06.
 Requested convergence on             energy=1.00D-06.
 No special actions if energy rises.
 Integral accuracy reduced to 1.0D-05 until final iterations.
 Initial convergence to 1.0D-05 achieved.  Increase integral accuracy.
 SCF Done:  E(RM062X) =  -462.176437670     A.U. after   16 cycles
            NFock= 16  Conv=0.39D-08     -V/T= 2.0084
 Calling FoFJK, ICntrl=      2127 FMM=F ISym2X=0 I1Cent= 0 IOpClX= 0 NMat=1 NMatS=1 NMatT=0.
 ***** Axes restored to original set *****
 -------------------------------------------------------------------
 Center     Atomic                   Forces (Hartrees/Bohr)
 Number     Number              X              Y              Z
 -------------------------------------------------------------------
      1        6           0.001046981    0.001680555   -0.002769965
      2        6          -0.000673419   -0.001345470   -0.001043689
      3        6          -0.005577517    0.001510154   -0.001328298
      4        6           0.004178190   -0.002695192    0.005911055
      5        1           0.000143941   -0.000539861   -0.000459841
      6        1          -0.000193447    0.000236225   -0.000515291
      7        1          -0.001824463    0.001388483   -0.001890781
      8        6           0.000438967    0.000951561    0.003826716
      9        6           0.003210496    0.000641133   -0.002971858
     10        1          -0.000716162   -0.000007266   -0.000302800
     11        1           0.000045624   -0.000316722    0.000269536
     12        1           0.000450635   -0.000231119    0.000235324
     13        1           0.000183188   -0.000186312    0.000406469
     14        1           0.000847650   -0.001622370    0.000849516
     15        8          -0.000009860    0.000845155   -0.001440021
     16        6           0.000205051   -0.000966136    0.000307928
     17        1          -0.000334138    0.000152800    0.000238954
     18        1           0.000109490    0.000026951    0.000119418
     19        1           0.000143584    0.000276725   -0.000105651
     20        6          -0.001523382    0.000372267    0.000320792
     21        8          -0.000203623    0.000081189    0.000390165
     22        1           0.000052215   -0.000252750   -0.000047678
 -------------------------------------------------------------------
 Cartesian Forces:  Max     0.005911055 RMS     0.001591561

 GradGradGradGradGradGradGradGradGradGradGradGradGradGradGradGradGradGrad
 Berny optimization.
 FormGI is forming the generalized inverse of G from B-inverse, IUseBI=4.
 Internal  Forces:  Max     0.005034455 RMS     0.001384909
 Search for a saddle point.
 Step number   2 out of a maximum of  103
 All quantities printed in internal units (Hartrees-Bohrs-Radians)
 Swapping is turned off.
 Update second derivatives using D2CorX and points    1    2
 ITU=  0  0
     Eigenvalues ---   -0.03438   0.00158   0.00347   0.00828   0.00964
     Eigenvalues ---    0.01199   0.01890   0.01932   0.02132   0.02401
     Eigenvalues ---    0.02834   0.02990   0.03636   0.03857   0.03997
     Eigenvalues ---    0.05198   0.05457   0.06086   0.07387   0.07642
     Eigenvalues ---    0.08021   0.08906   0.09120   0.09918   0.10644
     Eigenvalues ---    0.11108   0.11679   0.12582   0.13519   0.14077
     Eigenvalues ---    0.14168   0.16948   0.18129   0.19136   0.19296
     Eigenvalues ---    0.21981   0.23275   0.26849   0.31557   0.31802
     Eigenvalues ---    0.34116   0.34565   0.35843   0.36015   0.36439
     Eigenvalues ---    0.36644   0.37171   0.37345   0.37374   0.37538
     Eigenvalues ---    0.37860   0.38704   0.39543   0.40410   0.44738
     Eigenvalues ---    0.51799   0.54744   0.61290   0.62126   0.81459
 Eigenvectors required to have negative eigenvalues:
                          R1        D24       D20       D13       D14
   1                    0.65436  -0.27964   0.23964   0.23234  -0.20722
                          D31       D16       D25       D21       A2
   1                   -0.18536   0.16580  -0.16447   0.15346  -0.14417
 RFO step:  Lambda0=6.105861609D-04 Lambda=-2.36793216D-03.
 Linear search not attempted -- option 19 set.
 Iteration  1 RMS(Cart)=  0.10072947 RMS(Int)=  0.00664411
 Iteration  2 RMS(Cart)=  0.01321371 RMS(Int)=  0.00086319
 Iteration  3 RMS(Cart)=  0.00005120 RMS(Int)=  0.00086289
 Iteration  4 RMS(Cart)=  0.00000008 RMS(Int)=  0.00086289
 Variable       Old X    -DE/DX   Delta X   Delta X   Delta X     New X
                                 (Linear)    (Quad)   (Total)
    R1        3.83273  -0.00141   0.00000   0.25823   0.25823   4.09095
    R2        2.63101   0.00270   0.00000  -0.02181  -0.02181   2.60920
    R3        2.05184   0.00006   0.00000  -0.00330  -0.00330   2.04854
    R4        2.05850   0.00014   0.00000  -0.00137  -0.00137   2.05713
    R5        2.62322   0.00052   0.00000  -0.01801  -0.01801   2.60521
    R6        2.05254   0.00000   0.00000  -0.00188  -0.00188   2.05066
    R7        2.04532   0.00022   0.00000  -0.00163  -0.00163   2.04369
    R8        2.56972   0.00416   0.00000   0.00624   0.00624   2.57596
    R9        2.05033   0.00004   0.00000   0.00007   0.00007   2.05040
   R10        2.04217   0.00072   0.00000   0.00275   0.00275   2.04493
   R11        2.04741   0.00024   0.00000   0.00086   0.00086   2.04828
   R12        2.74475   0.00154   0.00000   0.01619   0.01619   2.76094
   R13        2.68525  -0.00227   0.00000   0.00211   0.00211   2.68737
   R14        2.56154   0.00064   0.00000   0.01039   0.01039   2.57193
   R15        2.04990   0.00014   0.00000  -0.00013  -0.00013   2.04977
   R16        2.67252  -0.00016   0.00000  -0.00530  -0.00530   2.66721
   R17        2.07081   0.00003   0.00000   0.00056   0.00056   2.07137
   R18        2.05916   0.00000   0.00000   0.00025   0.00025   2.05942
   R19        2.07043   0.00011   0.00000   0.00157   0.00157   2.07200
   R20        2.29737   0.00043   0.00000  -0.00528  -0.00528   2.29209
   R21        2.11050   0.00024   0.00000   0.00005   0.00005   2.11055
    A1        2.00043  -0.00486   0.00000  -0.03090  -0.03040   1.97003
    A2        1.64915   0.00207   0.00000  -0.04610  -0.04572   1.60343
    A3        1.61682   0.00138   0.00000  -0.04219  -0.04162   1.57521
    A4        2.07023   0.00090   0.00000   0.02591   0.02337   2.09360
    A5        2.04054   0.00072   0.00000   0.03127   0.02901   2.06955
    A6        1.98977  -0.00065   0.00000   0.01679   0.01382   2.00358
    A7        1.81234  -0.00503   0.00000  -0.04566  -0.04531   1.76703
    A8        1.79766   0.00244   0.00000  -0.00797  -0.00719   1.79047
    A9        1.64954   0.00078   0.00000  -0.06470  -0.06485   1.58469
   A10        2.02922   0.00180   0.00000   0.03875   0.03721   2.06643
   A11        2.07263  -0.00019   0.00000   0.01357   0.00962   2.08225
   A12        2.01233  -0.00049   0.00000   0.01817   0.01598   2.02830
   A13        2.10985   0.00043   0.00000   0.00437   0.00340   2.11324
   A14        2.14438  -0.00085   0.00000  -0.01295  -0.01392   2.13045
   A15        2.01579   0.00013   0.00000  -0.00388  -0.00488   2.01090
   A16        2.13132  -0.00064   0.00000  -0.00652  -0.00870   2.12262
   A17        2.09476   0.00122   0.00000   0.00535   0.00322   2.09798
   A18        2.05137  -0.00070   0.00000  -0.01103  -0.01318   2.03819
   A19        2.11464  -0.00431   0.00000  -0.00782  -0.00782   2.10682
   A20        2.01088   0.00245   0.00000   0.00736   0.00735   2.01824
   A21        2.13791   0.00168   0.00000   0.00002   0.00002   2.13793
   A22        2.11854  -0.00244   0.00000  -0.00334  -0.00344   2.11510
   A23        2.06554   0.00134   0.00000  -0.00293  -0.00303   2.06251
   A24        2.07954   0.00096   0.00000   0.00153   0.00143   2.08097
   A25        2.08005  -0.00095   0.00000  -0.00393  -0.00393   2.07613
   A26        1.94399  -0.00002   0.00000   0.00333   0.00332   1.94731
   A27        1.84601   0.00017   0.00000   0.00085   0.00085   1.84685
   A28        1.94356   0.00025   0.00000   0.00477   0.00476   1.94832
   A29        1.90591   0.00006   0.00000  -0.00080  -0.00081   1.90510
   A30        1.91169  -0.00025   0.00000  -0.00425  -0.00426   1.90743
   A31        1.91130  -0.00020   0.00000  -0.00391  -0.00391   1.90739
   A32        2.20057   0.00010   0.00000  -0.00601  -0.00601   2.19456
   A33        1.98560  -0.00010   0.00000   0.00126   0.00126   1.98685
   A34        2.09701   0.00001   0.00000   0.00473   0.00473   2.10174
    D1       -0.98908   0.00080   0.00000   0.07830   0.07749  -0.91159
    D2       -3.11214  -0.00013   0.00000   0.05791   0.05787  -3.05427
    D3        1.12435  -0.00035   0.00000   0.05997   0.06057   1.18492
    D4        1.18142   0.00113   0.00000   0.06802   0.06734   1.24876
    D5       -0.94164   0.00020   0.00000   0.04763   0.04771  -0.89393
    D6       -2.98834  -0.00002   0.00000   0.04969   0.05042  -2.93792
    D7       -3.10619   0.00080   0.00000   0.07644   0.07575  -3.03044
    D8        1.05394  -0.00013   0.00000   0.05605   0.05613   1.11007
    D9       -0.99276  -0.00035   0.00000   0.05812   0.05883  -0.93393
   D10        1.60836   0.00154   0.00000   0.09663   0.09662   1.70498
   D11       -1.65105   0.00025   0.00000  -0.02880  -0.02872  -1.67977
   D12       -0.31792   0.00181   0.00000   0.16339   0.16414  -0.15378
   D13        2.70586   0.00052   0.00000   0.03796   0.03880   2.74465
   D14       -2.81049   0.00053   0.00000   0.04142   0.04055  -2.76994
   D15        0.21329  -0.00076   0.00000  -0.08401  -0.08480   0.12849
   D16        1.16394  -0.00249   0.00000  -0.05863  -0.05847   1.10547
   D17       -1.77049  -0.00179   0.00000  -0.05643  -0.05627  -1.82676
   D18        3.12442  -0.00189   0.00000  -0.07908  -0.07983   3.04459
   D19        0.18998  -0.00119   0.00000  -0.07688  -0.07762   0.11236
   D20       -0.63644  -0.00023   0.00000   0.04236   0.04294  -0.59349
   D21        2.71231   0.00048   0.00000   0.04456   0.04515   2.75746
   D22       -2.95486  -0.00006   0.00000   0.00375   0.00383  -2.95103
   D23       -0.02635  -0.00065   0.00000  -0.02156  -0.02144  -0.04779
   D24        0.36835   0.00187   0.00000   0.08918   0.08905   0.45740
   D25       -2.98632   0.00128   0.00000   0.06387   0.06378  -2.92254
   D26       -3.05679   0.00050   0.00000   0.07846   0.07829  -2.97849
   D27        0.09018   0.00072   0.00000   0.08181   0.08164   0.17182
   D28       -0.02771  -0.00074   0.00000  -0.04109  -0.04093  -0.06863
   D29        3.11926  -0.00052   0.00000  -0.03774  -0.03758   3.08168
   D30        0.02960  -0.00024   0.00000  -0.00347  -0.00348   0.02611
   D31       -2.89725   0.00032   0.00000   0.02258   0.02259  -2.87466
   D32        2.94875  -0.00098   0.00000  -0.00506  -0.00506   2.94368
   D33        0.02190  -0.00042   0.00000   0.02099   0.02101   0.04291
   D34        2.83273  -0.00024   0.00000   0.06110   0.06110   2.89383
   D35       -0.09865   0.00126   0.00000   0.06435   0.06436  -0.03430
   D36        1.17528  -0.00060   0.00000  -0.07956  -0.07956   1.09572
   D37       -3.03923  -0.00043   0.00000  -0.07824  -0.07824  -3.11747
   D38       -0.96433  -0.00043   0.00000  -0.07985  -0.07986  -1.04419
         Item               Value     Threshold  Converged?
 Maximum Force            0.005034     0.000450     NO 
 RMS     Force            0.001385     0.000300     NO 
 Maximum Displacement     0.360690     0.001800     NO 
 RMS     Displacement     0.099724     0.001200     NO 
 Predicted change in Energy=-1.142009D-03
 GradGradGradGradGradGradGradGradGradGradGradGradGradGradGradGradGradGrad

                          Input orientation:                          
 ---------------------------------------------------------------------
 Center     Atomic      Atomic             Coordinates (Angstroms)
 Number     Number       Type             X           Y           Z
 ---------------------------------------------------------------------
      1          6           0       -1.531184   -0.514262   -1.261818
      2          6           0        0.178194   -1.722824   -0.710518
      3          6           0       -0.792745   -0.635594    1.717860
      4          6           0       -2.119014    0.109486   -0.179316
      5          1           0       -0.941176    0.063063   -1.964480
      6          1           0       -2.019239   -1.389716   -1.686559
      7          1           0       -1.895827    1.139706    0.073028
      8          6           0        0.924863   -0.817945    0.013547
      9          6           0        0.422776   -0.265724    1.224047
     10          1           0        0.556371   -2.050724   -1.673347
     11          1           0       -1.252756   -0.093694    2.537624
     12          1           0        0.899416    0.614139    1.642633
     13          1           0       -0.463448   -2.418550   -0.187209
     14          1           0       -1.233628   -1.598843    1.497004
     15          8           0        2.017603   -0.313813   -0.622155
     16          6           0        2.655784    0.824775   -0.085058
     17          1           0        3.063176    0.625316    0.912804
     18          1           0        3.474739    1.055242   -0.766128
     19          1           0        1.975256    1.682935   -0.033523
     20          6           0       -3.277962   -0.492468    0.475735
     21          8           0       -3.967126    0.036163    1.322361
     22          1           0       -3.498752   -1.533103    0.135592
 ---------------------------------------------------------------------
                    Distance matrix (angstroms):
                    1          2          3          4          5
     1  C    0.000000
     2  C    2.164839   0.000000
     3  C    3.072213   2.832280   0.000000
     4  C    1.380731   2.986085   2.431750   0.000000
     5  H    1.084042   2.452510   3.750971   2.139221   0.000000
     6  H    1.088587   2.427413   3.696358   2.128225   1.830307
     7  H    2.156476   3.620717   2.659690   1.083902   2.494386
     8  C    2.784052   1.378619   2.426544   3.187870   2.858473
     9  C    3.171632   2.434235   1.363138   2.927610   3.483557
    10  H    2.624492   1.085161   3.914459   3.749176   2.606818
    11  H    3.832774   3.905395   1.085025   2.858924   4.515595
    12  H    3.951827   3.393947   2.104971   3.561613   4.086897
    13  H    2.433342   1.081477   2.629953   3.021907   3.089550
    14  H    2.979254   2.623312   1.082129   2.551930   3.850887
    15  O    3.611542   2.318737   3.671139   4.181733   3.270818
    16  C    4.550657   3.608312   4.156386   4.828998   4.129232
    17  H    5.209200   4.058578   4.135957   5.321081   4.962835
    18  H    5.269565   4.311375   5.219247   5.703409   4.681963
    19  H    4.316422   3.909853   4.013072   4.388626   3.854628
    20  C    2.463899   3.855644   2.782025   1.461027   3.424008
    21  O    3.593712   4.940680   3.268696   2.382421   4.467709
    22  H    2.619564   3.777808   3.260608   2.168165   3.674131
                    6          7          8          9         10
     6  H    0.000000
     7  H    3.083724   0.000000
     8  C    3.447466   3.433982   0.000000
     9  C    3.962123   2.945505   1.422094   0.000000
    10  H    2.659112   4.386565   2.121589   3.405725   0.000000
    11  H    4.484517   2.830027   3.411383   2.135998   4.983491
    12  H    4.859784   3.248578   2.169201   1.084694   4.267891
    13  H    2.393123   3.844557   2.128297   2.722442   1.839547
    14  H    3.285726   3.156876   2.733044   2.143685   3.668708
    15  O    4.311220   4.232131   1.361009   2.440132   2.501412
    16  C    5.415221   4.565232   2.388376   2.808785   3.898550
    17  H    6.053758   5.055842   2.732041   2.804022   4.487030
    18  H    6.083487   5.436387   3.258618   3.875594   4.357401
    19  H    5.303744   3.910465   2.712921   2.790868   4.317692
    20  C    2.657998   2.176341   4.240671   3.782439   4.663564
    21  O    3.857589   2.658744   5.135568   4.401368   5.813037
    22  H    2.351543   3.117241   4.482713   4.262553   4.470371
                   11         12         13         14         15
    11  H    0.000000
    12  H    2.435956   0.000000
    13  H    3.667789   3.795118   0.000000
    14  H    1.829953   3.077072   2.025258   0.000000
    15  O    4.552790   2.690855   3.282485   4.088109   0.000000
    16  C    4.795699   2.472673   4.501022   4.848131   1.411429
    17  H    4.667364   2.283557   4.786672   4.873469   2.081174
    18  H    5.880820   3.553729   5.283152   5.859578   2.004567
    19  H    4.493024   2.260365   4.774209   4.838338   2.082134
    20  C    2.917510   4.476239   3.474302   2.538968   5.411126
    21  O    2.976833   4.911198   4.536538   3.189947   6.302429
    22  H    3.589729   5.121103   3.178252   2.643587   5.700089
                   16         17         18         19         20
    16  C    0.000000
    17  H    1.096121   0.000000
    18  H    1.089797   1.781301   0.000000
    19  H    1.096455   1.788201   1.783020   0.000000
    20  C    6.104012   6.453720   7.038224   5.708591   0.000000
    21  O    6.816574   7.066823   7.796260   6.313650   1.212919
    22  H    6.594436   6.951383   7.492810   6.351083   1.116856
                   21         22
    21  O    0.000000
    22  H    2.022471   0.000000
 Stoichiometry    C8H12O2
 Framework group  C1[X(C8H12O2)]
 Deg. of freedom    60
 Full point group                 C1      NOp   1
 Largest Abelian subgroup         C1      NOp   1
 Largest concise Abelian subgroup C1      NOp   1
                         Standard orientation:                         
 ---------------------------------------------------------------------
 Center     Atomic      Atomic             Coordinates (Angstroms)
 Number     Number       Type             X           Y           Z
 ---------------------------------------------------------------------
      1          6           0       -0.783812   -1.488532   -0.562034
      2          6           0        0.739733   -1.279331    0.961636
      3          6           0       -0.557517    1.235480    0.840478
      4          6           0       -1.506876   -0.329178   -0.760762
      5          1           0       -0.053935   -1.804234   -1.298755
      6          1           0       -1.243222   -2.298551    0.001733
      7          1           0       -1.270954    0.356610   -1.566293
      8          6           0        1.405804   -0.154762    0.523133
      9          6           0        0.741914    1.100799    0.451266
     10          1           0        1.253204   -2.234200    0.915295
[...]
 330,-0.00187714,-0.00311232,0.00858942,0.01274929,0.00733724,-0.000439
 43,-0.00022970,0.00017302,-0.00007922,-0.00003237,-0.00010248,0.000149
 58,-0.00003033,0.00002126,-0.00007664,0.00009101,0.00005108,-0.0139040
 8,-0.02236325,-0.00673498,-0.04019577,-0.09415359,-0.08519246,-0.00110
 888,-0.00080718,-0.00071253,-0.00243399,0.00220378,-0.00218456,0.03845
 056,0.10277295,0.08750707,-0.00886875,0.01299854,-0.00423923,-0.137760
 19,-0.12493390,0.10223130,0.00419848,0.00082410,0.00240511,0.00126692,
 -0.00016745,-0.00570257,-0.00077617,0.00054550,0.00000707,0.00056883,0
 .00057974,-0.00002673,0.00048921,-0.00035162,0.00031615,-0.01472653,-0
 .01273517,0.00454900,-0.00552192,0.00141621,0.00277960,-0.00420450,-0.
 00594659,0.00242474,-0.00031230,0.00060134,-0.00058728,-0.00022818,0.0
 0011492,0.00005333,0.16228374,0.00701364,-0.01050728,0.00274390,-0.137
 14172,-0.16757898,0.08401016,-0.00405427,-0.00008526,-0.00102789,-0.00
 083220,0.00056627,0.00470559,0.00051560,-0.00012287,0.00003667,-0.0006
 7838,0.00094317,-0.00054189,-0.00030928,0.00018205,-0.00015322,-0.0048
 8068,-0.00250970,0.01778753,0.00357074,-0.00056174,-0.00236744,0.00714
 602,0.00952060,-0.00521497,0.00051898,0.00029385,0.00043573,0.00019719
 ,-0.00002156,0.00006800,0.13266548,0.16990673,-0.00312880,0.00591609,-
 0.00145262,0.10537384,0.09118075,-0.12631925,0.00144690,-0.00299028,-0
 .00097969,0.00109603,-0.00101433,-0.00249241,-0.00039183,-0.00016653,0
 .00002505,-0.00015754,0.00002840,-0.00021710,0.00020477,-0.00009148,0.
 00007812,-0.01167173,-0.01030621,0.01067053,-0.00044062,0.00169759,-0.
 00016601,0.01298077,0.01679483,-0.00814082,-0.00008381,0.00004367,-0.0
 0003251,-0.00019167,0.00038681,0.00002613,-0.10455800,-0.09555685,0.13
 185945,-0.00310523,0.00286522,0.00180653,0.00278818,-0.00096966,0.0025
 2110,-0.09312073,-0.11443402,-0.01215322,-0.00336470,0.00300081,-0.007
 40263,0.00025635,-0.00010485,0.00022239,0.00030529,-0.00029928,0.00012
 936,0.00010912,-0.00011373,0.00021747,-0.00156418,-0.00184953,-0.00654
 730,-0.01221205,-0.02524081,-0.00375108,-0.00016092,0.00059630,-0.0003
 7243,0.00676155,0.01052094,0.00240667,-0.00139858,-0.00355896,0.005521
 30,0.00070985,0.00070241,0.00148020,0.10437364,0.00247594,-0.00195398,
 -0.00123012,-0.00088725,0.00100516,-0.00261478,-0.12376968,-0.29028392
 ,-0.06090655,0.00319812,-0.00168380,0.00476742,-0.00020483,0.00005077,
 -0.00013156,-0.00028176,0.00026887,-0.00017455,-0.00017895,0.00017546,
 -0.00018124,0.00065247,-0.00027925,0.00271916,0.00107757,-0.00279239,-
 0.00590174,0.00041849,0.00032063,0.00006739,-0.00732785,-0.00875208,-0
 .00183586,-0.00223618,0.00302782,-0.00142631,0.00030577,0.00015621,-0.
 00141541,0.12645879,0.30068589,-0.00532353,0.00431355,0.00215615,0.005
 53631,0.00023653,0.00170788,-0.00471573,-0.05918539,-0.05444484,-0.004
 24151,0.00363263,-0.01020700,0.00047015,-0.00024967,0.00034541,0.00029
 378,-0.00037747,0.00012776,0.00025595,-0.00013318,0.00011183,-0.002479
 14,-0.00285499,-0.00748204,-0.00326682,0.01087933,0.01246732,-0.000485
 01,0.00023469,0.00010169,-0.00990701,-0.02004141,-0.00039557,0.0045617
 7,-0.00287007,0.00296513,0.00174175,-0.00206238,-0.00233291,0.01772306
 ,0.06697722,0.05544733,0.00846856,-0.00612211,0.00181654,-0.04610658,-
 0.02861956,0.01030292,0.00610772,0.00029577,0.00192710,-0.01200199,-0.
 00066884,0.00353194,0.00032465,0.00080895,-0.00136627,-0.00012131,0.00
 072862,-0.00043881,-0.00006150,-0.00021667,0.00040287,-0.21828180,-0.0
 7098136,0.10909968,-0.01953099,-0.01078757,0.02539628,0.00003968,0.001
 71388,0.00069614,-0.00097111,0.00004140,-0.00018734,-0.00180022,0.0011
 3301,-0.00174887,0.00306227,-0.00372114,-0.00088622,0.00000722,0.00103
 865,-0.00047654,0.41038802,0.00796149,-0.00501950,-0.00013589,-0.04693
 210,-0.01725874,0.01276206,-0.00412288,0.00067231,-0.00406051,-0.00661
 234,-0.00018714,0.00519880,-0.00141978,0.00014485,-0.00121600,-0.00002
 079,0.00080265,-0.00057309,-0.00032577,0.00002832,0.00008554,-0.091372
 21,-0.09643936,0.02448443,0.00709137,0.00829217,-0.00288745,0.00312206
 ,-0.00076120,0.00281132,0.00072993,0.00008912,0.00008794,-0.00101650,-
 0.00071355,0.00195940,-0.00448318,-0.00158474,-0.00338096,0.00072458,0
 .00047320,0.00002097,0.23672380,0.32785909,-0.00068015,0.00033123,-0.0
 0096580,-0.00807579,-0.00331013,0.01976401,-0.00402786,-0.00608933,-0.
 00329790,0.00605447,0.00009757,0.00020332,0.00158063,-0.00004171,0.000
 86154,-0.00030574,-0.00034695,0.00046563,-0.00007186,0.00021779,-0.000
 24865,0.08640876,0.00130719,-0.14888755,0.03759859,0.01590762,-0.02000
 321,-0.00137870,0.00221361,-0.00030729,0.00165532,0.00039907,-0.000309
 04,-0.00109110,0.00016887,0.00125800,-0.00216621,-0.00292004,-0.001221
 43,0.00014407,-0.00017482,0.00053916,-0.08227894,0.07951444,0.27275656
 ,-0.00198573,0.00135528,-0.00000775,0.00240720,-0.00071088,0.00519857,
 -0.00114577,-0.00164416,-0.00129093,0.00326604,0.00027355,-0.00099465,
 -0.00007695,0.00003562,0.00004288,0.00013505,-0.00016674,0.00010810,-0
 .00007620,0.00010877,-0.00008927,-0.03574605,-0.03147299,-0.00751343,0
 .00051460,0.00245879,-0.00148290,-0.00042102,0.00023739,-0.00068227,0.
 00032972,0.00010326,-0.00009352,-0.00259550,-0.00235025,0.00097163,-0.
 00019168,-0.00066340,-0.00068286,-0.00011721,-0.00032964,0.00038247,-0
 .11537501,-0.06110541,-0.01852240,0.59518079,-0.00163697,0.00046526,-0
 .00090239,0.00330563,0.00388744,0.00070855,-0.00213361,-0.00160705,-0.
 00164701,0.00394369,0.00059397,0.00018604,-0.00026642,0.00008349,0.000
 28190,-0.00018944,-0.00000197,-0.00001265,0.00013208,0.00009189,-0.000
 20200,-0.02235317,-0.02278737,0.00583081,0.00593380,0.00384570,-0.0025
 3546,0.00016844,-0.00044469,0.00017154,0.00046263,0.00005417,-0.000134
 61,0.00037437,-0.00058520,-0.00065612,-0.00095250,0.00158072,-0.000613
 02,-0.00032253,-0.00039370,0.00017506,-0.07595916,-0.17187587,-0.05979
 993,-0.03203909,0.53683167,-0.00083911,0.00049059,-0.00023272,0.004380
 09,0.00053656,-0.00174003,-0.00106486,-0.00055390,-0.00011633,0.002308
 68,0.00034101,-0.00034059,-0.00000987,0.00003094,0.00008838,-0.0000360
 3,-0.00012304,0.00003485,-0.00000199,0.00004923,-0.00009323,0.00589231
 ,0.01618260,0.01097348,0.00557059,0.00505234,-0.00273835,-0.00045656,0
 .00045308,-0.00009624,0.00015857,0.00000694,-0.00004679,0.00252759,0.0
 0096568,-0.00104164,0.00091223,0.00028379,0.00067838,0.00002604,-0.000
 16767,0.00033448,-0.03818163,-0.07769011,-0.12031744,-0.04606574,-0.03
 241075,0.60228749,0.00088259,-0.00048424,-0.00014073,-0.00131388,-0.00
 065702,-0.00011803,-0.00063530,0.00002424,0.00024895,-0.00009091,0.000
 05634,0.00071840,-0.00000329,0.00002273,0.00000021,-0.00004576,0.00001
 276,-0.00000890,-0.00000944,0.00002950,-0.00004471,0.00394565,0.002910
 50,-0.00363945,0.00035048,0.00007944,0.00016283,-0.00000201,0.00019960
 ,0.00005235,-0.00003187,0.00001928,-0.00004366,-0.00221272,0.00067234,
 0.00008387,0.00014047,-0.00027014,0.00004803,0.00012822,0.00005344,0.0
 0008156,-0.01162213,-0.00628591,-0.01916405,-0.08125602,0.02407455,-0.
 07372991,0.08597890,0.00062554,-0.00040616,-0.00002714,-0.00091963,-0.
 00090461,-0.00012715,-0.00038890,-0.00041098,-0.00003905,-0.00012191,0
 .00001611,0.00036007,0.00002533,-0.00000384,-0.00005190,-0.00002149,0.
 00003469,-0.00002401,-0.00005523,0.00000711,0.00000994,0.00381935,0.00
 328818,-0.00302507,0.00018544,0.00093898,0.00123879,-0.00006068,0.0002
 3402,-0.00001360,-0.00004313,0.00003325,-0.00001504,-0.00062718,-0.000
 23110,-0.00005459,0.00014894,-0.00026523,0.00009559,-0.00004064,-0.000
 03207,0.00012688,-0.01887492,-0.00003679,-0.03276513,0.02640203,-0.074
 05232,0.07058520,-0.02038272,0.07708542,0.00024759,-0.00002686,0.00014
 330,-0.00075970,-0.00051469,0.00017089,0.00053109,0.00063329,0.0002434
 3,-0.00083318,-0.00013860,-0.00002430,0.00006169,-0.00002403,-0.000015
 01,0.00003065,-0.00001107,0.00001586,0.00002000,-0.00002100,0.00003274
 ,0.00371426,0.00149653,-0.00158240,-0.00038196,-0.00131924,0.00024622,
 0.00005897,0.00014516,0.00005294,-0.00002631,-0.00004393,0.00007011,0.
 00117076,0.00044505,0.00041287,0.00002423,-0.00012549,0.00002354,0.000
 03007,0.00015961,-0.00022306,-0.01205998,-0.01014516,-0.01146709,-0.07
 767604,0.06649613,-0.26704779,0.08995792,-0.06406622,0.29205677,0.0002
 3309,-0.00016502,0.00002775,-0.00078777,-0.00047944,0.00054600,0.00005
 900,0.00001717,0.00012937,-0.00029417,-0.00001160,0.00008780,-0.000024
 68,0.00001158,-0.00000566,-0.00000175,0.00001935,-0.00001469,0.0000157
 8,-0.00001898,0.00001858,0.00123613,-0.00078612,-0.00276499,0.00029293
 ,-0.00038083,-0.00009760,0.00002715,-0.00002131,-0.00001183,-0.0000168
 6,-0.00002005,0.00002711,-0.00008434,0.00018124,-0.00020758,-0.0001418
 0,-0.00017617,-0.00015309,-0.00001757,0.00002576,-0.00005957,-0.019820
 15,-0.01108913,0.00869871,-0.21444770,-0.02935437,0.13329722,0.0113390
 1,0.00237202,-0.00683017,0.23484528,0.00029362,-0.00017247,-0.00000224
 ,-0.00123766,-0.00046596,0.00078878,-0.00003507,0.00046533,0.00020833,
 -0.00027921,-0.00006126,0.00015646,-0.00002908,0.00000015,-0.00003587,
 0.00000036,0.00002688,-0.00001001,-0.00003339,0.00000480,0.00000721,-0
 .00098631,-0.00223635,-0.00341567,0.00007803,-0.00058662,-0.00095421,0
 .00003899,0.00000682,-0.00002674,-0.00007860,0.00000436,-0.00002178,0.
 00044633,0.00042812,0.00039036,-0.00016758,-0.00024250,-0.00019516,0.0
 0016415,-0.00000440,-0.00000809,-0.03127896,-0.01384622,0.01599691,-0.
 02231512,-0.05465389,0.02298867,-0.00669978,-0.00053008,0.00646246,0.0
 4208104,0.06486257,0.00020993,-0.00009470,-0.00000365,-0.00057988,-0.0
 0031898,0.00051311,-0.00013537,0.00038387,0.00026350,0.00003781,0.0000
 3503,0.00016922,-0.00001565,0.00001340,-0.00000361,0.00000300,0.000003
 89,0.00000263,-0.00001011,0.00001738,-0.00001367,-0.00185893,-0.002207
 29,-0.00080598,0.00039945,-0.00098131,-0.00069930,0.00003798,0.0000082
 7,-0.00000984,-0.00001195,-0.00002241,0.00002015,0.00020637,0.00083740
 ,0.00017984,-0.00011823,-0.00016855,-0.00012732,0.00010152,0.00003802,
 -0.00006202,-0.01737904,-0.00629908,0.01146046,0.14210520,0.03056438,-
 0.16692337,0.02293832,0.00292732,-0.01581817,-0.14482919,-0.02500572,0
 .17131721,0.00077544,-0.00057875,-0.00026712,-0.00132256,0.00018915,-0
 .00090125,-0.00109897,-0.00008565,-0.00037471,0.00005550,-0.00001185,0
 .00075947,-0.00011945,0.00000076,-0.00006114,-0.00007890,0.00008533,-0
 .00007456,-0.00001995,0.00003167,-0.00000845,0.00402417,0.00028106,-0.
 00044281,0.00050074,0.00076236,0.00063398,0.00012091,-0.00005707,0.000
 12044,0.00003244,-0.00003184,0.00004031,-0.00055993,-0.00153700,0.0011
 3242,-0.00008507,0.00009089,-0.00001913,-0.00006073,-0.00003863,0.0000
 1491,0.01277372,-0.02374179,-0.00206826,-0.14718896,0.12835971,0.00620
 759,-0.00554132,0.00789364,0.00243385,-0.01255334,0.01993334,-0.001062
 36,0.15041845,0.00100900,-0.00069982,0.00004926,-0.00211168,-0.0004592
 3,-0.00036742,-0.00028828,0.00059260,0.00020430,-0.00082042,-0.0000379
 6,0.00062805,-0.00004939,-0.00000554,-0.00014519,-0.00001748,0.0001065
 7,-0.00006824,-0.00010653,0.00001892,0.00001705,0.00686595,0.00245828,
 -0.00339876,-0.00021311,-0.00033297,-0.00009229,0.00027843,-0.00002256
 ,0.00027247,-0.00008024,-0.00000879,0.00000281,-0.00028151,-0.00016808
 ,0.00120981,-0.00007614,-0.00002127,-0.00003689,0.00021453,0.00006092,
 0.00002242,-0.00042357,-0.03372238,-0.00845854,0.12321681,-0.21924997,
 -0.00600583,0.00656312,-0.00488668,0.00027355,-0.00234917,0.00685476,0
 .00029380,-0.13159067,0.24912137,0.00006818,-0.00005758,0.00014408,-0.
 00038317,-0.00013942,-0.00010094,0.00039024,-0.00026281,0.00002204,-0.
 00050313,-0.00002623,-0.00006972,-0.00006459,-0.00003940,-0.00007955,0
 .00003982,0.00003695,-0.00004549,0.00000725,-0.00002362,0.00005887,0.0
 0185719,0.00115709,-0.00086298,-0.00054680,0.00057267,0.00057184,0.000
 10719,-0.00006501,0.00009794,-0.00004269,0.00003516,-0.00001224,0.0004
 2039,0.00083762,-0.00101551,-0.00007472,0.00005593,-0.00001596,-0.0000
 8724,-0.00000097,0.00000659,0.00411397,-0.01943179,-0.00146791,0.00576
 221,-0.00617378,-0.05404388,-0.01738316,0.02487634,0.00284583,0.012200
 84,-0.01728246,0.00053759,-0.00610660,0.01572129,0.05352416,-0.0224310
 3,0.00721236,0.01684380,0.00657055,0.00048341,0.00451869,-0.01684397,0
 .00322145,-0.00813518,-0.16540708,-0.07927797,0.05341521,0.00509881,-0
 .00327644,0.00152228,-0.00340951,-0.00075356,-0.00271615,-0.00091318,0
 .00075764,0.00111586,-0.00640758,-0.00361202,0.00765916,0.00516750,-0.
 00225358,-0.00639508,-0.00016985,-0.00004497,-0.00023324,0.00191657,-0
 .00038082,0.00127128,0.00030836,-0.00003010,0.00030636,-0.00008392,0.0
 0054482,-0.00059060,-0.00053646,-0.00102380,-0.00039567,0.00881903,0.0
 0485846,-0.00433442,-0.00256578,-0.00300645,-0.00180484,0.00004996,0.0
 0014668,0.00059052,0.00030727,0.00020993,-0.00008802,-0.00005945,0.000
 51828,0.00041431,0.58116108,0.00481003,0.01714579,-0.00195759,0.008924
 76,0.00008555,0.00358582,0.00238943,0.00156949,0.00119345,-0.08530853,
 -0.15868206,0.01994134,-0.00056111,-0.00082756,-0.00484485,0.00428783,
 -0.00112086,-0.00163100,-0.02524337,-0.01197060,0.01370856,-0.00269650
 ,-0.00607094,0.00095306,-0.00047212,-0.00181748,-0.00162256,-0.0000952
 4,-0.00023996,0.00000872,-0.00081622,-0.00049740,-0.00045979,-0.000193
 70,0.00023076,0.00021866,0.00052455,0.00012972,-0.00021499,0.00283972,
 0.00011405,0.00167921,0.00521987,0.00304721,-0.00252794,-0.00144737,-0
 .00168892,-0.00098743,0.00007631,0.00011059,0.00032713,0.00014318,0.00
 013539,-0.00002751,0.00006114,0.00038130,0.00021396,-0.01307351,0.6030
 5552,0.03588295,0.00260426,-0.02561525,-0.00760477,-0.00002176,-0.0056
 2071,0.00504606,-0.00190635,0.00196190,0.03596960,0.01449305,-0.084462
 39,0.00562503,-0.00390550,-0.00137330,-0.00104118,0.00492378,-0.001717
 05,-0.00834600,-0.00690600,0.00506963,0.00439814,0.00424063,-0.0044463
 6,-0.00359693,0.00207915,0.00532524,0.00028979,-0.00016800,0.00036732,
 -0.00206652,0.00038814,-0.00207925,0.00004488,0.00001446,-0.00031577,0
 .00073433,-0.00047176,0.00074996,-0.00269834,0.00273046,-0.00109684,-0
 .00733768,-0.00393910,0.00299623,0.00196264,0.00228512,0.00142670,-0.0
 0011938,-0.00008494,-0.00047811,-0.00021162,-0.00017072,0.00001337,0.0
 0004805,-0.00045771,-0.00027878,-0.33736467,0.23277056,0.60953200,0.00
 398412,-0.01248143,-0.00161464,-0.00507776,-0.00007177,-0.00299429,0.0
 0119695,-0.00216177,0.00330201,-0.03832141,0.01371014,0.05167732,-0.00
 232435,0.00213694,0.00094811,0.00068440,0.00059579,-0.00005020,0.00163
 476,0.00060313,-0.00227123,0.00351177,0.00396772,-0.00139460,-0.000991
 47,0.00167890,0.00049438,0.00005944,-0.00000100,0.00007953,0.00002562,
 -0.00025761,0.00012789,-0.00004862,-0.00012450,-0.00010835,0.00032047,
 -0.00042338,0.00043446,0.00015410,0.00027391,0.00037355,-0.00443106,-0
 .00283782,0.00203168,0.00137617,0.00152039,0.00094028,-0.00005278,-0.0
 0009457,-0.00031057,-0.00016791,-0.00011557,0.00004658,-0.00003377,-0.
 00028403,-0.00019789,-0.31584816,0.14933537,0.29460202,0.34055405,-0.0
 0524050,0.00149963,0.00235110,0.00018664,-0.00008011,0.00074288,-0.002
 47183,0.00043800,-0.00196916,0.00317663,0.02810853,0.00449519,0.000695
 28,-0.00004069,0.00127448,-0.00104790,0.00007069,0.00117928,0.00407428
 ,0.00259914,-0.00157796,-0.00106640,-0.00000074,0.00063997,0.00109588,
 0.00004619,-0.00045451,-0.00002036,0.00009260,-0.00008443,0.00061339,-
 0.00016795,0.00064665,0.00019464,-0.00003414,0.00001275,-0.00043181,0.
 00017545,-0.00019070,-0.00055358,-0.00013788,-0.00015168,0.00082975,0.
 00050869,-0.00024628,-0.00023847,-0.00032244,-0.00019471,0.00000123,0.
 00001653,0.00005811,0.00003145,0.00002453,-0.00000616,-0.00000684,0.00
 006007,0.00003491,0.14309217,-0.21120887,-0.20243693,-0.16851020,0.191
 89473,-0.00577836,0.00834869,0.00725537,0.00598597,0.00019456,0.003783
 58,-0.00518754,0.00154582,-0.00284528,0.05114187,-0.00445681,-0.025166
 74,-0.00010607,-0.00012769,-0.00049939,0.00004448,-0.00127277,0.001187
 83,-0.00158123,0.00169844,-0.00082471,-0.00405105,-0.00377116,0.001774
 74,0.00166237,-0.00105582,-0.00243358,-0.00010447,0.00006950,-0.000142
 79,0.00196046,-0.00006571,0.00154391,0.00007043,0.00000218,0.00021976,
 -0.00070689,0.00042519,-0.00057493,0.00058331,-0.00131555,-0.00013152,
 0.00545597,0.00298709,-0.00201261,-0.00152529,-0.00174263,-0.00110985,
 0.00009743,0.00008381,0.00036683,0.00016126,0.00013805,-0.00001564,-0.
 00000899,0.00035950,0.00019830,0.29144334,-0.20749935,-0.42586634,-0.3
 5833282,0.23484229,0.45751296,-0.00081655,0.00016666,-0.00090558,0.000
 35560,-0.00015257,0.00036465,0.00097927,-0.00008450,0.00058328,0.00163
 547,-0.02674237,-0.00328866,0.00008496,0.00042996,0.00000224,0.0001786
 0,0.00060195,0.00075328,-0.00270299,-0.00243199,0.00337849,-0.00007247
 ,-0.00049245,-0.00031800,-0.00003520,-0.00001902,0.00023781,0.00000941
 ,0.00005170,-0.00003187,-0.00008350,0.00000670,-0.00002555,0.00001142,
 0.00005878,0.00000326,-0.00013923,0.00018499,-0.00010912,0.00006484,0.
 00029967,-0.00008473,0.00013298,0.00015394,-0.00000674,-0.00001996,-0.
 00006156,-0.00003064,0.00000213,0.00001203,0.00000633,0.00000239,0.000
 01054,0.00000258,0.00002102,0.00002608,0.00000840,-0.07472316,-0.04870
 451,-0.01421638,0.01379543,0.02559656,0.01877581,0.06131955,0.00250738
 ,-0.00118086,-0.00111967,-0.00131101,-0.00010406,-0.00055291,-0.000134
 24,-0.00046311,-0.00023501,-0.00683837,-0.01365670,-0.00940829,0.00026
 127,0.00042347,0.00057883,-0.00057113,0.00062134,0.00114287,-0.0032444
 7,-0.00049317,0.00036915,0.00036600,0.00091316,-0.00063072,0.00000844,
 0.00059989,0.00056116,0.00003896,0.00007377,-0.00001148,0.00021780,0.0
 0011349,0.00022926,0.00010255,-0.00002386,-0.00003655,-0.00047915,0.00
 004637,0.00002911,-0.00059985,-0.00002552,-0.00036417,-0.00087987,-0.0
 0047210,0.00052650,0.00029202,0.00022909,0.00016680,-0.00001557,-0.000
 00501,-0.00006075,-0.00003059,-0.00001395,0.00000895,-0.00000897,-0.00
 003956,-0.00003884,-0.05431199,-0.23188070,-0.04606085,0.01354136,-0.0
 1354196,-0.02938764,0.05108942,0.25887999,-0.00057415,0.00178407,0.001
 20367,-0.00033948,-0.00015224,-0.00018347,0.00052690,-0.00044290,0.000
 67473,0.00832406,0.00611433,0.00925887,-0.00048493,0.00024398,0.000158
 87,-0.00034528,-0.00040496,-0.00016672,0.00290268,0.00016434,0.0009558
 2,0.00029187,0.00005071,-0.00022982,-0.00019555,0.00007172,0.00015153,
 0.00003923,-0.00000164,0.00000707,0.00004198,0.00001697,-0.00000152,-0
 .00005160,0.00004220,-0.00004756,0.00000104,0.00005801,-0.00003820,0.0
 0009915,0.00001784,0.00006505,-0.00040208,-0.00015286,0.00020099,0.000
 09336,0.00013084,0.00006447,0.00000210,-0.00001007,-0.00002541,-0.0000
 0865,-0.00000857,0.00000546,0.00000436,-0.00002345,-0.00001427,-0.0170
 4295,-0.05282744,-0.07409220,0.01221678,-0.03896511,-0.01221991,-0.005
 09885,0.08429423,0.07427254\\0.00001105,-0.00002115,-0.00001395,-0.000
 00702,-0.00000126,-0.00000373,-0.00002929,0.00000060,0.00000674,-0.000
 00030,0.00001800,0.00000152,0.00000098,-0.00000195,0.00000049,0.000001
 34,0.00000016,-0.00000485,0.00000219,-0.00000211,0.00000394,0.00000084
 ,0.00001634,0.00002481,0.00001673,0.00000540,-0.00001936,-0.00000174,0
 .00000210,-0.00000090,-0.00000111,-0.00000307,0.00000125,-0.00000343,-
 0.00000040,0.00000002,0.00000748,-0.00000294,0.00000274,0.00001149,-0.
 00000930,0.00000869,0.00000305,0.00000477,-0.00000718,0.00000004,-0.00
 000148,0.00000239,-0.00000302,0.00000506,0.00000316,-0.00000068,0.0000
 0209,0.00000297,-0.00000180,0.00000337,-0.00000118,-0.00001345,-0.0000
 0472,-0.00000153,0.00000551,-0.00000607,-0.00000521,0.00000113,-0.0000
 0344,-0.00000084\\\@
 The archive entry for this job was punched.


 ... IT CAN BE VERY DIFFICULT, IN THESE COMPLEX TIMES,
 TO UNDERSTAND JUST HOW SCIENTISTS DO WHAT THEY DO.

                     DON MOSER IN THE FEBRUARY 1979 SMITHSONIAN
 Job cpu time:       0 days  0 hours 22 minutes 57.2 seconds.
 Elapsed time:       0 days  0 hours  1 minutes 27.7 seconds.
 File lengths (MBytes):  RWF=     84 Int=      0 D2E=      0 Chk=      4 Scr=      1
 Normal termination of Gaussian 16 at Tue Jun 21 10:23:17 2022.
