Job Start Time: Tue Jun 21 10:35:43 MDT 2022
SLURM Job ID: 40879
SLURM Job Name: DATS_13_exo_iv
 Entering Gaussian System, Link 0=/opt/apps/Gaussian/G16C/g16/g16
 Initial command:
 /opt/apps/Gaussian/G16C/g16/l1.exe "/tmp/Gau-2591884.inp" -scrdir="/tmp/"
 Entering Link 1 = /opt/apps/Gaussian/G16C/g16/l1.exe PID=   2591885.
  
 Copyright (c) 1988-2019, Gaussian, Inc.  All Rights Reserved.
  
 This is part of the Gaussian(R) 16 program.  It is based on
 the Gaussian(R) 09 system (copyright 2009, Gaussian, Inc.),
 the Gaussian(R) 03 system (copyright 2003, Gaussian, Inc.),
 the Gaussian(R) 98 system (copyright 1998, Gaussian, Inc.),
 the Gaussian(R) 94 system (copyright 1995, Gaussian, Inc.),
 the Gaussian 92(TM) system (copyright 1992, Gaussian, Inc.),
 the Gaussian 90(TM) system (copyright 1990, Gaussian, Inc.),
 the Gaussian 88(TM) system (copyright 1988, Gaussian, Inc.),
 the Gaussian 86(TM) system (copyright 1986, Carnegie Mellon
 University), and the Gaussian 82(TM) system (copyright 1983,
 Carnegie Mellon University). Gaussian is a federally registered
 trademark of Gaussian, Inc.
  
 This software contains proprietary and confidential information,
 including trade secrets, belonging to Gaussian, Inc.
  
 This software is provided under written license and may be
 used, copied, transmitted, or stored only in accord with that
 written license.
  
 The following legend is applicable only to US Government
 contracts under FAR:
  
                    RESTRICTED RIGHTS LEGEND
  
 Use, reproduction and disclosure by the US Government is
 subject to restrictions as set forth in subparagraphs (a)
 and (c) of the Commercial Computer Software - Restricted
 Rights clause in FAR 52.227-19.
  
 Gaussian, Inc.
 340 Quinnipiac St., Bldg. 40, Wallingford CT 06492
  
  
 ---------------------------------------------------------------
 Warning -- This program may not be used in any manner that
 competes with the business of Gaussian, Inc. or will provide
 assistance to any competitor of Gaussian, Inc.  The licensee
 of this program is prohibited from giving any competitor of
 Gaussian, Inc. access to this program.  By using this program,
 the user acknowledges that Gaussian, Inc. is engaged in the
 business of creating and licensing software in the field of
 computational chemistry and represents and warrants to the
 licensee that it is not a competitor of Gaussian, Inc. and that
 it will not use this program in any manner prohibited above.
 ---------------------------------------------------------------
  

 Cite this work as:
 Gaussian 16, Revision C.01,
 M. J. Frisch, G. W. Trucks, H. B. Schlegel, G. E. Scuseria, 
 M. A. Robb, J. R. Cheeseman, G. Scalmani, V. Barone, 
 G. A. Petersson, H. Nakatsuji, X. Li, M. Caricato, A. V. Marenich, 
 J. Bloino, B. G. Janesko, R. Gomperts, B. Mennucci, H. P. Hratchian, 
 J. V. Ortiz, A. F. Izmaylov, J. L. Sonnenberg, D. Williams-Young, 
 F. Ding, F. Lipparini, F. Egidi, J. Goings, B. Peng, A. Petrone, 
 T. Henderson, D. Ranasinghe, V. G. Zakrzewski, J. Gao, N. Rega, 
 G. Zheng, W. Liang, M. Hada, M. Ehara, K. Toyota, R. Fukuda, 
 J. Hasegawa, M. Ishida, T. Nakajima, Y. Honda, O. Kitao, H. Nakai, 
 T. Vreven, K. Throssell, J. A. Montgomery, Jr., J. E. Peralta, 
 F. Ogliaro, M. J. Bearpark, J. J. Heyd, E. N. Brothers, K. N. Kudin, 
 V. N. Staroverov, T. A. Keith, R. Kobayashi, J. Normand, 
 K. Raghavachari, A. P. Rendell, J. C. Burant, S. S. Iyengar, 
 J. Tomasi, M. Cossi, J. M. Millam, M. Klene, C. Adamo, R. Cammi, 
 J. W. Ochterski, R. L. Martin, K. Morokuma, O. Farkas, 
 J. B. Foresman, and D. J. Fox, Gaussian, Inc., Wallingford CT, 2019.
 
 ******************************************
 Gaussian 16:  AS64L-G16RevC.01  3-Jul-2019
                21-Jun-2022 
 ******************************************
 %chk=DATS_13_exo_iv.chk
 %nprocshared=16
 Will use up to   16 processors via shared memory.
 -------------------------------------------------
 # opt=(calcfc,ts,noeigentest) freq 6-31g(d) m062x
 -------------------------------------------------
 1/5=1,10=4,11=1,18=20,26=3,38=1/1,3;
 2/9=110,12=2,17=6,18=5,40=1/2;
 3/5=1,6=6,7=1,11=2,25=1,30=1,71=2,74=-55,140=1/1,2,3;
 4//1;
 5/5=2,38=5/2;
 8/6=4,10=90,11=11/1;
 11/6=1,8=1,9=11,15=111,16=1/1,2,10;
 10/6=1,13=1/2;
 6/7=2,8=2,9=2,10=2,28=1/1;
 7/10=1,25=1/1,2,3,16;
 1/5=1,10=4,11=1,18=20,26=3/3(2);
 2/9=110/2;
 99//99;
 2/9=110/2;
 3/5=1,6=6,7=1,11=2,25=1,30=1,71=1,74=-55/1,2,3;
 4/5=5,16=3,69=1/1;
 5/5=2,38=5/2;
 7//1,2,3,16;
 1/5=1,11=1,18=20,26=3/3(-5);
 2/9=110/2;
 6/7=2,8=2,9=2,10=2,19=2,28=1/1;
 99/9=1/99;
 -------------------
 Title Card Required
 -------------------
 Symbolic Z-matrix:
 Charge =  0 Multiplicity = 1
 C                    -0.55011  -1.46263  -0.28026 
 C                     0.92432  -0.64324   0.9763 
 C                    -0.79943   1.53281   0.37547 
 C                    -1.52191  -0.52855  -0.62626 
 H                     0.15354  -1.79909  -1.03409 
 H                    -0.80833  -2.2161    0.46192 
 H                    -1.50437  -0.02427  -1.58561 
 C                     1.37154   0.45728   0.25726 
 C                     0.49714   1.52398  -0.05277 
 H                     1.58517  -1.48023   1.17233 
 H                    -1.50989   2.25892  -0.00646 
 H                     0.19083  -0.46643   1.75205 
 H                    -1.10011   1.03415   1.28935 
 C                    -2.77998  -0.48695   0.11467 
 O                    -3.76615   0.14751  -0.19703 
 H                    -2.77441  -1.09918   1.04876 
 O                     0.92744   2.417    -1.08342 
 C                     0.20568   3.64724  -0.9811 
 H                     0.70285   4.40122  -1.55489 
 H                    -0.78716   3.51052  -1.3559 
 H                     0.1613    3.95052   0.04407 
 H                     2.29038   0.47763  -0.29066 
 
 Add virtual bond connecting atoms C2         and C1         Dist= 3.97D+00.

 GradGradGradGradGradGradGradGradGradGradGradGradGradGradGradGradGradGrad
 Berny optimization.
 Initialization pass.
                           ----------------------------
                           !    Initial Parameters    !
                           ! (Angstroms and Degrees)  !
 --------------------------                            --------------------------
 ! Name  Definition              Value          Derivative Info.                !
 --------------------------------------------------------------------------------
 ! R1    R(1,2)                  2.1034         calculate D2E/DX2 analytically  !
 ! R2    R(1,4)                  1.3916         calculate D2E/DX2 analytically  !
 ! R3    R(1,5)                  1.0847         calculate D2E/DX2 analytically  !
 ! R4    R(1,6)                  1.0887         calculate D2E/DX2 analytically  !
 ! R5    R(2,8)                  1.3886         calculate D2E/DX2 analytically  !
 ! R6    R(2,10)                 1.0843         calculate D2E/DX2 analytically  !
 ! R7    R(2,12)                 1.0821         calculate D2E/DX2 analytically  !
 ! R8    R(3,9)                  1.3655         calculate D2E/DX2 analytically  !
 ! R9    R(3,11)                 1.0853         calculate D2E/DX2 analytically  !
 ! R10   R(3,13)                 1.0836         calculate D2E/DX2 analytically  !
 ! R11   R(4,7)                  1.084          calculate D2E/DX2 analytically  !
 ! R12   R(4,14)                 1.4606         calculate D2E/DX2 analytically  !
 ! R13   R(8,9)                  1.4137         calculate D2E/DX2 analytically  !
 ! R14   R(8,22)                 1.07           calculate D2E/DX2 analytically  !
 ! R15   R(9,17)                 1.43           calculate D2E/DX2 analytically  !
 ! R16   R(14,15)                1.2134         calculate D2E/DX2 analytically  !
 ! R17   R(14,16)                1.1169         calculate D2E/DX2 analytically  !
 ! R18   R(17,18)                1.43           calculate D2E/DX2 analytically  !
 ! R19   R(18,19)                1.07           calculate D2E/DX2 analytically  !
 ! R20   R(18,20)                1.07           calculate D2E/DX2 analytically  !
 ! R21   R(18,21)                1.07           calculate D2E/DX2 analytically  !
 ! A1    A(2,1,4)              112.121          calculate D2E/DX2 analytically  !
 ! A2    A(2,1,5)               94.6618         calculate D2E/DX2 analytically  !
 ! A3    A(2,1,6)               91.6393         calculate D2E/DX2 analytically  !
 ! A4    A(4,1,5)              119.2361         calculate D2E/DX2 analytically  !
 ! A5    A(4,1,6)              117.9317         calculate D2E/DX2 analytically  !
 ! A6    A(5,1,6)              114.3907         calculate D2E/DX2 analytically  !
 ! A7    A(1,2,8)              103.0122         calculate D2E/DX2 analytically  !
 ! A8    A(1,2,10)             103.5634         calculate D2E/DX2 analytically  !
 ! A9    A(1,2,12)              90.9607         calculate D2E/DX2 analytically  !
 ! A10   A(8,2,10)             120.6042         calculate D2E/DX2 analytically  !
 ! A11   A(8,2,12)             117.3881         calculate D2E/DX2 analytically  !
 ! A12   A(10,2,12)            114.1815         calculate D2E/DX2 analytically  !
 ! A13   A(9,3,11)             121.0341         calculate D2E/DX2 analytically  !
 ! A14   A(9,3,13)             121.6668         calculate D2E/DX2 analytically  !
 ! A15   A(11,3,13)            115.0258         calculate D2E/DX2 analytically  !
 ! A16   A(1,4,7)              121.4008         calculate D2E/DX2 analytically  !
 ! A17   A(1,4,14)             119.6343         calculate D2E/DX2 analytically  !
 ! A18   A(7,4,14)             116.7211         calculate D2E/DX2 analytically  !
 ! A19   A(2,8,9)              120.8216         calculate D2E/DX2 analytically  !
 ! A20   A(2,8,22)             123.8355         calculate D2E/DX2 analytically  !
 ! A21   A(9,8,22)             113.8592         calculate D2E/DX2 analytically  !
 ! A22   A(3,9,8)              121.561          calculate D2E/DX2 analytically  !
 ! A23   A(3,9,17)             120.5119         calculate D2E/DX2 analytically  !
 ! A24   A(8,9,17)             116.3049         calculate D2E/DX2 analytically  !
 ! A25   A(4,14,15)            125.7765         calculate D2E/DX2 analytically  !
 ! A26   A(4,14,16)            113.8509         calculate D2E/DX2 analytically  !
 ! A27   A(15,14,16)           120.3668         calculate D2E/DX2 analytically  !
 ! A28   A(9,17,18)            109.5            calculate D2E/DX2 analytically  !
 ! A29   A(17,18,19)           109.4712         calculate D2E/DX2 analytically  !
 ! A30   A(17,18,20)           109.4712         calculate D2E/DX2 analytically  !
 ! A31   A(17,18,21)           109.4712         calculate D2E/DX2 analytically  !
 ! A32   A(19,18,20)           109.4713         calculate D2E/DX2 analytically  !
 ! A33   A(19,18,21)           109.4712         calculate D2E/DX2 analytically  !
 ! A34   A(20,18,21)           109.4712         calculate D2E/DX2 analytically  !
 ! D1    D(4,1,2,8)            -54.776          calculate D2E/DX2 analytically  !
 ! D2    D(4,1,2,10)           178.8351         calculate D2E/DX2 analytically  !
 ! D3    D(4,1,2,12)            63.6537         calculate D2E/DX2 analytically  !
 ! D4    D(5,1,2,8)             69.4262         calculate D2E/DX2 analytically  !
 ! D5    D(5,1,2,10)           -56.9627         calculate D2E/DX2 analytically  !
 ! D6    D(5,1,2,12)          -172.1441         calculate D2E/DX2 analytically  !
 ! D7    D(6,1,2,8)           -175.9392         calculate D2E/DX2 analytically  !
 ! D8    D(6,1,2,10)            57.6719         calculate D2E/DX2 analytically  !
 ! D9    D(6,1,2,12)           -57.5095         calculate D2E/DX2 analytically  !
 ! D10   D(2,1,4,7)            100.1944         calculate D2E/DX2 analytically  !
 ! D11   D(2,1,4,14)           -97.3799         calculate D2E/DX2 analytically  !
 ! D12   D(5,1,4,7)             -8.9562         calculate D2E/DX2 analytically  !
 ! D13   D(5,1,4,14)           153.4695         calculate D2E/DX2 analytically  !
 ! D14   D(6,1,4,7)           -155.3007         calculate D2E/DX2 analytically  !
 ! D15   D(6,1,4,14)             7.125          calculate D2E/DX2 analytically  !
 ! D16   D(1,2,8,9)             62.527          calculate D2E/DX2 analytically  !
 ! D17   D(1,2,8,22)          -102.7111         calculate D2E/DX2 analytically  !
 ! D18   D(10,2,8,9)           177.1312         calculate D2E/DX2 analytically  !
 ! D19   D(10,2,8,22)           11.8931         calculate D2E/DX2 analytically  !
 ! D20   D(12,2,8,9)           -35.4692         calculate D2E/DX2 analytically  !
 ! D21   D(12,2,8,22)          159.2927         calculate D2E/DX2 analytically  !
 ! D22   D(11,3,9,8)          -169.1476         calculate D2E/DX2 analytically  !
 ! D23   D(11,3,9,17)           -4.2035         calculate D2E/DX2 analytically  !
 ! D24   D(13,3,9,8)            28.8307         calculate D2E/DX2 analytically  !
 ! D25   D(13,3,9,17)         -166.2252         calculate D2E/DX2 analytically  !
 ! D26   D(1,4,14,15)         -169.4853         calculate D2E/DX2 analytically  !
 ! D27   D(1,4,14,16)           11.3937         calculate D2E/DX2 analytically  !
 ! D28   D(7,4,14,15)           -6.2555         calculate D2E/DX2 analytically  !
 ! D29   D(7,4,14,16)          174.6235         calculate D2E/DX2 analytically  !
 ! D30   D(2,8,9,3)              2.0763         calculate D2E/DX2 analytically  !
 ! D31   D(2,8,9,17)          -163.4674         calculate D2E/DX2 analytically  !
 ! D32   D(22,8,9,3)           168.6952         calculate D2E/DX2 analytically  !
 ! D33   D(22,8,9,17)            3.1515         calculate D2E/DX2 analytically  !
 ! D34   D(3,9,17,18)           33.5601         calculate D2E/DX2 analytically  !
 ! D35   D(8,9,17,18)         -160.7344         calculate D2E/DX2 analytically  !
 ! D36   D(9,17,18,19)         164.1867         calculate D2E/DX2 analytically  !
 ! D37   D(9,17,18,20)         -75.8132         calculate D2E/DX2 analytically  !
 ! D38   D(9,17,18,21)          44.1867         calculate D2E/DX2 analytically  !
 --------------------------------------------------------------------------------
 Trust Radius=3.00D-01 FncErr=1.00D-07 GrdErr=1.00D-06 EigMax=2.50D+02 EigMin=1.00D-04
 Number of steps in this run=    103 maximum allowed number of steps=    132.
 Search for a saddle point of order  1.
 GradGradGradGradGradGradGradGradGradGradGradGradGradGradGradGradGradGrad

                          Input orientation:                          
 ---------------------------------------------------------------------
 Center     Atomic      Atomic             Coordinates (Angstroms)
 Number     Number       Type             X           Y           Z
 ---------------------------------------------------------------------
      1          6           0       -0.550114   -1.462630   -0.280255
      2          6           0        0.924316   -0.643239    0.976302
      3          6           0       -0.799432    1.532811    0.375473
      4          6           0       -1.521912   -0.528551   -0.626264
      5          1           0        0.153542   -1.799091   -1.034087
      6          1           0       -0.808327   -2.216096    0.461924
      7          1           0       -1.504371   -0.024268   -1.585608
      8          6           0        1.371535    0.457279    0.257259
      9          6           0        0.497136    1.523978   -0.052766
     10          1           0        1.585169   -1.480232    1.172328
     11          1           0       -1.509892    2.258919   -0.006455
     12          1           0        0.190830   -0.466432    1.752045
     13          1           0       -1.100105    1.034154    1.289354
     14          6           0       -2.779975   -0.486953    0.114674
     15          8           0       -3.766151    0.147509   -0.197025
     16          1           0       -2.774411   -1.099175    1.048765
     17          8           0        0.927437    2.417000   -1.083422
     18          6           0        0.205684    3.647245   -0.981096
     19          1           0        0.702851    4.401224   -1.554890
     20          1           0       -0.787156    3.510524   -1.355898
     21          1           0        0.161303    3.950519    0.044065
     22          1           0        2.290375    0.477632   -0.290663
 ---------------------------------------------------------------------
                    Distance matrix (angstroms):
                    1          2          3          4          5
     1  C    0.000000
     2  C    2.103397   0.000000
     3  C    3.076492   2.840334   0.000000
     4  C    1.391624   2.926671   2.403054   0.000000
     5  H    1.084712   2.443717   3.741202   2.141900   0.000000
     6  H    1.088676   2.395937   3.749914   2.131001   1.826782
     7  H    2.164125   3.583996   2.601398   1.083951   2.490552
     8  C    2.769062   1.388585   2.425663   3.181903   2.870938
     9  C    3.173060   2.436861   1.365487   2.935699   3.481930
    10  H    2.582584   1.084302   3.924249   3.714106   2.649433
    11  H    3.853059   3.913272   1.085290   2.855573   4.504496
    12  H    2.381523   1.082146   2.621553   2.931501   3.088673
    13  H    3.000015   2.647627   1.083624   2.507900   3.872633
    14  C    2.465805   3.806389   2.840777   1.460631   3.412753
    15  O    3.597550   4.899230   3.323889   2.382837   4.455774
    16  H    2.616465   3.727427   3.358752   2.167969   3.660746
    17  O    4.228447   3.688840   2.427394   3.858054   4.286814
    18  C    5.212795   4.770335   2.705803   4.532964   5.446843
    19  H    6.130204   5.648238   3.769741   5.487677   6.246350
    20  H    5.093668   5.061821   2.628525   4.169695   5.401896
    21  H    5.469321   4.749091   2.622623   4.831627   5.849828
    22  H    3.439928   2.174320   3.332274   3.957091   3.209704
                    6          7          8          9         10
     6  H    0.000000
     7  H    3.079119   0.000000
     8  C    3.455520   3.449476   0.000000
     9  C    3.994658   2.958496   1.413696   0.000000
    10  H    2.602882   4.389909   2.153355   3.421980   0.000000
    11  H    4.553826   2.776094   3.408529   2.137860   4.995016
    12  H    2.392499   3.769502   2.117001   2.704237   1.818803
    13  H    3.366586   3.090161   2.739892   2.142987   3.680561
    14  C    2.645357   2.175362   4.259923   3.848550   4.599969
    15  O    3.843119   2.659571   5.167025   4.482309   5.758584
    16  H    2.336104   3.115822   4.498655   4.335588   4.377946
    17  O    5.183296   3.482194   2.415607   1.430000   4.550763
    18  C    6.122850   4.095086   3.615054   2.335595   5.729855
    19  H    7.080969   4.945478   4.391552   3.252267   6.542762
    20  H    6.008252   3.614127   4.072410   2.700726   6.076800
    21  H    6.256351   4.607519   3.703085   2.451583   5.726554
    22  H    4.174268   4.040902   1.070000   2.089771   2.543794
                   11         12         13         14         15
    11  H    0.000000
    12  H    3.662283   0.000000
    13  H    1.829507   2.032819   0.000000
    14  C    3.027804   3.392210   2.552568   0.000000
    15  O    3.095977   4.453481   3.178563   1.213360   0.000000
    16  H    3.740226   3.112494   2.722550   1.116858   2.022316
    17  O    2.669348   4.110553   3.413687   4.859350   5.288295
    18  C    2.412586   4.938888   3.699766   5.215981   5.351485
    19  H    3.447224   5.906950   4.762094   6.229912   6.317426
    20  H    1.977336   5.141200   3.636991   4.702523   4.639748
    21  H    2.378435   4.735770   3.412781   5.324214   5.472285
    22  H    4.206637   3.077662   3.781736   5.177178   6.066239
                   16         17         18         19         20
    16  H    0.000000
    17  O    5.532937   0.000000
    18  C    5.960688   1.430000   0.000000
    19  H    7.008906   2.051796   1.070000   0.000000
    20  H    5.566049   2.051796   1.070000   1.747303   0.000000
    21  H    5.926824   2.051796   1.070000   1.747303   1.747303
    22  H    5.471055   2.499444   3.856045   4.417362   4.450209
                   21         22
    21  H    0.000000
    22  H    4.087290   0.000000
 Stoichiometry    C8H12O2
 Framework group  C1[X(C8H12O2)]
 Deg. of freedom    60
 Full point group                 C1      NOp   1
 Largest Abelian subgroup         C1      NOp   1
 Largest concise Abelian subgroup C1      NOp   1
                         Standard orientation:                         
 ---------------------------------------------------------------------
 Center     Atomic      Atomic             Coordinates (Angstroms)
 Number     Number       Type             X           Y           Z
 ---------------------------------------------------------------------
      1          6           0       -1.535286    1.356963    0.707595
      2          6           0       -0.112667    2.216848   -0.581217
      3          6           0        0.357083   -0.579052   -0.753772
      4          6           0       -1.479753   -0.033507    0.696428
      5          1           0       -1.194081    1.893758    1.586248
      6          1           0       -2.354119    1.838908    0.176128
      7          1           0       -0.974418   -0.584856    1.481031
      8          6           0        1.081248    1.655388   -0.148209
      9          6           0        1.293573    0.259608   -0.220674
     10          1           0       -0.290037    3.281880   -0.481435
     11          1           0        0.446356   -1.655678   -0.650034
     12          1           0       -0.591911    1.766240   -1.440472
     13          1           0       -0.331108   -0.248106   -1.522608
     14          6           0       -2.409167   -0.786722   -0.141606
     15          8           0       -2.583382   -1.986980   -0.105979
     16          1           0       -2.972839   -0.155774   -0.870682
     17          8           0        2.369456   -0.259379    0.565474
     18          6           0        2.747046   -1.545716    0.067815
     19          1           0        3.706220   -1.812375    0.459962
     20          1           0        2.022867   -2.272394    0.371793
     21          1           0        2.794584   -1.514881   -1.000683
     22          1           0        1.797429    2.171291    0.456628
 ---------------------------------------------------------------------
 Rotational constants (GHZ):           1.6927279           0.9415396           0.6714452
 Standard basis: 6-31G(d) (6D, 7F)
 There are   174 symmetry adapted cartesian basis functions of A   symmetry.
 There are   174 symmetry adapted basis functions of A   symmetry.
   174 basis functions,   328 primitive gaussians,   174 cartesian basis functions
    38 alpha electrons       38 beta electrons
       nuclear repulsion energy       521.8582461947 Hartrees.
 NAtoms=   22 NActive=   22 NUniq=   22 SFac= 1.00D+00 NAtFMM=   60 NAOKFM=F Big=F
 Integral buffers will be    131072 words long.
 Raffenetti 2 integral format.
 Two-electron integral symmetry is turned on.
 One-electron integrals computed using PRISM.
 NBasis=   174 RedAO= T EigKep=  1.75D-03  NBF=   174
 NBsUse=   174 1.00D-06 EigRej= -1.00D+00 NBFU=   174
 ExpMin= 1.61D-01 ExpMax= 5.48D+03 ExpMxC= 8.25D+02 IAcc=3 IRadAn=         5 AccDes= 0.00D+00
 Harris functional with IExCor= 1009 and IRadAn=       5 diagonalized for initial guess.
 HarFok:  IExCor= 1009 AccDes= 0.00D+00 IRadAn=         5 IDoV= 1 UseB2=F ITyADJ=14
 ICtDFT=  3500011 ScaDFX=  1.000000  1.000000  1.000000  1.000000
 FoFCou: FMM=F IPFlag=           0 FMFlag=      100000 FMFlg1=           0
         NFxFlg=           0 DoJE=T BraDBF=F KetDBF=T FulRan=T
         wScrn=  0.000000 ICntrl=       500 IOpCl=  0 I1Cent=   200000004 NGrid=           0
         NMat0=    1 NMatS0=      1 NMatT0=    0 NMatD0=    1 NMtDS0=    0 NMtDT0=    0
 Petite list used in FoFCou.
 Requested convergence on RMS density matrix=1.00D-08 within 128 cycles.
 Requested convergence on MAX density matrix=1.00D-06.
 Requested convergence on             energy=1.00D-06.
 No special actions if energy rises.
 Integral accuracy reduced to 1.0D-05 until final iterations.
 Initial convergence to 1.0D-05 achieved.  Increase integral accuracy.
 SCF Done:  E(RM062X) =  -462.167195922     A.U. after   16 cycles
            NFock= 16  Conv=0.58D-08     -V/T= 2.0084
 DoSCS=F DFT=T ScalE2(SS,OS)=  1.000000  1.000000
 Range of M.O.s used for correlation:     1   174
 NBasis=   174 NAE=    38 NBE=    38 NFC=     0 NFV=     0
 NROrb=    174 NOA=    38 NOB=    38 NVA=   136 NVB=   136
 Symmetrizing basis deriv contribution to polar:
 IMax=3 JMax=2 DiffMx= 0.00D+00
 G2DrvN: will do    23 centers at a time, making    1 passes.
 Calling FoFCou, ICntrl=  3107 FMM=F I1Cent=   0 AccDes= 0.00D+00.
 End of G2Drv F.D. properties file   721 does not exist.
 End of G2Drv F.D. properties file   722 does not exist.
 End of G2Drv F.D. properties file   788 does not exist.
          IDoAtm=1111111111111111111111
          Differentiating once with respect to nuclear coordinates.
 CalDSu exits because no D1Ps are significant.
          There are    69 degrees of freedom in the 1st order CPHF.  IDoFFX=6 NUNeed=     0.
     63 vectors produced by pass  0 Test12= 7.49D-15 1.45D-09 XBig12= 9.60D-02 1.00D-01.
 AX will form    63 AO Fock derivatives at one time.
     63 vectors produced by pass  1 Test12= 7.49D-15 1.45D-09 XBig12= 6.29D-03 1.87D-02.
     63 vectors produced by pass  2 Test12= 7.49D-15 1.45D-09 XBig12= 9.30D-05 1.66D-03.
     63 vectors produced by pass  3 Test12= 7.49D-15 1.45D-09 XBig12= 6.03D-07 1.06D-04.
     63 vectors produced by pass  4 Test12= 7.49D-15 1.45D-09 XBig12= 2.42D-09 7.05D-06.
     63 vectors produced by pass  5 Test12= 7.49D-15 1.45D-09 XBig12= 6.17D-12 3.93D-07.
     31 vectors produced by pass  6 Test12= 7.49D-15 1.45D-09 XBig12= 1.59D-14 1.73D-08.
 InvSVY:  IOpt=1 It=  1 EMax= 3.61D-16
 Solved reduced A of dimension   409 with    69 vectors.
 End of Minotr F.D. properties file   721 does not exist.
 End of Minotr F.D. properties file   722 does not exist.
 End of Minotr F.D. properties file   788 does not exist.

 **********************************************************************

            Population analysis using the SCF Density.

 **********************************************************************

 Orbital symmetries:
       Occupied  (A) (A) (A) (A) (A) (A) (A) (A) (A) (A) (A) (A)
                 (A) (A) (A) (A) (A) (A) (A) (A) (A) (A) (A) (A)
                 (A) (A) (A) (A) (A) (A) (A) (A) (A) (A) (A) (A)
                 (A) (A)
       Virtual   (A) (A) (A) (A) (A) (A) (A) (A) (A) (A) (A) (A)
                 (A) (A) (A) (A) (A) (A) (A) (A) (A) (A) (A) (A)
                 (A) (A) (A) (A) (A) (A) (A) (A) (A) (A) (A) (A)
                 (A) (A) (A) (A) (A) (A) (A) (A) (A) (A) (A) (A)
                 (A) (A) (A) (A) (A) (A) (A) (A) (A) (A) (A) (A)
                 (A) (A) (A) (A) (A) (A) (A) (A) (A) (A) (A) (A)
                 (A) (A) (A) (A) (A) (A) (A) (A) (A) (A) (A) (A)
                 (A) (A) (A) (A) (A) (A) (A) (A) (A) (A) (A) (A)
                 (A) (A) (A) (A) (A) (A) (A) (A) (A) (A) (A) (A)
                 (A) (A) (A) (A) (A) (A) (A) (A) (A) (A) (A) (A)
                 (A) (A) (A) (A) (A) (A) (A) (A) (A) (A) (A) (A)
                 (A) (A) (A) (A)
 The electronic state is 1-A.
 Alpha  occ. eigenvalues --  -19.66421 -19.62193 -10.62471 -10.61040 -10.58730
 Alpha  occ. eigenvalues --  -10.57480 -10.56905 -10.56256 -10.56015 -10.55661
 Alpha  occ. eigenvalues --   -1.16414  -1.14870  -0.92737  -0.87709  -0.82979
 Alpha  occ. eigenvalues --   -0.80063  -0.72859  -0.71051  -0.64238  -0.61443
 Alpha  occ. eigenvalues --   -0.59459  -0.55797  -0.54181  -0.53360  -0.53082
 Alpha  occ. eigenvalues --   -0.51218  -0.48376  -0.47271  -0.46799  -0.45826
 Alpha  occ. eigenvalues --   -0.44130  -0.43542  -0.42641  -0.40709  -0.37193
 Alpha  occ. eigenvalues --   -0.31406  -0.28890  -0.27548
 Alpha virt. eigenvalues --   -0.02572   0.03405   0.09166   0.11993   0.13980
 Alpha virt. eigenvalues --    0.14801   0.16716   0.17058   0.18422   0.19061
 Alpha virt. eigenvalues --    0.20181   0.21051   0.21464   0.23871   0.24443
 Alpha virt. eigenvalues --    0.25756   0.26841   0.31098   0.33102   0.35174
 Alpha virt. eigenvalues --    0.35629   0.39485   0.41574   0.45216   0.52644
 Alpha virt. eigenvalues --    0.55325   0.56238   0.58168   0.59881   0.60335
 Alpha virt. eigenvalues --    0.61245   0.63854   0.64415   0.66539   0.67086
 Alpha virt. eigenvalues --    0.67338   0.68123   0.71257   0.72714   0.75865
 Alpha virt. eigenvalues --    0.79573   0.80414   0.81212   0.85384   0.87265
 Alpha virt. eigenvalues --    0.88349   0.90004   0.92008   0.92538   0.93860
 Alpha virt. eigenvalues --    0.94510   0.95124   0.95950   0.98153   1.00412
 Alpha virt. eigenvalues --    1.01121   1.03301   1.03957   1.05426   1.06882
 Alpha virt. eigenvalues --    1.07445   1.10391   1.11668   1.15255   1.15701
 Alpha virt. eigenvalues --    1.17832   1.20909   1.23256   1.26078   1.28202
 Alpha virt. eigenvalues --    1.33176   1.39996   1.41387   1.42938   1.46656
 Alpha virt. eigenvalues --    1.49282   1.55129   1.56428   1.62715   1.63486
 Alpha virt. eigenvalues --    1.64803   1.69184   1.77952   1.79027   1.82249
 Alpha virt. eigenvalues --    1.84304   1.87191   1.90463   1.91702   1.92576
 Alpha virt. eigenvalues --    1.95899   1.97340   1.99066   2.01907   2.05767
 Alpha virt. eigenvalues --    2.07166   2.12014   2.12525   2.13742   2.16484
 Alpha virt. eigenvalues --    2.18341   2.20374   2.21615   2.25397   2.28081
 Alpha virt. eigenvalues --    2.30394   2.31437   2.38109   2.39994   2.43002
 Alpha virt. eigenvalues --    2.45044   2.47573   2.52696   2.56466   2.58524
 Alpha virt. eigenvalues --    2.63185   2.65796   2.67237   2.67782   2.76193
 Alpha virt. eigenvalues --    2.86716   2.88938   2.99264   3.05461   3.06443
 Alpha virt. eigenvalues --    3.14040   3.97566   4.07107   4.16940   4.21547
 Alpha virt. eigenvalues --    4.28057   4.32042   4.33004   4.38477   4.57410
 Alpha virt. eigenvalues --    4.62775
          Condensed to atoms (all electrons):
               1          2          3          4          5          6
     1  C    5.218693   0.090579  -0.019554   0.445526   0.381183   0.381863
     2  C    0.090579   5.170171  -0.027439  -0.023568  -0.014401  -0.014090
     3  C   -0.019554  -0.027439   5.344165   0.079528   0.000991   0.001043
     4  C    0.445526  -0.023568   0.079528   5.298988  -0.022898  -0.048412
     5  H    0.381183  -0.014401   0.000991  -0.022898   0.496930  -0.031723
     6  H    0.381863  -0.014090   0.001043  -0.048412  -0.031723   0.522602
     7  H   -0.035717   0.000331  -0.007489   0.368750  -0.004176   0.003783
     8  C   -0.022831   0.530386  -0.090781  -0.024826  -0.004951   0.001019
     9  C   -0.020159  -0.035155   0.504993  -0.018309  -0.000015   0.000421
    10  H   -0.008273   0.374440   0.000523   0.001320  -0.001060  -0.000231
    11  H    0.000769   0.000390   0.367562  -0.005111  -0.000016  -0.000008
    12  H   -0.017636   0.379712   0.006295  -0.008493   0.001461  -0.003507
    13  H   -0.004444   0.002584   0.365828  -0.013981  -0.000001   0.000281
    14  C   -0.015361  -0.000433  -0.002666   0.347120   0.002383  -0.004998
    15  O    0.003820   0.000006  -0.002978  -0.071486  -0.000064   0.000074
    16  H    0.012948  -0.000665  -0.000715  -0.135243  -0.000104   0.008191
    17  O    0.000071   0.003059  -0.067834  -0.000043  -0.000008  -0.000000
    18  C   -0.000010  -0.000117  -0.014310  -0.000173  -0.000001  -0.000000
    19  H    0.000001   0.000003   0.000855  -0.000002  -0.000000  -0.000000
    20  H   -0.000014   0.000014  -0.000371   0.000076   0.000001   0.000000
    21  H    0.000009  -0.000048   0.005673   0.000037  -0.000000  -0.000000
    22  H    0.000406  -0.047159   0.008317  -0.000015   0.000542  -0.000041
               7          8          9         10         11         12
     1  C   -0.035717  -0.022831  -0.020159  -0.008273   0.000769  -0.017636
     2  C    0.000331   0.530386  -0.035155   0.374440   0.000390   0.379712
     3  C   -0.007489  -0.090781   0.504993   0.000523   0.367562   0.006295
     4  C    0.368750  -0.024826  -0.018309   0.001320  -0.005111  -0.008493
     5  H   -0.004176  -0.004951  -0.000015  -0.001060  -0.000016   0.001461
     6  H    0.003783   0.001019   0.000421  -0.000231  -0.000008  -0.003507
     7  H    0.507434   0.000293  -0.002588  -0.000027  -0.000003  -0.000012
     8  C    0.000293   4.930157   0.559183  -0.025875   0.004621  -0.034149
     9  C   -0.002588   0.559183   4.497271   0.003664  -0.028494  -0.012636
    10  H   -0.000027  -0.025875   0.003664   0.506253  -0.000006  -0.033031
    11  H   -0.000003   0.004621  -0.028494  -0.000006   0.490595  -0.000000
    12  H   -0.000012  -0.034149  -0.012636  -0.033031  -0.000000   0.526386
    13  H    0.000878  -0.007433  -0.020348   0.000051  -0.029316   0.004925
    14  C   -0.027785   0.000072   0.001012  -0.000021   0.000029   0.000888
    15  O    0.001202   0.000005   0.000272   0.000000   0.002169   0.000001
    16  H    0.004942   0.000020  -0.000004  -0.000008   0.000295   0.000649
    17  O    0.000788  -0.048834   0.265390  -0.000035  -0.007199  -0.000002
    18  C   -0.000046   0.003729  -0.048572   0.000002   0.003560   0.000003
    19  H    0.000000  -0.000041   0.004571  -0.000000   0.000058  -0.000000
    20  H   -0.000072  -0.000407  -0.008687   0.000000   0.001308   0.000000
    21  H    0.000017   0.000851  -0.004196   0.000000   0.000456  -0.000009
    22  H   -0.000006   0.362800  -0.033246  -0.004558  -0.000140   0.004114
              13         14         15         16         17         18
     1  C   -0.004444  -0.015361   0.003820   0.012948   0.000071  -0.000010
     2  C    0.002584  -0.000433   0.000006  -0.000665   0.003059  -0.000117
     3  C    0.365828  -0.002666  -0.002978  -0.000715  -0.067834  -0.014310
     4  C   -0.013981   0.347120  -0.071486  -0.135243  -0.000043  -0.000173
     5  H   -0.000001   0.002383  -0.000064  -0.000104  -0.000008  -0.000001
     6  H    0.000281  -0.004998   0.000074   0.008191  -0.000000  -0.000000
     7  H    0.000878  -0.027785   0.001202   0.004942   0.000788  -0.000046
     8  C   -0.007433   0.000072   0.000005   0.000020  -0.048834   0.003729
     9  C   -0.020348   0.001012   0.000272  -0.000004   0.265390  -0.048572
    10  H    0.000051  -0.000021   0.000000  -0.000008  -0.000035   0.000002
    11  H   -0.029316   0.000029   0.002169   0.000295  -0.007199   0.003560
    12  H    0.004925   0.000888   0.000001   0.000649  -0.000002   0.000003
    13  H    0.513657  -0.002248  -0.000211   0.001669   0.002697   0.000037
    14  C   -0.002248   4.553839   0.539056   0.367491   0.000006  -0.000001
    15  O   -0.000211   0.539056   8.028074  -0.055346  -0.000000  -0.000001
    16  H    0.001669   0.367491  -0.055346   0.694037  -0.000000  -0.000001
    17  O    0.002697   0.000006  -0.000000  -0.000000   8.271947   0.226915
    18  C    0.000037  -0.000001  -0.000001  -0.000001   0.226915   4.924046
    19  H   -0.000003  -0.000000  -0.000000  -0.000000  -0.028610   0.387231
    20  H   -0.000084  -0.000003  -0.000009   0.000000  -0.039090   0.386578
    21  H   -0.000065   0.000003  -0.000000   0.000000  -0.037301   0.375505
    22  H   -0.000057   0.000005  -0.000000   0.000000  -0.000174  -0.000075
              19         20         21         22
     1  C    0.000001  -0.000014   0.000009   0.000406
     2  C    0.000003   0.000014  -0.000048  -0.047159
     3  C    0.000855  -0.000371   0.005673   0.008317
     4  C   -0.000002   0.000076   0.000037  -0.000015
     5  H   -0.000000   0.000001  -0.000000   0.000542
     6  H   -0.000000   0.000000  -0.000000  -0.000041
     7  H    0.000000  -0.000072   0.000017  -0.000006
     8  C   -0.000041  -0.000407   0.000851   0.362800
     9  C    0.004571  -0.008687  -0.004196  -0.033246
    10  H   -0.000000   0.000000   0.000000  -0.004558
    11  H    0.000058   0.001308   0.000456  -0.000140
    12  H   -0.000000   0.000000  -0.000009   0.004114
    13  H   -0.000003  -0.000084  -0.000065  -0.000057
    14  C   -0.000000  -0.000003   0.000003   0.000005
    15  O   -0.000000  -0.000009  -0.000000  -0.000000
    16  H   -0.000000   0.000000   0.000000   0.000000
    17  O   -0.028610  -0.039090  -0.037301  -0.000174
    18  C    0.387231   0.386578   0.375505  -0.000075
    19  H    0.510545  -0.033388  -0.026007  -0.000025
    20  H   -0.033388   0.573286  -0.047330   0.000031
    21  H   -0.026007  -0.047330   0.566396   0.000035
    22  H   -0.000025   0.000031   0.000035   0.527905
 Mulliken charges:
               1
     1  C   -0.391870
     2  C   -0.388599
     3  C   -0.451636
     4  C   -0.168785
     5  H    0.195928
     6  H    0.183733
     7  H    0.189505
     8  C   -0.133007
     9  C    0.395632
    10  H    0.186873
    11  H    0.198482
    12  H    0.185043
    13  H    0.185583
    14  C    0.241613
    15  O   -0.444585
    16  H    0.101845
    17  O   -0.541742
    18  C   -0.244298
    19  H    0.184811
    20  H    0.168159
    21  H    0.165976
    22  H    0.181338
 Sum of Mulliken charges =  -0.00000
 Mulliken charges with hydrogens summed into heavy atoms:
               1
     1  C   -0.012208
     2  C   -0.016683
     3  C   -0.067570
     4  C    0.020720
     8  C    0.048331
     9  C    0.395632
    14  C    0.343458
    15  O   -0.444585
    17  O   -0.541742
    18  C    0.274649
 APT charges:
               1
     1  C   -1.017386
     2  C   -0.882007
     3  C   -0.823009
     4  C   -0.399737
     5  H    0.494013
     6  H    0.556867
     7  H    0.338499
     8  C   -0.440597
     9  C    0.035135
    10  H    0.691601
    11  H    0.446074
    12  H    0.311396
    13  H    0.389090
    14  C   -0.609490
    15  O    0.118804
    16  H    0.382629
    17  O   -0.328218
    18  C   -1.181649
    19  H    0.796887
    20  H    0.232789
    21  H    0.335290
    22  H    0.553020
 Sum of APT charges =  -0.00000
 APT charges with hydrogens summed into heavy atoms:
               1
     1  C    0.033494
     2  C    0.120990
     3  C    0.012155
     4  C   -0.061238
     8  C    0.112422
     9  C    0.035135
    14  C   -0.226861
    15  O    0.118804
    17  O   -0.328218
    18  C    0.183317
 Electronic spatial extent (au):  <R**2>=           1729.1947
 Charge=             -0.0000 electrons
 Dipole moment (field-independent basis, Debye):
    X=              1.4295    Y=              2.5061    Z=             -0.7808  Tot=              2.9890
 Quadrupole moment (field-independent basis, Debye-Ang):
   XX=            -64.9928   YY=            -59.8281   ZZ=            -60.2970
   XY=            -12.4207   XZ=             -0.0470   YZ=              0.3646
 Traceless Quadrupole moment (field-independent basis, Debye-Ang):
   XX=             -3.2868   YY=              1.8778   ZZ=              1.4090
   XY=            -12.4207   XZ=             -0.0470   YZ=              0.3646
 Octapole moment (field-independent basis, Debye-Ang**2):
  XXX=             22.3540  YYY=             12.7860  ZZZ=              2.6530  XYY=             24.7649
  XXY=              7.8400  XXZ=             -3.4274  XZZ=             -3.3530  YZZ=             -3.1301
  YYZ=              4.2773  XYZ=              3.5615
 Hexadecapole moment (field-independent basis, Debye-Ang**3):
 XXXX=          -1298.5869 YYYY=           -737.4062 ZZZZ=           -180.9802 XXXY=            -83.6704
 XXXZ=              8.4151 YYYX=            -46.6768 YYYZ=              3.1546 ZZZX=              9.8483
 ZZZY=              2.7583 XXYY=           -362.4561 XXZZ=           -252.9475 YYZZ=           -155.6996
 XXYZ=             -4.8174 YYXZ=              6.4802 ZZXY=              1.6975
 N-N= 5.218582461947D+02 E-N=-2.119608639484D+03  KE= 4.583055852551D+02
  Exact polarizability:       0.000       0.000       0.000       0.000       0.000       0.000
 Approx polarizability:     145.830      12.214     156.096       0.233       1.533      85.951
 Calling FoFJK, ICntrl=    100127 FMM=F ISym2X=0 I1Cent= 0 IOpClX= 0 NMat=1 NMatS=1 NMatT=0.
 ***** Axes restored to original set *****
 -------------------------------------------------------------------
 Center     Atomic                   Forces (Hartrees/Bohr)
 Number     Number              X              Y              Z
 -------------------------------------------------------------------
      1        6          -0.000878076   -0.002674283   -0.001313549
      2        6           0.001795008    0.009875552   -0.004692365
      3        6          -0.011689212   -0.001058560    0.002551281
      4        6           0.006969443    0.001750384    0.000177973
      5        1          -0.000424668    0.000482883    0.000650965
      6        1          -0.000441788   -0.000053801    0.000099412
      7        1           0.000119725    0.000188513   -0.000480644
      8        6          -0.010978584    0.007511771    0.002152504
      9        6           0.012319805    0.008172638   -0.025450061
     10        1           0.001751105   -0.000250465   -0.001678392
     11        1          -0.001137540   -0.003878395    0.002972603
     12        1          -0.002965873   -0.002703970    0.001054260
     13        1           0.003320593    0.001628740   -0.000240854
     14        6          -0.004576635    0.001292863    0.003255888
     15        8           0.002307261   -0.001341584   -0.000198694
     16        1          -0.000127167    0.000292376   -0.000496542
     17        8          -0.011932351   -0.013694781    0.036211126
     18        6           0.012128008   -0.015993604   -0.007031057
     19        1           0.010280964    0.006573572   -0.010480147
     20        1          -0.015783413    0.002751192   -0.007769068
     21        1          -0.001747150    0.007340508    0.016015644
     22        1           0.011690547   -0.006211546   -0.005310285
 -------------------------------------------------------------------
 Cartesian Forces:  Max     0.036211126 RMS     0.008408612
 FormGI is forming the generalized inverse of G from B-inverse, IUseBI=4.

 GradGradGradGradGradGradGradGradGradGradGradGradGradGradGradGradGradGrad
 Berny optimization.
 Internal  Forces:  Max     0.046269491 RMS     0.007847198
 Search for a saddle point.
 Step number   1 out of a maximum of  103
 All quantities printed in internal units (Hartrees-Bohrs-Radians)
 Swapping is turned off.
 Second derivative matrix not updated -- analytic derivatives used.
 ITU=  0
     Eigenvalues ---   -0.08883  -0.00263   0.00386   0.00806   0.01212
     Eigenvalues ---    0.01414   0.01492   0.01988   0.02100   0.02551
     Eigenvalues ---    0.03006   0.03430   0.03715   0.03779   0.04059
     Eigenvalues ---    0.05311   0.05713   0.06660   0.07192   0.07720
     Eigenvalues ---    0.08371   0.09209   0.09413   0.10232   0.10710
     Eigenvalues ---    0.11165   0.12283   0.13696   0.14327   0.14970
     Eigenvalues ---    0.16614   0.17300   0.18200   0.19717   0.21133
     Eigenvalues ---    0.21962   0.22782   0.26062   0.29527   0.30363
     Eigenvalues ---    0.34711   0.35353   0.36268   0.37012   0.37197
     Eigenvalues ---    0.37343   0.37509   0.37682   0.37861   0.39214
     Eigenvalues ---    0.39724   0.40065   0.40940   0.41639   0.49217
     Eigenvalues ---    0.54196   0.64396   0.66560   0.78257   0.89797
 Eigenvectors required to have negative eigenvalues:
                          R1        D24       D25       D20       D14
   1                   -0.62314   0.28182   0.20288  -0.20041   0.19252
                          R2        D13       R13       A3        D16
   1                    0.19072  -0.19050  -0.17971   0.15884  -0.15215
 RFO step:  Lambda0=6.575201917D-05 Lambda=-1.79987148D-02.
 Linear search not attempted -- option 19 set.
 Maximum step size (   0.300) exceeded in Quadratic search.
    -- Step size scaled by   0.913
 Iteration  1 RMS(Cart)=  0.11571168 RMS(Int)=  0.05979766
 Iteration  2 RMS(Cart)=  0.09611844 RMS(Int)=  0.03041646
 Iteration  3 RMS(Cart)=  0.09634587 RMS(Int)=  0.00656010
 Iteration  4 RMS(Cart)=  0.00919336 RMS(Int)=  0.00038031
 Iteration  5 RMS(Cart)=  0.00005124 RMS(Int)=  0.00037938
 Iteration  6 RMS(Cart)=  0.00000001 RMS(Int)=  0.00037938
 Variable       Old X    -DE/DX   Delta X   Delta X   Delta X     New X
                                 (Linear)    (Quad)   (Total)
    R1        3.97485  -0.00306   0.00000  -0.03623  -0.03623   3.93862
    R2        2.62979  -0.00238   0.00000   0.00273   0.00273   2.63252
    R3        2.04981  -0.00088   0.00000  -0.00175  -0.00175   2.04806
    R4        2.05730   0.00021   0.00000   0.00014   0.00014   2.05744
    R5        2.62404  -0.00844   0.00000  -0.00998  -0.00998   2.61407
    R6        2.04903   0.00096   0.00000   0.00327   0.00327   2.05230
    R7        2.04496   0.00233   0.00000   0.00461   0.00461   2.04957
    R8        2.58040   0.01066   0.00000   0.02361   0.02361   2.60401
    R9        2.05090  -0.00290   0.00000  -0.00684  -0.00684   2.04406
   R10        2.04775  -0.00187   0.00000  -0.00512  -0.00512   2.04263
   R11        2.04837   0.00051   0.00000   0.00115   0.00115   2.04952
   R12        2.76019   0.00337   0.00000   0.00875   0.00875   2.76894
   R13        2.67150  -0.00501   0.00000  -0.00535  -0.00535   2.66615
   R14        2.02201   0.01264   0.00000   0.02642   0.02642   2.04843
   R15        2.70231  -0.02967   0.00000  -0.14432  -0.14432   2.55799
   R16        2.29292  -0.00253   0.00000  -0.00233  -0.00233   2.29059
   R17        2.11056  -0.00058   0.00000  -0.00186  -0.00186   2.10870
   R18        2.70231  -0.00254   0.00000  -0.04800  -0.04800   2.65431
   R19        2.02201   0.01503   0.00000   0.02965   0.02965   2.05166
   R20        2.02201   0.01702   0.00000   0.04522   0.04522   2.06723
   R21        2.02201   0.01750   0.00000   0.04271   0.04271   2.06472
    A1        1.95688  -0.00954   0.00000  -0.02918  -0.02919   1.92769
    A2        1.65216   0.00361   0.00000   0.01680   0.01669   1.66885
    A3        1.59941   0.00341   0.00000   0.02112   0.02112   1.62053
    A4        2.08106   0.00076   0.00000  -0.00498  -0.00491   2.07615
    A5        2.05830   0.00138   0.00000   0.00125   0.00143   2.05973
    A6        1.99649  -0.00042   0.00000   0.00046   0.00019   1.99669
    A7        1.79790  -0.00421   0.00000   0.01469   0.01464   1.81254
    A8        1.80752   0.00261   0.00000  -0.00078  -0.00071   1.80681
    A9        1.58756  -0.00111   0.00000  -0.01631  -0.01649   1.57107
   A10        2.10494  -0.00056   0.00000  -0.02310  -0.02305   2.08189
   A11        2.04881   0.00237   0.00000   0.03095   0.03101   2.07982
   A12        1.99284  -0.00018   0.00000  -0.00545  -0.00546   1.98739
   A13        2.11244   0.00730   0.00000   0.05322   0.05288   2.16532
   A14        2.12349  -0.00640   0.00000  -0.06090  -0.06125   2.06224
   A15        2.00758  -0.00108   0.00000  -0.00670  -0.00707   2.00051
   A16        2.11884  -0.00037   0.00000  -0.00321  -0.00331   2.11554
   A17        2.08801   0.00040   0.00000   0.00425   0.00417   2.09218
   A18        2.03717   0.00003   0.00000  -0.00762  -0.00770   2.02947
   A19        2.10874  -0.00294   0.00000   0.00651   0.00631   2.11504
   A20        2.16134  -0.00513   0.00000  -0.04995  -0.05000   2.11134
   A21        1.98722   0.00763   0.00000   0.03587   0.03554   2.02276
   A22        2.12164  -0.00190   0.00000  -0.02639  -0.02691   2.09473
   A23        2.10333   0.02087   0.00000   0.09871   0.09858   2.20191
   A24        2.02990  -0.01889   0.00000  -0.05996  -0.06061   1.96930
   A25        2.19521  -0.00130   0.00000  -0.00484  -0.00484   2.19037
   A26        1.98707   0.00076   0.00000   0.00186   0.00186   1.98893
   A27        2.10080   0.00054   0.00000   0.00301   0.00301   2.10381
   A28        1.91114   0.04627   0.00000   0.13884   0.13884   2.04998
   A29        1.91063  -0.01168   0.00000  -0.05106  -0.05097   1.85966
   A30        1.91063   0.00755   0.00000   0.02202   0.02187   1.93251
   A31        1.91063   0.00555   0.00000   0.02242   0.02228   1.93291
   A32        1.91063  -0.00175   0.00000   0.00474   0.00483   1.91546
   A33        1.91063   0.00109   0.00000   0.00552   0.00561   1.91625
   A34        1.91063  -0.00076   0.00000  -0.00364  -0.00398   1.90666
    D1       -0.95602  -0.00004   0.00000   0.01047   0.01048  -0.94554
    D2        3.12126   0.00136   0.00000   0.03001   0.03000  -3.13193
    D3        1.11097   0.00151   0.00000   0.04024   0.04018   1.15115
    D4        1.21172  -0.00077   0.00000   0.00303   0.00293   1.21464
    D5       -0.99419   0.00063   0.00000   0.02257   0.02244  -0.97174
    D6       -3.00448   0.00077   0.00000   0.03280   0.03263  -2.97185
    D7       -3.07072  -0.00060   0.00000   0.00683   0.00701  -3.06371
    D8        1.00656   0.00080   0.00000   0.02636   0.02652   1.03309
    D9       -1.00373   0.00095   0.00000   0.03659   0.03671  -0.96702
   D10        1.74872  -0.00009   0.00000   0.01282   0.01286   1.76158
   D11       -1.69960   0.00014   0.00000  -0.01355  -0.01352  -1.71312
   D12       -0.15632   0.00172   0.00000   0.01540   0.01535  -0.14097
   D13        2.67855   0.00196   0.00000  -0.01097  -0.01103   2.66752
   D14       -2.71051  -0.00125   0.00000   0.02111   0.02114  -2.68937
   D15        0.12435  -0.00101   0.00000  -0.00526  -0.00524   0.11912
   D16        1.09130  -0.00184   0.00000  -0.02125  -0.02083   1.07047
   D17       -1.79265  -0.00075   0.00000   0.01045   0.01026  -1.78239
   D18        3.09152  -0.00199   0.00000  -0.02327  -0.02298   3.06854
   D19        0.20757  -0.00090   0.00000   0.00844   0.00810   0.21568
   D20       -0.61905   0.00107   0.00000  -0.01985  -0.01963  -0.63869
   D21        2.78018   0.00216   0.00000   0.01185   0.01145   2.79164
   D22       -2.95218   0.00179   0.00000  -0.05598  -0.05686  -3.00905
   D23       -0.07336  -0.00058   0.00000  -0.00833  -0.00734  -0.08070
   D24        0.50319   0.00265   0.00000   0.00043  -0.00056   0.50263
   D25       -2.90118   0.00027   0.00000   0.04809   0.04897  -2.85221
   D26       -2.95808   0.00027   0.00000   0.02100   0.02098  -2.93710
   D27        0.19886  -0.00014   0.00000   0.01858   0.01856   0.21742
   D28       -0.10918   0.00042   0.00000  -0.00352  -0.00351  -0.11268
   D29        3.04775   0.00001   0.00000  -0.00594  -0.00592   3.04183
   D30        0.03624   0.00289   0.00000   0.04534   0.04456   0.08080
   D31       -2.85305  -0.00042   0.00000  -0.02297  -0.02127  -2.87432
   D32        2.94429   0.00029   0.00000   0.00497   0.00327   2.94756
   D33        0.05500  -0.00302   0.00000  -0.06334  -0.06257  -0.00756
   D34        0.58573   0.00037   0.00000  -0.62637  -0.62675  -0.04102
   D35       -2.80534   0.00020   0.00000  -0.57781  -0.57743   2.90041
   D36        2.86560  -0.00010   0.00000   0.14386   0.14385   3.00945
   D37       -1.32319  -0.00477   0.00000   0.13189   0.13155  -1.19164
   D38        0.77120   0.00232   0.00000   0.15464   0.15498   0.92619
         Item               Value     Threshold  Converged?
 Maximum Force            0.046269     0.000450     NO 
 RMS     Force            0.007847     0.000300     NO 
 Maximum Displacement     1.030294     0.001800     NO 
 RMS     Displacement     0.282203     0.001200     NO 
 Predicted change in Energy=-1.424813D-02
 GradGradGradGradGradGradGradGradGradGradGradGradGradGradGradGradGradGrad

                          Input orientation:                          
 ---------------------------------------------------------------------
 Center     Atomic      Atomic             Coordinates (Angstroms)
 Number     Number       Type             X           Y           Z
 ---------------------------------------------------------------------
      1          6           0       -0.542208   -1.353871   -0.395005
      2          6           0        0.920304   -0.698531    0.937506
      3          6           0       -0.787672    1.522523    0.634722
      4          6           0       -1.489891   -0.355139   -0.607296
      5          1           0        0.146213   -1.602388   -1.194321
      6          1           0       -0.819071   -2.195296    0.238026
      7          1           0       -1.467236    0.260551   -1.499869
      8          6           0        1.376009    0.480450    0.375483
      9          6           0        0.511511    1.577940    0.178777
     10          1           0        1.594358   -1.546796    1.012076
     11          1           0       -1.538030    2.271057    0.418681
     12          1           0        0.180121   -0.655230    1.729071
     13          1           0       -0.999030    0.909526    1.499555
     14          6           0       -2.755202   -0.380831    0.131163
     15          8           0       -3.724680    0.305801   -0.109463
     16          1           0       -2.768221   -1.101708    0.982836
     17          8           0        1.023273    2.505210   -0.664188
     18          6           0        0.145153    3.481010   -1.163805
     19          1           0        0.755628    4.200823   -1.700379
     20          1           0       -0.583626    3.033242   -1.845763
     21          1           0       -0.383905    3.979659   -0.348189
     22          1           0        2.314535    0.514122   -0.165858
 ---------------------------------------------------------------------
                    Distance matrix (angstroms):
                    1          2          3          4          5
     1  C    0.000000
     2  C    2.084226   0.000000
     3  C    3.065002   2.818145   0.000000
     4  C    1.393068   2.883292   2.358248   0.000000
     5  H    1.083785   2.441487   3.739333   2.139408   0.000000
     6  H    1.088750   2.398959   3.739055   2.133248   1.826180
     7  H    2.163969   3.544147   2.571159   1.084562   2.483369
     8  C    2.763683   1.383305   2.415500   3.142840   2.883556
     9  C    3.167818   2.434153   1.377982   2.891421   3.483293
    10  H    2.565543   1.086031   3.903484   3.681712   2.639773
    11  H    3.846278   3.889864   1.081672   2.819903   4.521287
    12  H    2.349799   1.084583   2.622371   2.887491   3.073187
    13  H    2.986806   2.566240   1.080914   2.505822   3.857235
    14  C    2.474066   3.776303   2.783434   1.465262   3.415746
    15  O    3.600580   4.866282   3.265002   2.383057   4.449935
    16  H    2.630050   3.710771   3.306108   2.172559   3.672141
    17  O    4.173212   3.583292   2.435644   3.807994   4.233513
    18  C    4.943643   4.741828   2.817895   4.207031   5.083490
    19  H    5.851753   5.566796   3.873985   5.195572   5.857025
    20  H    4.620950   4.892292   2.911479   3.719709   4.737732
    21  H    5.336084   5.023886   2.677061   4.481162   5.670645
    22  H    3.420949   2.152167   3.358793   3.927358   3.199840
                    6          7          8          9         10
     6  H    0.000000
     7  H    3.077594   0.000000
     8  C    3.463653   3.413113   0.000000
     9  C    4.001409   2.910121   1.410863   0.000000
    10  H    2.616170   4.353128   2.136037   3.410414   0.000000
    11  H    4.527455   2.779924   3.420492   2.176829   4.973930
    12  H    2.365037   3.738782   2.133570   2.738664   1.819076
    13  H    3.356152   3.104340   2.662415   2.114939   3.605109
    14  C    2.655617   2.174970   4.227104   3.809261   4.588481
    15  O    3.849519   2.651666   5.126666   4.432464   5.743007
    16  H    2.355814   3.116430   4.477360   4.310878   4.385323
    17  O    5.128642   3.455356   2.303256   1.353631   4.422075
    18  C    5.925818   3.617194   3.589955   2.357630   5.666876
    19  H    6.866399   4.528473   4.305258   3.235789   6.410616
    20  H    5.633402   2.930566   3.910351   2.723231   5.821306
    21  H    6.217965   4.041254   3.983147   2.616814   6.025408
    22  H    4.162158   4.018168   1.083981   2.121645   2.480638
                   11         12         13         14         15
    11  H    0.000000
    12  H    3.637626   0.000000
    13  H    1.820049   1.972697   0.000000
    14  C    2.932011   3.353315   2.573259   0.000000
    15  O    2.987073   4.421680   3.222203   1.212127   0.000000
    16  H    3.634169   3.073911   2.728021   1.115876   2.022130
    17  O    2.790646   4.053020   3.364179   4.820652   5.261955
    18  C    2.607941   5.047617   3.874942   5.000282   5.115584
    19  H    3.670869   5.972737   4.914371   6.055743   6.146167
    20  H    2.572842   5.193031   3.984204   4.503318   4.507759
    21  H    2.199867   5.110316   3.635692   4.986652   4.971418
    22  H    4.274432   3.084456   3.729565   5.156685   6.043071
                   16         17         18         19         20
    16  H    0.000000
    17  O    5.486161   0.000000
    18  C    5.839274   1.404599   0.000000
    19  H    6.908979   2.005101   1.085689   0.000000
    20  H    5.465458   2.063265   1.093930   1.782690   0.000000
    21  H    5.768612   2.062524   1.092603   1.782096   1.782784
    22  H    5.455714   2.424896   3.808483   4.286806   4.191346
                   21         22
    21  H    0.000000
    22  H    4.395995   0.000000
 Stoichiometry    C8H12O2
 Framework group  C1[X(C8H12O2)]
 Deg. of freedom    60
 Full point group                 C1      NOp   1
 Largest Abelian subgroup         C1      NOp   1
 Largest concise Abelian subgroup C1      NOp   1
                         Standard orientation:                         
 ---------------------------------------------------------------------
 Center     Atomic      Atomic             Coordinates (Angstroms)
 Number     Number       Type             X           Y           Z
 ---------------------------------------------------------------------
      1          6           0       -1.386653    1.348877    0.857514
      2          6           0       -0.036955    2.243716   -0.454575
      3          6           0        0.266113   -0.518376   -0.924611
      4          6           0       -1.371801   -0.035384    0.701824
      5          1           0       -0.962434    1.780320    1.756672
      6          1           0       -2.232247    1.900288    0.449724
      7          1           0       -0.833397   -0.673097    1.394440
      8          6           0        1.159049    1.601747   -0.188147
      9          6           0        1.299411    0.210677   -0.377246
     10          1           0       -0.132130    3.302760   -0.233597
     11          1           0        0.254820   -1.597975   -0.990589
     12          1           0       -0.637022    1.915358   -1.296253
     13          1           0       -0.404106   -0.018326   -1.609543
     14          6           0       -2.393385   -0.688256   -0.121047
     15          8           0       -2.602742   -1.881244   -0.167972
     16          1           0       -2.991371    0.017348   -0.745319
     17          8           0        2.398168   -0.293923    0.231383
     18          6           0        2.481507   -1.689766    0.363958
     19          1           0        3.475332   -1.905543    0.744054
     20          1           0        1.728822   -2.057426    1.067503
     21          1           0        2.340658   -2.179460   -0.602552
     22          1           0        1.925960    2.077672    0.412151
 ---------------------------------------------------------------------
 Rotational constants (GHZ):           1.6803393           0.9825148           0.6990193
 Standard basis: 6-31G(d) (6D, 7F)
 There are   174 symmetry adapted cartesian basis functions of A   symmetry.
 There are   174 symmetry adapted basis functions of A   symmetry.
   174 basis functions,   328 primitive gaussians,   174 cartesian basis functions
    38 alpha electrons       38 beta electrons
       nuclear repulsion energy       526.2340854559 Hartrees.
 NAtoms=   22 NActive=   22 NUniq=   22 SFac= 1.00D+00 NAtFMM=   60 NAOKFM=F Big=F
 Integral buffers will be    131072 words long.
 Raffenetti 2 integral format.
 Two-electron integral symmetry is turned on.
 One-electron integrals computed using PRISM.
 NBasis=   174 RedAO= T EigKep=  1.70D-03  NBF=   174
 NBsUse=   174 1.00D-06 EigRej= -1.00D+00 NBFU=   174
 Initial guess from the checkpoint file:  "DATS_13_exo_iv.chk"
 B after Tr=    -0.000000   -0.000000   -0.000000
         Rot=    0.999681   -0.007076   -0.007030    0.023200 Ang=  -2.89 deg.
 ExpMin= 1.61D-01 ExpMax= 5.48D+03 ExpMxC= 8.25D+02 IAcc=3 IRadAn=         5 AccDes= 0.00D+00
 Harris functional with IExCor= 1009 and IRadAn=       5 diagonalized for initial guess.
 HarFok:  IExCor= 1009 AccDes= 0.00D+00 IRadAn=         5 IDoV= 1 UseB2=F ITyADJ=14
 ICtDFT=  3500011 ScaDFX=  1.000000  1.000000  1.000000  1.000000
 FoFCou: FMM=F IPFlag=           0 FMFlag=      100000 FMFlg1=           0
         NFxFlg=           0 DoJE=T BraDBF=F KetDBF=T FulRan=T
         wScrn=  0.000000 ICntrl=       500 IOpCl=  0 I1Cent=   200000004 NGrid=           0
         NMat0=    1 NMatS0=      1 NMatT0=    0 NMatD0=    1 NMtDS0=    0 NMtDT0=    0
 Petite list used in FoFCou.
 Requested convergence on RMS density matrix=1.00D-08 within 128 cycles.
 Requested convergence on MAX density matrix=1.00D-06.
 Requested convergence on             energy=1.00D-06.
 No special actions if energy rises.
 Integral accuracy reduced to 1.0D-05 until final iterations.
 Initial convergence to 1.0D-05 achieved.  Increase integral accuracy.
 SCF Done:  E(RM062X) =  -462.175801960     A.U. after   16 cycles
            NFock= 16  Conv=0.75D-08     -V/T= 2.0083
 Calling FoFJK, ICntrl=      2127 FMM=F ISym2X=0 I1Cent= 0 IOpClX= 0 NMat=1 NMatS=1 NMatT=0.
 ***** Axes restored to original set *****
 -------------------------------------------------------------------
 Center     Atomic                   Forces (Hartrees/Bohr)
 Number     Number              X              Y              Z
 -------------------------------------------------------------------
      1        6           0.000585439   -0.001186168    0.000249646
      2        6          -0.000352798    0.000908802    0.000316470
      3        6          -0.000740955   -0.000662994   -0.002388259
      4        6           0.001697977    0.002225354    0.000750193
      5        1          -0.000036356   -0.000129513    0.000144304
      6        1          -0.000402792    0.000176474    0.000056574
      7        1          -0.000516118   -0.000505666   -0.000261568
      8        6          -0.002175749    0.000754211    0.002592884
      9        6           0.002738973   -0.009670371    0.005451022
     10        1           0.000370556   -0.000021911   -0.000777059
     11        1          -0.000619460    0.000738384   -0.002484238
     12        1          -0.000328435   -0.001487968    0.000270134
     13        1           0.000525955    0.001063894    0.000836213
     14        6          -0.001173501   -0.000058631    0.000193363
     15        8           0.000271195   -0.000391685   -0.000105722
     16        1           0.000066419    0.000181120    0.000004602
     17        8           0.003209921    0.004694470   -0.004033389
     18        6          -0.001925751   -0.000222452    0.002467448
     19        1           0.001274873    0.001895348   -0.001676596
     20        1          -0.002441314   -0.000084747   -0.000891429
     21        1          -0.001271205    0.003172022    0.000698227
     22        1           0.001243126   -0.001387971   -0.001412819
 -------------------------------------------------------------------
 Cartesian Forces:  Max     0.009670371 RMS     0.002009275

 GradGradGradGradGradGradGradGradGradGradGradGradGradGradGradGradGradGrad
 Berny optimization.
 FormGI is forming the generalized inverse of G from B-inverse, IUseBI=4.
 Internal  Forces:  Max     0.008687682 RMS     0.001909407
 Search for a saddle point.
 Step number   2 out of a maximum of  103
 All quantities printed in internal units (Hartrees-Bohrs-Radians)
 Swapping is turned off.
 Update second derivatives using D2CorX and points    1    2
 ITU=  0  0
     Eigenvalues ---   -0.08854   0.00356   0.00443   0.00806   0.01209
     Eigenvalues ---    0.01461   0.01635   0.02053   0.02113   0.02550
     Eigenvalues ---    0.03003   0.03434   0.03717   0.03789   0.04059
     Eigenvalues ---    0.05314   0.05712   0.06657   0.07192   0.07720
     Eigenvalues ---    0.08371   0.09215   0.09411   0.10230   0.10706
     Eigenvalues ---    0.11160   0.12281   0.13706   0.14327   0.14973
     Eigenvalues ---    0.16615   0.17339   0.18186   0.19734   0.21241
     Eigenvalues ---    0.21959   0.22783   0.26349   0.30229   0.30385
     Eigenvalues ---    0.34720   0.35524   0.36268   0.37023   0.37197
     Eigenvalues ---    0.37350   0.37520   0.37689   0.37939   0.39211
     Eigenvalues ---    0.39726   0.40068   0.40935   0.41655   0.49231
     Eigenvalues ---    0.54214   0.64396   0.66551   0.78411   0.89797
 Eigenvectors required to have negative eigenvalues:
                          R1        D24       D20       D25       D14
   1                   -0.62499   0.28440  -0.19986   0.19969   0.19370
                          D13       R2        R13       A3        D16
   1                   -0.19166   0.19088  -0.17960   0.15923  -0.15220
 RFO step:  Lambda0=1.218637583D-04 Lambda=-3.39064061D-03.
 Linear search not attempted -- option 19 set.
 Iteration  1 RMS(Cart)=  0.10264682 RMS(Int)=  0.01256979
 Iteration  2 RMS(Cart)=  0.03630128 RMS(Int)=  0.00085778
 Iteration  3 RMS(Cart)=  0.00128469 RMS(Int)=  0.00010269
 Iteration  4 RMS(Cart)=  0.00000122 RMS(Int)=  0.00010269
 Iteration  5 RMS(Cart)=  0.00000000 RMS(Int)=  0.00010269
 Variable       Old X    -DE/DX   Delta X   Delta X   Delta X     New X
                                 (Linear)    (Quad)   (Total)
    R1        3.93862  -0.00110   0.00000   0.08733   0.08733   4.02595
    R2        2.63252   0.00071   0.00000  -0.00892  -0.00892   2.62360
    R3        2.04806  -0.00010   0.00000  -0.00090  -0.00090   2.04716
    R4        2.05744  -0.00000   0.00000  -0.00068  -0.00068   2.05676
    R5        2.61407   0.00053   0.00000  -0.00797  -0.00797   2.60609
    R6        2.05230   0.00019   0.00000   0.00033   0.00033   2.05263
    R7        2.04957   0.00036   0.00000   0.00036   0.00036   2.04992
    R8        2.60401  -0.00059   0.00000  -0.00419  -0.00419   2.59982
    R9        2.04406   0.00144   0.00000   0.00370   0.00370   2.04776
   R10        2.04263  -0.00004   0.00000   0.00113   0.00113   2.04376
   R11        2.04952  -0.00008   0.00000   0.00005   0.00005   2.04957
   R12        2.76894   0.00077   0.00000   0.00480   0.00480   2.77374
   R13        2.66615   0.00054   0.00000  -0.00035  -0.00035   2.66579
   R14        2.04843   0.00174   0.00000   0.00420   0.00420   2.05263
   R15        2.55799   0.00818   0.00000   0.02116   0.02116   2.57915
   R16        2.29059  -0.00042   0.00000  -0.00159  -0.00159   2.28900
   R17        2.10870  -0.00011   0.00000  -0.00048  -0.00048   2.10822
   R18        2.65431   0.00583   0.00000   0.01344   0.01344   2.66775
   R19        2.05166   0.00280   0.00000   0.00710   0.00710   2.05876
   R20        2.06723   0.00222   0.00000   0.00230   0.00230   2.06953
   R21        2.06472   0.00258   0.00000   0.00572   0.00572   2.07044
    A1        1.92769  -0.00124   0.00000  -0.01198  -0.01194   1.91575
    A2        1.66885   0.00050   0.00000  -0.01855  -0.01851   1.65034
    A3        1.62053   0.00052   0.00000  -0.01204  -0.01200   1.60853
    A4        2.07615   0.00014   0.00000   0.00875   0.00839   2.08455
    A5        2.05973   0.00003   0.00000   0.00626   0.00597   2.06570
    A6        1.99669  -0.00001   0.00000   0.00955   0.00919   2.00587
    A7        1.81254  -0.00009   0.00000  -0.00652  -0.00643   1.80611
    A8        1.80681   0.00047   0.00000  -0.00884  -0.00887   1.79794
    A9        1.57107  -0.00093   0.00000  -0.02793  -0.02778   1.54329
   A10        2.08189  -0.00053   0.00000  -0.00350  -0.00377   2.07812
   A11        2.07982   0.00102   0.00000   0.02050   0.02015   2.09996
   A12        1.98739  -0.00016   0.00000   0.00691   0.00647   1.99386
   A13        2.16532  -0.00163   0.00000  -0.02083  -0.02082   2.14450
   A14        2.06224   0.00046   0.00000   0.01166   0.01166   2.07390
   A15        2.00051   0.00108   0.00000   0.01119   0.01120   2.01170
   A16        2.11554   0.00010   0.00000   0.00112   0.00107   2.11661
   A17        2.09218  -0.00014   0.00000  -0.00408  -0.00413   2.08805
   A18        2.02947  -0.00013   0.00000  -0.00199  -0.00204   2.02743
   A19        2.11504   0.00063   0.00000   0.00608   0.00608   2.12113
   A20        2.11134  -0.00128   0.00000  -0.01376  -0.01376   2.09758
   A21        2.02276   0.00051   0.00000   0.00705   0.00705   2.02980
   A22        2.09473   0.00128   0.00000   0.01289   0.01286   2.10759
   A23        2.20191  -0.00869   0.00000  -0.03998  -0.03997   2.16195
   A24        1.96930   0.00730   0.00000   0.02494   0.02490   1.99420
   A25        2.19037  -0.00006   0.00000  -0.00141  -0.00141   2.18896
   A26        1.98893   0.00002   0.00000   0.00020   0.00020   1.98913
   A27        2.10381   0.00005   0.00000   0.00123   0.00123   2.10504
   A28        2.04998  -0.00156   0.00000  -0.01446  -0.01446   2.03552
   A29        1.85966  -0.00042   0.00000  -0.00569  -0.00568   1.85398
   A30        1.93251   0.00126   0.00000   0.01604   0.01600   1.94851
   A31        1.93291   0.00263   0.00000   0.00650   0.00646   1.93937
   A32        1.91546  -0.00059   0.00000  -0.01066  -0.01065   1.90481
   A33        1.91625  -0.00162   0.00000  -0.00307  -0.00307   1.91317
   A34        1.90666  -0.00127   0.00000  -0.00341  -0.00349   1.90317
    D1       -0.94554  -0.00021   0.00000   0.02174   0.02166  -0.92387
    D2       -3.13193   0.00021   0.00000   0.03294   0.03295  -3.09897
    D3        1.15115   0.00056   0.00000   0.03415   0.03413   1.18527
    D4        1.21464  -0.00025   0.00000   0.01767   0.01765   1.23230
    D5       -0.97174   0.00017   0.00000   0.02887   0.02894  -0.94280
    D6       -2.97185   0.00053   0.00000   0.03009   0.03011  -2.94174
    D7       -3.06371  -0.00013   0.00000   0.02387   0.02383  -3.03988
    D8        1.03309   0.00029   0.00000   0.03506   0.03511   1.06820
    D9       -0.96702   0.00064   0.00000   0.03628   0.03629  -0.93074
   D10        1.76158   0.00038   0.00000   0.00166   0.00164   1.76322
   D11       -1.71312  -0.00023   0.00000  -0.01613  -0.01615  -1.72926
   D12       -0.14097   0.00053   0.00000   0.02890   0.02901  -0.11196
   D13        2.66752  -0.00007   0.00000   0.01112   0.01122   2.67874
   D14       -2.68937   0.00024   0.00000  -0.01787  -0.01796  -2.70733
   D15        0.11912  -0.00036   0.00000  -0.03565  -0.03575   0.08337
   D16        1.07047  -0.00110   0.00000   0.00082   0.00073   1.07120
   D17       -1.78239  -0.00065   0.00000   0.00232   0.00222  -1.78017
   D18        3.06854  -0.00086   0.00000  -0.01693  -0.01698   3.05156
   D19        0.21568  -0.00040   0.00000  -0.01543  -0.01549   0.20019
   D20       -0.63869  -0.00027   0.00000   0.03128   0.03144  -0.60725
   D21        2.79164   0.00019   0.00000   0.03278   0.03293   2.82457
   D22       -3.00905   0.00125   0.00000   0.04806   0.04798  -2.96106
   D23       -0.08070   0.00154   0.00000   0.03826   0.03834  -0.04237
   D24        0.50263   0.00129   0.00000   0.03879   0.03871   0.54135
   D25       -2.85221   0.00158   0.00000   0.02899   0.02906  -2.82314
   D26       -2.93710   0.00050   0.00000   0.02329   0.02328  -2.91382
   D27        0.21742   0.00042   0.00000   0.02149   0.02148   0.23890
   D28       -0.11268  -0.00003   0.00000   0.00697   0.00698  -0.10570
   D29        3.04183  -0.00012   0.00000   0.00516   0.00518   3.04701
   D30        0.08080  -0.00144   0.00000  -0.02694  -0.02703   0.05377
   D31       -2.87432   0.00008   0.00000  -0.01090  -0.01080  -2.88512
   D32        2.94756  -0.00216   0.00000  -0.03165  -0.03175   2.91580
   D33       -0.00756  -0.00064   0.00000  -0.01562  -0.01552  -0.02309
   D34       -0.04102   0.00364   0.00000   0.27041   0.27038   0.22936
   D35        2.90041   0.00344   0.00000   0.26061   0.26064  -3.12214
   D36        3.00945   0.00137   0.00000  -0.00514  -0.00513   3.00433
   D37       -1.19164   0.00111   0.00000  -0.01251  -0.01259  -1.20422
   D38        0.92619   0.00212   0.00000  -0.00162  -0.00156   0.92463
         Item               Value     Threshold  Converged?
 Maximum Force            0.008688     0.000450     NO 
 RMS     Force            0.001909     0.000300     NO 
 Maximum Displacement     0.486191     0.001800     NO 
 RMS     Displacement     0.132641     0.001200     NO 
 Predicted change in Energy=-1.934782D-03
 GradGradGradGradGradGradGradGradGradGradGradGradGradGradGradGradGradGrad

                          Input orientation:                          
 ---------------------------------------------------------------------
 Center     Atomic      Atomic             Coordinates (Angstroms)
 Number     Number       Type             X           Y           Z
 ---------------------------------------------------------------------
      1          6           0       -0.557193   -1.428649   -0.349716
      2          6           0        0.940985   -0.677180    0.965403
      3          6           0       -0.802902    1.514672    0.519925
      4          6           0       -1.488579   -0.434450   -0.617299
      5          1           0        0.144644   -1.722188   -1.120961
      6          1           0       -0.830497   -2.219091    0.346773
      7          1           0       -1.462903    0.126016   -1.545495
      8          6           0        1.375077    0.470521    0.335942
      9          6           0        0.501899    1.549733    0.085194
     10          1           0        1.623993   -1.516121    1.062949
     11          1           0       -1.545394    2.241084    0.211239
     12          1           0        0.187821   -0.623177    1.744223
     13          1           0       -1.036088    0.973074    1.426547
     14          6           0       -2.760167   -0.414877    0.115586
     15          8           0       -3.728932    0.250737   -0.177113
     16          1           0       -2.776546   -1.078042    1.012556
     17          8           0        0.981862    2.463600   -0.807685
     18          6           0        0.158027    3.577868   -1.077194
     19          1           0        0.753397    4.256120   -1.687442
     20          1           0       -0.740980    3.290523   -1.632682
     21          1           0       -0.139817    4.081777   -0.151037
     22          1           0        2.310627    0.470174   -0.215950
 ---------------------------------------------------------------------
                    Distance matrix (angstroms):
                    1          2          3          4          5
     1  C    0.000000
     2  C    2.130441   0.000000
     3  C    3.078926   2.836161   0.000000
     4  C    1.388348   2.909750   2.358497   0.000000
     5  H    1.083310   2.465586   3.750682   2.139944   0.000000
     6  H    1.088389   2.428650   3.737878   2.132476   1.830862
     7  H    2.160366   3.567690   2.574865   1.084587   2.486020
     8  C    2.794752   1.379085   2.422332   3.150900   2.905943
     9  C    3.190859   2.434483   1.375764   2.896978   3.505411
    10  H    2.600163   1.086203   3.920511   3.698832   2.645827
    11  H    3.841633   3.907314   1.083630   2.801461   4.509823
    12  H    2.363982   1.084773   2.655341   2.902193   3.069034
    13  H    3.025347   2.616259   1.081512   2.522535   3.892090
    14  C    2.469278   3.806510   2.778045   1.467801   3.417022
    15  O    3.593056   4.896376   3.262674   2.383784   4.448356
    16  H    2.627591   3.739378   3.295469   2.174740   3.674257
    17  O    4.210467   3.606940   2.418346   3.812876   4.280175
    18  C    5.109400   4.784418   2.780459   4.361365   5.300253
    19  H    5.985295   5.604483   3.848386   5.307835   6.035863
    20  H    4.893910   5.032068   2.791271   3.932598   5.116000
    21  H    5.529780   5.006221   2.734941   4.736335   5.891322
    22  H    3.442065   2.141947   3.365494   3.925989   3.212005
                    6          7          8          9         10
     6  H    0.000000
     7  H    3.078985   0.000000
     8  C    3.478317   3.422370   0.000000
     9  C    4.005963   2.923451   1.410678   0.000000
    10  H    2.651716   4.362285   2.130082   3.408014   0.000000
    11  H    4.519138   2.750714   3.417542   2.164546   4.988689
    12  H    2.353036   3.756118   2.142197   2.751828   1.823205
    13  H    3.376107   3.119730   2.693640   2.120653   3.661192
    14  C    2.651842   2.175925   4.234705   3.808109   4.618560
    15  O    3.843883   2.650077   5.134436   4.433523   5.771772
    16  H    2.352098   3.117537   4.482390   4.302720   4.422578
    17  O    5.152186   3.462014   2.331279   1.364827   4.444073
    18  C    6.050586   3.842135   3.624054   2.362779   5.716467
    19  H    6.969585   4.689338   4.337202   3.244999   6.453011
    20  H    5.855092   3.246980   4.038017   2.743391   5.996945
    21  H    6.358129   4.398081   3.946292   2.622756   5.993434
    22  H    4.173184   4.015677   1.086204   2.127823   2.460166
                   11         12         13         14         15
    11  H    0.000000
    12  H    3.682127   0.000000
    13  H    1.828720   2.036390   0.000000
    14  C    2.922149   3.374386   2.572446   0.000000
    15  O    2.979956   4.449293   3.216349   1.211288   0.000000
    16  H    3.629661   3.087022   2.721701   1.115621   2.021881
    17  O    2.733998   4.083005   3.359403   4.810494   5.242706
    18  C    2.519661   5.060638   3.805205   5.087297   5.195035
    19  H    3.598583   5.991973   4.865961   6.116719   6.198021
    20  H    2.269019   5.251971   3.849226   4.567663   4.504091
    21  H    2.344151   5.082907   3.599460   5.211259   5.249695
    22  H    4.264681   3.089337   3.761809   5.158118   6.043668
                   16         17         18         19         20
    16  H    0.000000
    17  O    5.475595   0.000000
    18  C    5.886957   1.411713   0.000000
    19  H    6.942893   2.009800   1.089447   0.000000
    20  H    5.497742   2.081491   1.095146   1.780039   0.000000
    21  H    5.910162   2.075535   1.095629   1.785712   1.784026
    22  H    5.457611   2.467694   3.877265   4.350131   4.390193
                   21         22
    21  H    0.000000
    22  H    4.364924   0.000000
 Stoichiometry    C8H12O2
 Framework group  C1[X(C8H12O2)]
 Deg. of freedom    60
 Full point group                 C1      NOp   1
 Largest Abelian subgroup         C1      NOp   1
 Largest concise Abelian subgroup C1      NOp   1
                         Standard orientation:                         
 ---------------------------------------------------------------------
 Center     Atomic      Atomic             Coordinates (Angstroms)
 Number     Number       Type             X           Y           Z
 ---------------------------------------------------------------------
      1          6           0       -1.498222    1.344904    0.795072
      2          6           0       -0.081118    2.248130   -0.514424
      3          6           0        0.300237   -0.543090   -0.842245
      4          6           0       -1.415370   -0.037359    0.695104
      5          1           0       -1.121416    1.838008    1.683005
      6          1           0       -2.330983    1.849371    0.308643
[...]
 2,0.01463241,0.00112982,-0.01713085,-0.00002493,0.00011951,-0.00033417
 ,-0.01322876,0.05325461,-0.01010157,-0.00193398,-0.01503665,0.16735602
 ,0.00708706,-0.19668845,0.00431011,0.00229970,0.00140439,0.00247880,-0
 .00679137,-0.00133107,-0.00036348,-0.00014815,0.00001262,0.00060430,0.
 00030899,0.00104671,0.00037026,0.00027679,0.00033922,0.00929905,-0.009
 88462,-0.00256654,-0.00555324,0.00158809,-0.00070697,-0.00279513,0.000
 39057,0.00470234,-0.00028064,-0.00039902,0.00033324,-0.16619964,0.0043
 9683,0.20419719,-0.00183806,0.00123138,-0.00116164,0.00009021,0.002009
 33,0.00186806,-0.05943696,-0.02094306,0.05424125,-0.00059877,-0.003543
 96,-0.00361685,0.00008779,0.00014544,0.00008629,0.00024036,0.00011364,
 0.00025136,-0.00010007,-0.00010882,0.00010332,-0.00010602,-0.00229002,
 -0.00107194,-0.00410928,-0.01850346,0.02459987,0.00000208,-0.00020235,
 -0.00054593,0.00649201,0.00919040,-0.01703355,-0.00052102,0.00228383,-
 0.00050081,0.06461170,-0.00543225,0.00200928,-0.00336841,0.00634351,0.
 00307003,-0.00006792,-0.01632190,-0.11537166,0.14321578,-0.00086066,-0
 .00844308,-0.00844088,0.00034419,0.00038004,0.00037700,0.00027860,0.00
 005357,0.00042417,-0.00002373,-0.00045268,-0.00003824,0.00048239,-0.00
 801515,0.00131842,-0.01219499,0.00121065,0.00136800,-0.00046774,-0.000
 15542,-0.00060560,-0.00595062,-0.00735546,0.01580326,0.00211214,-0.001
 65468,0.00089716,0.02917467,0.13190109,-0.00439442,0.00138295,-0.00257
 261,0.00130659,0.00395967,0.00223915,0.06523493,0.15004104,-0.25605446
 ,-0.00160741,-0.00630592,-0.00626961,0.00026970,0.00028120,0.00022784,
 0.00030333,0.00015251,0.00038330,-0.00002933,-0.00028801,0.00013168,0.
 00049639,-0.00377021,-0.00029097,-0.00778613,0.00619512,-0.00439905,-0
 .00066132,-0.00016742,0.00012478,0.00217390,0.00245371,-0.00255688,0.0
 0030015,0.00013971,0.00064585,-0.05839203,-0.15309497,0.26515637,-0.02
 962118,0.01217308,0.00259452,0.00137854,0.00363822,-0.00056410,-0.0134
 3100,-0.01373992,-0.00758927,-0.17964474,0.00099967,0.08025200,0.00215
 273,0.00154258,0.00208976,-0.00271768,-0.00339658,0.00108234,0.0026648
 0,0.00087886,-0.00327100,0.00162968,0.00423105,0.00208608,0.00479427,-
 0.00812679,0.00150048,0.00000971,-0.00027861,0.00011065,0.00195264,0.0
 0291923,0.00122203,0.00048418,-0.00044748,-0.00020249,0.00000082,-0.00
 060296,0.00127059,0.79900966,0.03205308,-0.00735517,-0.01167689,-0.001
 14071,-0.00354482,-0.00101212,-0.00116875,-0.00231578,-0.00056682,-0.0
 2009122,-0.07240692,0.03358011,0.00668800,-0.00161135,0.00414239,-0.00
 010882,-0.00161623,-0.00420038,-0.01542638,0.00032650,0.00935802,-0.00
 124462,-0.00009303,-0.00144035,-0.00247427,0.00174709,0.00134128,0.000
 13498,0.00026518,0.00037447,-0.00158477,-0.00280634,-0.00097358,0.0004
 5686,0.00045800,0.00032877,-0.00099163,-0.00035342,-0.00184449,-0.2911
 2995,0.50925761,0.00242124,-0.00648657,0.01137767,-0.00626214,-0.00566
 099,-0.00054860,-0.00473666,-0.00430452,0.00106895,0.08306061,0.030402
 66,-0.14605516,0.00108678,0.00432587,0.00164503,-0.00460005,0.00058673
 ,-0.00166858,0.02568327,-0.00109072,-0.01134281,-0.00380092,0.00212552
 ,-0.00382055,0.00150377,0.00240725,-0.00237304,0.00009253,0.00019018,-
 0.00026931,0.00009925,0.00031537,-0.00039010,-0.00069261,0.00006858,-0
 .00011241,-0.00278492,-0.00249222,-0.00116550,0.02804681,-0.24025497,0
 .49579053,0.00349363,-0.00557957,0.01101543,-0.00297292,-0.00338781,-0
 .00047485,-0.00062129,0.00334891,0.00363507,-0.06543715,0.03763324,-0.
 00519520,-0.00228896,0.00109995,-0.00160786,0.00089164,0.00012949,-0.0
 0080065,0.00245246,-0.00094232,-0.00019362,-0.00144855,0.00068208,-0.0
 0203862,0.00064954,0.00217904,-0.00276770,-0.00007521,0.00008518,-0.00
 006439,-0.00054940,-0.00066358,0.00019987,0.00006288,0.00042486,0.0004
 3121,0.00000860,0.00071522,-0.00032959,-0.52527505,0.31184455,-0.14279
 709,0.59107483,-0.00622654,0.00533569,-0.00178884,0.00188999,0.0026754
 3,0.00044943,-0.00317392,-0.00277786,-0.00145415,0.03254024,0.00745392
 ,-0.00529209,-0.00061684,0.00014726,-0.00052378,-0.00042357,0.00085855
 ,0.00114498,0.00059590,-0.00083105,-0.00254967,0.00077600,-0.00039919,
 0.00120978,0.00063257,-0.00199350,-0.00017956,0.00001040,-0.00008848,-
 0.00008201,0.00140095,0.00242244,0.00092482,-0.00031325,-0.00040622,-0
 .00033560,0.00012325,-0.00033948,0.00057511,0.30876438,-0.29701030,0.1
 2592660,-0.36812838,0.29540853,0.00340549,0.00052424,0.00064041,0.0009
 5654,0.00043069,-0.00021219,0.00092097,0.00188205,0.00093812,0.0081603
 6,-0.01063513,0.02444281,-0.00052842,-0.00125718,-0.00054580,0.0013030
 8,-0.00067105,0.00012531,-0.00430153,-0.00074969,0.00227969,0.00077598
 ,-0.00062350,0.00055718,-0.00085936,0.00008661,-0.00015553,-0.00002281
 ,0.00001250,0.00009964,0.00010650,-0.00014743,-0.00021416,0.00020583,0
 .00012303,0.00016708,0.00064273,0.00038085,0.00028530,-0.13671858,0.12
 323891,-0.14580492,0.15697633,-0.14060539,0.11754650,-0.00011660,-0.00
 140351,-0.00003632,0.00029632,0.00046122,0.00025954,0.00097996,0.00080
 877,0.00011743,0.00113337,-0.01232026,0.02508139,0.00023367,0.00010524
 ,-0.00028085,0.00005110,0.00097342,-0.00048006,-0.00428780,0.00074323,
 0.00259891,0.00019680,-0.00033068,0.00020183,-0.00015271,0.00023964,0.
 00037861,0.00000585,-0.00002521,-0.00007178,-0.00011137,-0.00011947,-0
 .00004483,-0.00008489,-0.00006077,-0.00018861,0.00001715,-0.00008309,-
 0.00035253,-0.06384223,-0.01645908,0.02321722,0.00042985,0.03201059,-0
 .03071377,0.06520053,-0.00124231,0.00123091,-0.00159689,0.00000920,0.0
 0000934,0.00043094,0.00051599,0.00089785,0.00079429,0.00522080,0.00491
 197,0.00735222,-0.00039293,0.00032784,-0.00031557,-0.00038574,0.000218
 09,0.00005903,0.00021908,0.00179937,0.00112795,-0.00006647,-0.00029899
 ,0.00005162,-0.00021114,0.00032641,-0.00000066,0.00004179,0.00000986,-
 0.00005152,0.00001683,0.00005646,0.00000344,-0.00012981,-0.00005748,-0
 .00020265,-0.00008465,-0.00006945,-0.00013517,-0.02089962,-0.12250830,
 0.09442279,0.02199026,-0.01165925,0.02839338,-0.00459176,0.12489674,-0
 .00236498,0.00087547,-0.00085457,0.00066827,0.00066531,-0.00006967,0.0
 0026531,0.00058582,-0.00008271,0.00367799,0.01593016,-0.00896502,-0.00
 023708,-0.00067796,0.00013690,0.00078668,-0.00106939,0.00023979,0.0032
 3448,0.00116840,-0.00014462,0.00060970,-0.00004473,0.00068780,-0.00011
 427,-0.00049178,0.00015084,-0.00002947,-0.00002773,0.00007636,-0.00010
 824,-0.00031652,-0.00003068,0.00047695,0.00008180,0.00008479,0.0005628
 8,0.00054700,0.00020400,0.02997520,0.09016448,-0.19735272,-0.01767136,
 0.02299366,-0.00043902,-0.01948244,-0.13021816,0.20628676,0.00183068,-
 0.00163435,0.00121110,-0.00540780,0.00159927,0.00019282,-0.01421682,-0
 .03080123,0.03410808,0.00148014,0.00329944,0.00106684,-0.00015025,-0.0
 0019605,-0.00015731,-0.00039906,-0.00030539,-0.00040180,-0.00018110,-0
 .00001565,-0.00042711,0.01679487,0.02045443,-0.01664133,-0.12991650,-0
 .02544620,0.05510269,0.00069465,0.00126556,-0.00017869,0.00169024,0.00
 051295,-0.00211002,0.00046463,-0.00003623,-0.00027529,-0.00491685,0.00
 267235,0.00202598,-0.00069706,0.00088221,0.00046807,0.00016845,-0.0005
 2917,-0.00007568,0.00005551,-0.00001654,-0.00012829,0.31248251,-0.0057
 1720,-0.00173796,-0.00363701,0.00874746,0.00519560,0.00051031,-0.00881
 207,-0.00358867,0.01698002,-0.00004718,-0.00614560,0.00072673,0.000175
 54,0.00002181,0.00026668,-0.00008559,-0.00002049,-0.00011648,0.0001287
 5,0.00051143,-0.00023662,-0.00639700,-0.04603709,0.04240473,-0.0578866
 6,-0.17646034,0.12094390,-0.00067524,-0.00161972,0.00019493,-0.0005996
 0,-0.00232498,-0.00018332,-0.00085406,-0.00033088,-0.00072200,0.001188
 59,0.00437957,0.00157948,0.00509325,-0.00048035,-0.00126860,-0.0027839
 7,0.00163704,-0.00042042,0.00002854,-0.00015189,-0.00001573,-0.0852371
 4,0.45473631,0.00142249,0.00325869,0.00047796,0.00004454,-0.00110380,0
 .00422126,0.01844091,0.01832937,-0.01473799,-0.00057152,0.00224199,-0.
 00098734,0.00010089,0.00029396,-0.00003246,0.00048125,0.00024134,0.000
 65848,0.00120104,0.00069756,-0.00000054,0.00079631,0.02115336,-0.01447
 335,0.07730297,0.10781323,-0.15603554,0.00017905,0.00041247,0.00023654
 ,-0.00196149,-0.00177390,-0.00239135,0.00022813,-0.00027830,0.00005126
 ,0.00366169,0.00308082,0.00359668,-0.00241782,-0.00050593,0.00117606,0
 .00176604,-0.00063871,0.00033753,-0.00021210,-0.00007559,0.00009744,-0
 .06224723,-0.22042376,0.25354533,0.00006783,-0.00071486,-0.00017312,0.
 00082128,-0.00016071,-0.00011765,0.00025251,-0.00755070,0.00490662,-0.
 00061109,-0.00060128,0.00110915,-0.00002252,-0.00002702,0.00005181,-0.
 00021310,-0.00007191,-0.00023774,-0.00002917,-0.00019206,-0.00027843,-
 0.00077931,-0.00275387,0.00495196,0.00966930,-0.00513837,-0.00442391,-
 0.00017154,-0.00047295,0.00001077,-0.00099151,-0.00234391,0.00159479,-
 0.00008105,0.00002929,-0.00000157,-0.00076803,0.00050441,0.00042218,0.
 00202701,-0.00045562,-0.00051208,-0.00120315,0.00100419,-0.00031726,0.
 00002898,0.00001594,-0.00010325,-0.15820984,0.10062448,-0.02043776,0.5
 7732536,0.00040014,0.00115582,0.00008000,0.00109282,-0.00046736,0.0010
 0175,0.00101459,0.00350531,-0.00396154,0.00053909,0.00038385,-0.000442
 74,0.00004205,-0.00001234,-0.00000850,0.00020267,0.00013723,0.00018247
 ,-0.00011397,-0.00005924,-0.00011590,-0.00263530,0.00163203,-0.0002852
 0,0.01102495,-0.04299368,0.02069872,-0.00006730,0.00008017,0.00002463,
 0.00032966,-0.00182229,0.00091821,0.00013155,-0.00002072,-0.00002923,0
 .00183253,-0.00056847,-0.00067355,-0.00212644,0.00025213,0.00062894,0.
 00142868,-0.00069541,0.00013261,0.00000905,0.00005708,-0.00007026,0.07
 436311,-0.17476011,0.04056529,0.05903166,0.55196572,-0.00058766,-0.000
 17321,-0.00054323,-0.00007871,0.00173605,0.00089917,0.00022792,0.00110
 111,-0.00039896,-0.00021203,-0.00078514,0.00046581,0.00005752,0.000002
 61,0.00007882,-0.00003195,0.00000587,-0.00005762,-0.00001177,-0.000179
 86,-0.00015300,0.00377345,0.00064668,0.00025559,-0.01687518,0.02972102
 ,-0.01590861,0.00007575,0.00017989,-0.00009623,-0.00004622,0.00148339,
 -0.00121629,-0.00007484,-0.00023549,-0.00007283,-0.00087189,0.00064428
 ,0.00038627,0.00092855,-0.00019998,-0.00022977,-0.00045443,0.00041656,
 -0.00021712,0.00003142,0.00002740,-0.00005186,-0.00227468,0.02589099,-
 0.08045452,-0.03241485,-0.00627292,0.60774825,0.00016802,-0.00004214,0
 .00014047,-0.00041151,-0.00008872,0.00000558,-0.00111782,0.00012977,0.
 00026347,0.00004428,0.00028848,-0.00000553,-0.00000750,-0.00001974,-0.
 00001105,-0.00000037,-0.00002205,-0.00000898,-0.00000785,0.00005943,0.
 00004502,0.00053814,0.00086898,-0.00080298,-0.00222628,0.00327379,-0.0
 0054725,0.00006463,0.00010773,-0.00001510,0.00059956,-0.00056885,0.000
 06027,0.00004055,-0.00000476,-0.00000454,0.00033715,-0.00029697,-0.000
 00199,-0.00002850,0.00009724,-0.00001820,-0.00000679,-0.00009901,0.000
 02845,-0.00000133,-0.00000982,0.00002425,0.01223307,0.02204683,-0.0184
 0891,-0.14244363,-0.10281066,0.09653897,0.14803741,-0.00020238,-0.0000
 0906,-0.00008523,0.00055238,0.00000004,-0.00002460,0.00079499,0.000247
 67,0.00013873,-0.00010814,-0.00024390,-0.00002230,0.00000763,-0.000004
 59,0.00001485,0.00001166,-0.00000063,-0.00000062,0.00000075,0.00005350
 ,0.00005512,-0.00067108,-0.00096923,0.00119403,0.00368787,-0.00135887,
 -0.00161172,-0.00007451,-0.00014578,0.00001025,-0.00023024,0.00019721,
 -0.00034624,-0.00001931,0.00002722,-0.00000438,-0.00014056,0.00014136,
 0.00007644,0.00027188,-0.00000895,-0.00011327,-0.00017522,0.00005431,-
 0.00000613,0.00000330,-0.00001172,0.00001893,-0.00942269,-0.02758530,0
 .02224052,-0.09201358,-0.14706683,0.09128388,0.09604392,0.16948816,-0.
 00017966,0.00009037,-0.00008206,-0.00004709,0.00026177,0.00005050,-0.0
 0002299,0.00034248,0.00027673,0.00007647,-0.00008711,-0.00014301,0.000
 01974,0.00002133,0.00000642,0.00001890,0.00001439,0.00003215,0.0000277
 5,0.00008317,0.00003120,0.00044195,0.00019566,-0.00007905,-0.00135701,
 0.00036128,0.00144169,-0.00001976,0.00002375,-0.00008011,-0.00021193,-
 0.00014760,-0.00036298,0.00002392,-0.00000620,0.00000434,0.00009936,0.
 00006625,0.00003498,-0.00023180,0.00004046,0.00008896,0.00013507,-0.00
 010119,0.00002629,-0.00000620,-0.00000012,0.00000230,0.00140913,0.0081
 1825,-0.00593152,0.08977792,0.09563512,-0.14632917,-0.09598461,-0.1103
 1958,0.15248345,0.00011942,0.00017523,0.00013273,-0.00004722,-0.000135
 01,0.00017478,0.00009119,0.00078756,-0.00010338,0.00005889,0.00029296,
 -0.00031362,-0.00001483,0.00001765,-0.00003036,0.00005883,0.00001837,0
 .00007400,0.00009570,0.00012609,0.00007165,0.00005537,0.00078704,-0.00
 070582,-0.00159587,-0.00404745,0.00373642,0.00000286,0.00005377,-0.000
 03141,0.00044033,-0.00039999,0.00079085,0.00004161,0.00003184,0.000021
 05,0.00026796,-0.00043098,-0.00019057,-0.00034059,0.00001704,0.0001496
 5,0.00022563,-0.00010447,0.00002941,-0.00002801,0.00000399,0.00002773,
 -0.02203237,0.01095061,-0.01427731,-0.21493472,-0.07248393,-0.10270527
 ,-0.01231643,-0.00687305,-0.00922395,0.24094447,-0.00031671,0.00003144
 ,-0.00029180,0.00024987,0.00031812,-0.00014405,-0.00161776,0.00066730,
 0.00060754,-0.00006673,-0.00065839,-0.00006668,-0.00000791,-0.00001272
 ,0.00000181,0.00003216,0.00006922,0.00003724,-0.00009847,-0.00023840,-
 0.00006326,-0.00001303,-0.00130549,0.00013781,0.00312638,0.00494896,-0
 .00232298,0.00000566,-0.00002203,0.00000322,0.00019267,-0.00024917,0.0
 0174081,-0.00009519,0.00001592,-0.00002254,-0.00004692,-0.00055451,-0.
 00036725,0.00001120,0.00009378,-0.00006517,-0.00000045,0.00000790,-0.0
 0003178,0.00003252,0.00001001,-0.00002941,0.03256356,0.00185210,0.0209
 7157,-0.07649444,-0.08506577,-0.04771168,-0.01420927,-0.00501236,-0.01
 121976,0.06976912,0.08848239,0.00028400,-0.00003144,0.00024315,-0.0002
 4196,-0.00036093,0.00002527,-0.00052842,-0.00012040,-0.00035331,0.0001
 1299,0.00040994,-0.00002709,-0.00001743,-0.00003324,-0.00002253,0.0000
 1040,-0.00001961,-0.00000642,-0.00002393,0.00009218,0.00013090,0.00003
 389,0.00081936,-0.00036288,-0.00188690,-0.00274842,0.00187320,0.000025
 72,0.00002107,0.00000243,0.00050533,0.00020470,-0.00172551,0.00006654,
 0.00001861,0.00000143,0.00038617,-0.00016548,0.00021168,-0.00019605,0.
 00018364,-0.00002812,0.00006672,-0.00022056,0.00005186,0.00000882,-0.0
 0001066,0.00003539,-0.00801983,0.00660157,-0.00264575,-0.10156123,-0.0
 4482104,-0.11966773,0.01611227,0.00588395,0.01175273,0.11692796,0.0448
 5402,0.12372276,-0.00007920,0.00012486,0.00003631,-0.00000085,-0.00013
 520,-0.00003758,0.00039322,0.00005956,-0.00078448,0.00008927,-0.000024
 07,-0.00018683,0.00000707,0.00001030,-0.00000503,0.00003649,0.00000603
 ,0.00003600,0.00002684,0.00007247,0.00003800,-0.00028961,0.00031431,-0
 .00069927,-0.00037836,-0.00347659,0.00243372,0.00002014,0.00005101,0.0
 0002711,-0.00039523,-0.00074200,-0.00020147,0.00003817,0.00001990,-0.0
 0001465,0.00005780,0.00012689,0.00002227,-0.00024730,-0.00002817,0.000
 10225,0.00016656,-0.00006063,0.00004752,-0.00001745,-0.00000004,0.0000
 0728,-0.01235491,0.02268469,0.01510393,-0.06962988,0.02863908,0.055643
 79,-0.00348928,0.00853898,0.01525488,0.00884897,-0.01301349,-0.0221260
 4,0.07702851,-0.00111209,0.00015462,-0.00063001,0.00084702,0.00120319,
 0.00031328,-0.00038600,0.00065185,0.00081804,-0.00001053,-0.00115295,-
 0.00030375,0.00007547,0.00007682,0.00005537,0.00006553,0.00005658,0.00
 009823,0.00010566,0.00012256,0.00009974,0.00071394,-0.00180602,0.00128
 445,0.00198491,0.00539107,-0.00613342,-0.00005608,-0.00005738,-0.00007
 906,-0.00095576,-0.00134696,-0.00028710,-0.00013059,-0.00010768,-0.000
 09469,-0.00014369,0.00032010,0.00008243,0.00021148,-0.00007057,0.00000
 052,-0.00006889,0.00005853,-0.00000261,-0.00001620,-0.00001292,0.00001
 203,0.01744799,-0.02720557,-0.01558369,0.02795679,-0.10539059,-0.09745
 357,-0.00473451,0.01222302,0.01660502,0.00161242,-0.00354931,-0.010456
 52,-0.04313282,0.12038565,0.00034568,-0.00026601,0.00028430,-0.0004532
 3,-0.00029295,-0.00023115,0.00108172,-0.00113506,-0.00041946,-0.000006
 28,0.00038930,-0.00004571,-0.00004726,0.00000167,-0.00003658,-0.000059
 24,-0.00003922,-0.00004147,-0.00002459,-0.00001133,0.00001683,-0.00034
 107,0.00041265,-0.00009927,-0.00040619,0.00032155,0.00217363,-0.000043
 76,-0.00004675,-0.00002280,-0.00002788,0.00116909,0.00010702,0.0000427
 6,0.00004050,0.00010525,-0.00025714,0.00010923,-0.00010699,0.00003292,
 -0.00002437,-0.00002803,-0.00010222,0.00004029,0.00003194,-0.00001145,
 -0.00000117,0.00001800,-0.00109978,0.00509195,0.01398993,0.05818037,-0
 .10317566,-0.24414511,0.00254513,-0.00832279,-0.01324693,0.00547142,-0
 .00609378,-0.01320070,-0.06482394,0.11179758,0.25491458,-0.00027334,0.
 00011097,-0.00010043,-0.00275145,0.00156054,0.00413251,-0.00027966,0.0
 0450099,-0.00027922,0.00074255,-0.00014174,0.00009773,-0.00007640,-0.0
 0014414,-0.00015910,0.00004084,0.00001300,0.00003807,-0.00010786,-0.00
 000410,-0.00002968,-0.26396207,0.00478456,0.13364764,-0.01487338,-0.00
 089952,0.01186544,-0.00060894,-0.00125803,-0.00217416,-0.00084074,-0.0
 0042260,0.00027904,0.00269696,0.00025506,0.00161088,0.00018144,-0.0000
 8848,-0.00008067,-0.00025869,0.00013002,0.00027321,0.00025440,-0.00007
 267,-0.00002177,0.00001329,-0.00000308,-0.00007732,0.00058780,-0.00257
 305,-0.00019510,-0.00010375,0.00015598,-0.00063789,-0.00000551,0.00001
 740,-0.00000008,0.00005881,-0.00000277,0.00006097,0.00016902,-0.000274
 06,0.00000402,0.27939667,-0.00155602,0.00033071,-0.00095938,-0.0219215
 4,0.00485583,0.01712995,0.00393647,-0.00259371,0.00383260,0.00054130,-
 0.00147544,-0.00021595,0.00009407,0.00010210,-0.00015847,0.00022670,0.
 00017767,0.00020035,0.00005815,0.00010193,0.00001178,0.00446943,-0.056
 99267,0.00488950,0.02136360,0.00561258,-0.01409352,-0.00078250,0.00018
 421,-0.00182986,0.00122653,0.00025893,-0.00033633,-0.00008536,-0.00318
 488,0.00299426,-0.00029393,-0.00013224,-0.00027239,0.00001348,-0.00021
 875,0.00033601,0.00016874,0.00014115,-0.00005456,-0.00000550,0.0000180
 7,-0.00008138,-0.00142024,0.00011512,-0.00091651,-0.00017549,-0.000246
 53,-0.00012786,-0.00000970,-0.00001527,0.00002226,-0.00016883,0.000171
 02,-0.00010073,-0.00003506,0.00005595,0.00003528,-0.00564430,0.0527342
 3,-0.00148269,0.00064177,-0.00118788,0.01289977,0.00069770,-0.00377963
 ,0.00199061,0.00244536,0.00223005,0.00029225,-0.00123457,0.00003683,0.
 00028058,0.00008786,-0.00004425,0.00012809,0.00008168,0.00038657,-0.00
 000455,0.00002032,-0.00001041,0.13907083,0.00339927,-0.11830073,-0.004
 37976,0.00463810,0.00441868,-0.00266285,-0.00204624,-0.00289073,-0.000
 41188,-0.00013864,0.00004021,0.00437208,0.00411098,0.00341923,-0.00026
 630,0.00004150,-0.00021182,-0.00000082,-0.00005267,0.00004242,0.000271
 86,0.00009032,0.00005909,-0.00001426,-0.00005490,-0.00002951,-0.001547
 65,-0.00228560,-0.00069811,-0.00042672,-0.00001122,-0.00029188,0.00004
 526,-0.00005983,0.00002310,-0.00002597,0.00007612,-0.00001075,0.000126
 20,-0.00014226,-0.00001728,-0.14825408,-0.01030506,0.11681680\\0.00000
 256,0.00000027,0.00000210,0.00000035,0.00000139,0.00000160,-0.00000191
 ,-0.00000041,-0.00000045,0.00000064,-0.00000266,-0.00000027,0.00000287
 ,-0.00000066,0.00000221,0.00000185,0.00000005,0.00000166,0.00000244,-0
 .00000128,-0.00000039,-0.00000094,0.00000042,0.00000251,-0.00000208,-0
 .00000007,0.00000315,0.00000083,0.00000265,0.00000379,-0.00000128,-0.0
 0000175,-0.00000117,-0.00000064,0.00000192,0.00000174,-0.00000211,-0.0
 0000005,-0.00000133,0.00000089,-0.00000248,-0.00000187,0.00000039,-0.0
 0000263,-0.00000305,0.00000037,-0.00000129,-0.00000129,-0.00000015,0.0
 0000323,-0.00000266,-0.00000126,0.00000134,-0.00000355,-0.00000170,-0.
 00000040,-0.00000208,0.00000071,-0.00000047,-0.00000198,-0.00000241,0.
 00000025,-0.00000197,0.00000056,0.00000262,0.00000332\\\@
 The archive entry for this job was punched.


 A MAN IS NEVER SO BRILLIANT AS WHEN HE TAKES THE WORDS RIGHT OUT
 OF YOUR MOUTH. -- ARNOT SHEPPARD, JR.
 Job cpu time:       0 days  0 hours 23 minutes 20.3 seconds.
 Elapsed time:       0 days  0 hours  1 minutes 29.2 seconds.
 File lengths (MBytes):  RWF=     84 Int=      0 D2E=      0 Chk=      5 Scr=      1
 Normal termination of Gaussian 16 at Tue Jun 21 10:41:08 2022.
