Job Start Time: Tue Jun 21 10:16:25 MDT 2022
SLURM Job ID: 40864
SLURM Job Name: DATS_14_exo_iv
 Entering Gaussian System, Link 0=/opt/apps/Gaussian/G16C/g16/g16
 Initial command:
 /opt/apps/Gaussian/G16C/g16/l1.exe "/tmp/Gau-3714799.inp" -scrdir="/tmp/"
 Entering Link 1 = /opt/apps/Gaussian/G16C/g16/l1.exe PID=   3714800.
  
 Copyright (c) 1988-2019, Gaussian, Inc.  All Rights Reserved.
  
 This is part of the Gaussian(R) 16 program.  It is based on
 the Gaussian(R) 09 system (copyright 2009, Gaussian, Inc.),
 the Gaussian(R) 03 system (copyright 2003, Gaussian, Inc.),
 the Gaussian(R) 98 system (copyright 1998, Gaussian, Inc.),
 the Gaussian(R) 94 system (copyright 1995, Gaussian, Inc.),
 the Gaussian 92(TM) system (copyright 1992, Gaussian, Inc.),
 the Gaussian 90(TM) system (copyright 1990, Gaussian, Inc.),
 the Gaussian 88(TM) system (copyright 1988, Gaussian, Inc.),
 the Gaussian 86(TM) system (copyright 1986, Carnegie Mellon
 University), and the Gaussian 82(TM) system (copyright 1983,
 Carnegie Mellon University). Gaussian is a federally registered
 trademark of Gaussian, Inc.
  
 This software contains proprietary and confidential information,
 including trade secrets, belonging to Gaussian, Inc.
  
 This software is provided under written license and may be
 used, copied, transmitted, or stored only in accord with that
 written license.
  
 The following legend is applicable only to US Government
 contracts under FAR:
  
                    RESTRICTED RIGHTS LEGEND
  
 Use, reproduction and disclosure by the US Government is
 subject to restrictions as set forth in subparagraphs (a)
 and (c) of the Commercial Computer Software - Restricted
 Rights clause in FAR 52.227-19.
  
 Gaussian, Inc.
 340 Quinnipiac St., Bldg. 40, Wallingford CT 06492
  
  
 ---------------------------------------------------------------
 Warning -- This program may not be used in any manner that
 competes with the business of Gaussian, Inc. or will provide
 assistance to any competitor of Gaussian, Inc.  The licensee
 of this program is prohibited from giving any competitor of
 Gaussian, Inc. access to this program.  By using this program,
 the user acknowledges that Gaussian, Inc. is engaged in the
 business of creating and licensing software in the field of
 computational chemistry and represents and warrants to the
 licensee that it is not a competitor of Gaussian, Inc. and that
 it will not use this program in any manner prohibited above.
 ---------------------------------------------------------------
  

 Cite this work as:
 Gaussian 16, Revision C.01,
 M. J. Frisch, G. W. Trucks, H. B. Schlegel, G. E. Scuseria, 
 M. A. Robb, J. R. Cheeseman, G. Scalmani, V. Barone, 
 G. A. Petersson, H. Nakatsuji, X. Li, M. Caricato, A. V. Marenich, 
 J. Bloino, B. G. Janesko, R. Gomperts, B. Mennucci, H. P. Hratchian, 
 J. V. Ortiz, A. F. Izmaylov, J. L. Sonnenberg, D. Williams-Young, 
 F. Ding, F. Lipparini, F. Egidi, J. Goings, B. Peng, A. Petrone, 
 T. Henderson, D. Ranasinghe, V. G. Zakrzewski, J. Gao, N. Rega, 
 G. Zheng, W. Liang, M. Hada, M. Ehara, K. Toyota, R. Fukuda, 
 J. Hasegawa, M. Ishida, T. Nakajima, Y. Honda, O. Kitao, H. Nakai, 
 T. Vreven, K. Throssell, J. A. Montgomery, Jr., J. E. Peralta, 
 F. Ogliaro, M. J. Bearpark, J. J. Heyd, E. N. Brothers, K. N. Kudin, 
 V. N. Staroverov, T. A. Keith, R. Kobayashi, J. Normand, 
 K. Raghavachari, A. P. Rendell, J. C. Burant, S. S. Iyengar, 
 J. Tomasi, M. Cossi, J. M. Millam, M. Klene, C. Adamo, R. Cammi, 
 J. W. Ochterski, R. L. Martin, K. Morokuma, O. Farkas, 
 J. B. Foresman, and D. J. Fox, Gaussian, Inc., Wallingford CT, 2019.
 
 ******************************************
 Gaussian 16:  AS64L-G16RevC.01  3-Jul-2019
                21-Jun-2022 
 ******************************************
 %chk=DATS_14_exo_iv.chk
 %nprocshared=16
 Will use up to   16 processors via shared memory.
 -------------------------------------------------
 # opt=(calcfc,ts,noeigentest) freq 6-31g(d) m062x
 -------------------------------------------------
 1/5=1,10=4,11=1,18=20,26=3,38=1/1,3;
 2/9=110,12=2,17=6,18=5,40=1/2;
 3/5=1,6=6,7=1,11=2,25=1,30=1,71=2,74=-55,140=1/1,2,3;
 4//1;
 5/5=2,38=5/2;
 8/6=4,10=90,11=11/1;
 11/6=1,8=1,9=11,15=111,16=1/1,2,10;
 10/6=1,13=1/2;
 6/7=2,8=2,9=2,10=2,28=1/1;
 7/10=1,25=1/1,2,3,16;
 1/5=1,10=4,11=1,18=20,26=3/3(2);
 2/9=110/2;
 99//99;
 2/9=110/2;
 3/5=1,6=6,7=1,11=2,25=1,30=1,71=1,74=-55/1,2,3;
 4/5=5,16=3,69=1/1;
 5/5=2,38=5/2;
 7//1,2,3,16;
 1/5=1,11=1,18=20,26=3/3(-5);
 2/9=110/2;
 6/7=2,8=2,9=2,10=2,19=2,28=1/1;
 99/9=1/99;
 -------------------
 Title Card Required
 -------------------
 Symbolic Z-matrix:
 Charge =  0 Multiplicity = 1
 C                    -1.46442  -0.56807  -1.32635 
 C                     0.09333  -1.72764  -0.63331 
 C                    -0.6618   -0.69789   1.96113 
 C                    -2.10543   0.14941  -0.32654 
 H                    -0.79352  -0.00613  -1.97025 
 H                    -1.97319  -1.40925  -1.78957 
 H                    -1.71979   1.0879    0.05752 
 C                     0.87261  -0.81866   0.0633 
 C                     0.5031   -0.35359   1.37092 
 H                     0.48015  -2.07894  -1.58449 
 H                    -0.94845  -0.2551    2.90938 
 H                     1.11468   0.41255   1.83475 
 H                    -0.51082  -2.43206  -0.07673 
 H                    -1.30902  -1.4761    1.57811 
 O                     1.91672  -0.30717  -0.61036 
 C                     2.22272  -0.81754  -1.90048 
 H                     1.47263  -0.50292  -2.63482 
 H                     3.1842   -0.3788   -2.16634 
 H                     2.29865  -1.90811  -1.86459 
 C                    -3.30992  -0.40981   0.22655 
 O                    -3.96061   0.13794   1.11597 
 H                    -3.63656  -1.39032  -0.17337 
 
 Add virtual bond connecting atoms C2         and C1         Dist= 3.90D+00.

 GradGradGradGradGradGradGradGradGradGradGradGradGradGradGradGradGradGrad
 Berny optimization.
 Initialization pass.
                           ----------------------------
                           !    Initial Parameters    !
                           ! (Angstroms and Degrees)  !
 --------------------------                            --------------------------
 ! Name  Definition              Value          Derivative Info.                !
 --------------------------------------------------------------------------------
 ! R1    R(1,2)                  2.0619         calculate D2E/DX2 analytically  !
 ! R2    R(1,4)                  1.3876         calculate D2E/DX2 analytically  !
 ! R3    R(1,5)                  1.0865         calculate D2E/DX2 analytically  !
 ! R4    R(1,6)                  1.0867         calculate D2E/DX2 analytically  !
 ! R5    R(2,8)                  1.3852         calculate D2E/DX2 analytically  !
 ! R6    R(2,10)                 1.0853         calculate D2E/DX2 analytically  !
 ! R7    R(2,13)                 1.0821         calculate D2E/DX2 analytically  !
 ! R8    R(3,9)                  1.3505         calculate D2E/DX2 analytically  !
 ! R9    R(3,11)                 1.0851         calculate D2E/DX2 analytically  !
 ! R10   R(3,14)                 1.0822         calculate D2E/DX2 analytically  !
 ! R11   R(4,7)                  1.0849         calculate D2E/DX2 analytically  !
 ! R12   R(4,20)                 1.4385         calculate D2E/DX2 analytically  !
 ! R13   R(8,9)                  1.4362         calculate D2E/DX2 analytically  !
 ! R14   R(8,15)                 1.3437         calculate D2E/DX2 analytically  !
 ! R15   R(9,12)                 1.0845         calculate D2E/DX2 analytically  !
 ! R16   R(15,16)                1.4208         calculate D2E/DX2 analytically  !
 ! R17   R(16,17)                1.0958         calculate D2E/DX2 analytically  !
 ! R18   R(16,18)                1.0898         calculate D2E/DX2 analytically  !
 ! R19   R(16,19)                1.0938         calculate D2E/DX2 analytically  !
 ! R20   R(20,21)                1.2306         calculate D2E/DX2 analytically  !
 ! R21   R(20,22)                1.1082         calculate D2E/DX2 analytically  !
 ! A1    A(2,1,4)              113.4295         calculate D2E/DX2 analytically  !
 ! A2    A(2,1,5)               91.3497         calculate D2E/DX2 analytically  !
 ! A3    A(2,1,6)               93.5351         calculate D2E/DX2 analytically  !
 ! A4    A(4,1,5)              116.4141         calculate D2E/DX2 analytically  !
 ! A5    A(4,1,6)              119.4123         calculate D2E/DX2 analytically  !
 ! A6    A(5,1,6)              115.9008         calculate D2E/DX2 analytically  !
 ! A7    A(1,2,8)              103.0036         calculate D2E/DX2 analytically  !
 ! A8    A(1,2,10)              99.0173         calculate D2E/DX2 analytically  !
 ! A9    A(1,2,13)              96.7289         calculate D2E/DX2 analytically  !
 ! A10   A(8,2,10)             116.9147         calculate D2E/DX2 analytically  !
 ! A11   A(8,2,13)             118.8543         calculate D2E/DX2 analytically  !
 ! A12   A(10,2,13)            116.0454         calculate D2E/DX2 analytically  !
 ! A13   A(9,3,11)             120.3807         calculate D2E/DX2 analytically  !
 ! A14   A(9,3,14)             122.9906         calculate D2E/DX2 analytically  !
 ! A15   A(11,3,14)            116.4069         calculate D2E/DX2 analytically  !
 ! A16   A(1,4,7)              122.5587         calculate D2E/DX2 analytically  !
 ! A17   A(1,4,20)             117.5707         calculate D2E/DX2 analytically  !
 ! A18   A(7,4,20)             119.8549         calculate D2E/DX2 analytically  !
 ! A19   A(2,8,9)              121.7106         calculate D2E/DX2 analytically  !
 ! A20   A(2,8,15)             115.7722         calculate D2E/DX2 analytically  !
 ! A21   A(9,8,15)             122.2151         calculate D2E/DX2 analytically  !
 ! A22   A(3,9,8)              122.4973         calculate D2E/DX2 analytically  !
 ! A23   A(3,9,12)             118.6603         calculate D2E/DX2 analytically  !
 ! A24   A(8,9,12)             118.2339         calculate D2E/DX2 analytically  !
 ! A25   A(8,15,16)            119.0684         calculate D2E/DX2 analytically  !
 ! A26   A(15,16,17)           110.9735         calculate D2E/DX2 analytically  !
 ! A27   A(15,16,18)           105.4809         calculate D2E/DX2 analytically  !
 ! A28   A(15,16,19)           110.0796         calculate D2E/DX2 analytically  !
 ! A29   A(17,16,18)           108.9558         calculate D2E/DX2 analytically  !
 ! A30   A(17,16,19)           110.8408         calculate D2E/DX2 analytically  !
 ! A31   A(18,16,19)           110.375          calculate D2E/DX2 analytically  !
 ! A32   A(4,20,21)            123.1996         calculate D2E/DX2 analytically  !
 ! A33   A(4,20,22)            116.8726         calculate D2E/DX2 analytically  !
 ! A34   A(21,20,22)           119.9195         calculate D2E/DX2 analytically  !
 ! D1    D(4,1,2,8)            -53.5423         calculate D2E/DX2 analytically  !
 ! D2    D(4,1,2,10)          -174.0091         calculate D2E/DX2 analytically  !
 ! D3    D(4,1,2,13)            68.191          calculate D2E/DX2 analytically  !
 ! D4    D(5,1,2,8)             66.139          calculate D2E/DX2 analytically  !
 ! D5    D(5,1,2,10)           -54.3278         calculate D2E/DX2 analytically  !
 ! D6    D(5,1,2,13)          -172.1277         calculate D2E/DX2 analytically  !
 ! D7    D(6,1,2,8)           -177.8066         calculate D2E/DX2 analytically  !
 ! D8    D(6,1,2,10)            61.7266         calculate D2E/DX2 analytically  !
 ! D9    D(6,1,2,13)           -56.0733         calculate D2E/DX2 analytically  !
 ! D10   D(2,1,4,7)             81.4457         calculate D2E/DX2 analytically  !
 ! D11   D(2,1,4,20)           -97.1109         calculate D2E/DX2 analytically  !
 ! D12   D(5,1,4,7)            -22.6719         calculate D2E/DX2 analytically  !
 ! D13   D(5,1,4,20)           158.7715         calculate D2E/DX2 analytically  !
 ! D14   D(6,1,4,7)           -169.8038         calculate D2E/DX2 analytically  !
 ! D15   D(6,1,4,20)            11.6396         calculate D2E/DX2 analytically  !
 ! D16   D(1,2,8,9)             76.8388         calculate D2E/DX2 analytically  !
 ! D17   D(1,2,8,15)           -96.9793         calculate D2E/DX2 analytically  !
 ! D18   D(10,2,8,9)          -175.8457         calculate D2E/DX2 analytically  !
 ! D19   D(10,2,8,15)           10.3362         calculate D2E/DX2 analytically  !
 ! D20   D(13,2,8,9)           -28.501          calculate D2E/DX2 analytically  !
 ! D21   D(13,2,8,15)          157.6809         calculate D2E/DX2 analytically  !
 ! D22   D(11,3,9,8)          -174.3303         calculate D2E/DX2 analytically  !
 ! D23   D(11,3,9,12)           -3.4377         calculate D2E/DX2 analytically  !
 ! D24   D(14,3,9,8)            11.2779         calculate D2E/DX2 analytically  !
 ! D25   D(14,3,9,12)         -177.8294         calculate D2E/DX2 analytically  !
 ! D26   D(1,4,20,21)          180.0            calculate D2E/DX2 analytically  !
 ! D27   D(1,4,20,22)            1.0468         calculate D2E/DX2 analytically  !
 ! D28   D(7,4,20,21)            1.4027         calculate D2E/DX2 analytically  !
 ! D29   D(7,4,20,22)         -177.5505         calculate D2E/DX2 analytically  !
 ! D30   D(2,8,9,3)             -4.6293         calculate D2E/DX2 analytically  !
 ! D31   D(2,8,9,12)          -175.5589         calculate D2E/DX2 analytically  !
 ! D32   D(15,8,9,3)           168.7891         calculate D2E/DX2 analytically  !
 ! D33   D(15,8,9,12)           -2.1406         calculate D2E/DX2 analytically  !
 ! D34   D(2,8,15,16)           -6.2161         calculate D2E/DX2 analytically  !
 ! D35   D(9,8,15,16)          180.0            calculate D2E/DX2 analytically  !
 ! D36   D(8,15,16,17)          71.3844         calculate D2E/DX2 analytically  !
 ! D37   D(8,15,16,18)        -170.7659         calculate D2E/DX2 analytically  !
 ! D38   D(8,15,16,19)         -51.6949         calculate D2E/DX2 analytically  !
 --------------------------------------------------------------------------------
 Trust Radius=3.00D-01 FncErr=1.00D-07 GrdErr=1.00D-06 EigMax=2.50D+02 EigMin=1.00D-04
 Number of steps in this run=    103 maximum allowed number of steps=    132.
 Search for a saddle point of order  1.
 GradGradGradGradGradGradGradGradGradGradGradGradGradGradGradGradGradGrad

                          Input orientation:                          
 ---------------------------------------------------------------------
 Center     Atomic      Atomic             Coordinates (Angstroms)
 Number     Number       Type             X           Y           Z
 ---------------------------------------------------------------------
      1          6           0       -1.464415   -0.568069   -1.326353
      2          6           0        0.093334   -1.727641   -0.633314
      3          6           0       -0.661802   -0.697890    1.961129
      4          6           0       -2.105435    0.149406   -0.326537
      5          1           0       -0.793518   -0.006127   -1.970248
      6          1           0       -1.973191   -1.409247   -1.789571
      7          1           0       -1.719790    1.087903    0.057518
      8          6           0        0.872608   -0.818663    0.063303
      9          6           0        0.503101   -0.353587    1.370921
     10          1           0        0.480154   -2.078938   -1.584489
     11          1           0       -0.948452   -0.255096    2.909377
     12          1           0        1.114683    0.412547    1.834752
     13          1           0       -0.510818   -2.432057   -0.076729
     14          1           0       -1.309017   -1.476100    1.578107
     15          8           0        1.916719   -0.307165   -0.610363
     16          6           0        2.222716   -0.817542   -1.900484
     17          1           0        1.472629   -0.502915   -2.634818
     18          1           0        3.184202   -0.378798   -2.166337
     19          1           0        2.298652   -1.908107   -1.864591
     20          6           0       -3.309917   -0.409806    0.226548
     21          8           0       -3.960607    0.137943    1.115968
     22          1           0       -3.636563   -1.390316   -0.173366
 ---------------------------------------------------------------------
                    Distance matrix (angstroms):
                    1          2          3          4          5
     1  C    0.000000
     2  C    2.061915   0.000000
     3  C    3.386529   2.891669   0.000000
     4  C    1.387555   2.907233   2.834679   0.000000
     5  H    1.086500   2.353191   3.993947   2.108815   0.000000
     6  H    1.086740   2.389316   4.036523   2.141811   1.842015
     7  H    2.173144   3.419350   2.816404   1.084895   2.483287
     8  C    2.730498   1.385202   2.443511   3.155610   2.751640
     9  C    3.345506   2.464324   1.350514   3.152590   3.600744
    10  H    2.476027   1.085253   3.972753   3.637751   2.463249
    11  H    4.278502   3.975471   1.085085   3.460256   4.888428
    12  H    4.195943   3.422705   2.098795   3.887103   4.277212
    13  H    2.438311   1.082122   2.680111   3.044529   3.090383
    14  H    3.047057   2.630636   1.082222   2.627588   3.875227
    15  O    3.465946   2.311496   3.662514   4.057923   3.047178
    16  C    3.739893   2.639748   4.821496   4.705868   3.124249
    17  H    3.215984   2.721843   5.071148   4.307694   2.413270
    18  H    4.727688   3.704457   5.650623   5.625311   3.999948
    19  H    4.030642   2.532201   4.986487   5.098525   3.631832
    20  C    2.417111   3.749422   3.178722   1.438540   3.364689
    21  O    3.562914   4.793206   3.506426   2.350024   4.424470
    22  H    2.593009   3.773257   3.726221   2.176823   3.636986
                    6          7          8          9         10
     6  H    0.000000
     7  H    3.116361   0.000000
     8  C    3.446811   3.218004   0.000000
     9  C    4.151524   2.957053   1.436209   0.000000
    10  H    2.551362   4.191040   2.111287   3.422252   0.000000
    11  H    4.945934   3.245260   3.425493   2.117440   5.055902
    12  H    5.098001   3.413049   2.170832   1.084497   4.278006
    13  H    2.473561   3.724211   2.129910   2.728325   1.838494
    14  H    3.433198   3.009159   2.736118   2.141666   3.683281
    15  O    4.211474   3.951769   1.343735   2.434329   2.480286
    16  C    4.238874   4.796649   2.383119   3.724839   2.174281
    17  H    3.661906   4.468882   2.782010   4.124104   2.138234
    18  H    5.272805   5.580849   3.241642   4.438596   3.246675
    19  H    4.301527   5.368282   2.633869   4.013611   1.847857
    20  C    2.617337   2.190938   4.205631   3.981439   4.520010
    21  O    3.845227   2.654054   5.038170   4.497920   5.650432
    22  H    2.319328   3.141480   4.551419   4.538331   4.405998
                   11         12         13         14         15
    11  H    0.000000
    12  H    2.420143   0.000000
    13  H    3.721224   3.793123   0.000000
    14  H    1.842047   3.083371   2.071101   0.000000
    15  O    4.538776   2.672047   3.269995   4.069543   0.000000
    16  C    5.788559   4.085688   3.661277   5.000744   1.420750
    17  H    6.054845   4.576380   3.768218   5.141340   2.081815
    18  H    6.546526   4.573604   4.715454   5.950962   2.008158
    19  H    6.005573   4.524639   3.371068   5.005405   2.069294
    20  C    3.577432   4.779087   3.466472   2.639563   5.294212
    21  O    3.527587   5.133286   4.464131   3.138413   6.141766
    22  H    4.244758   5.464173   3.296186   2.914187   5.674779
                   16         17         18         19         20
    16  C    0.000000
    17  H    1.095841   0.000000
    18  H    1.089784   1.778865   0.000000
    19  H    1.093794   1.802811   1.792773   0.000000
    20  C    5.941426   5.573942   6.921014   6.170398   0.000000
    21  O    6.945892   6.633185   7.879647   7.228303   1.230647
    22  H    6.135320   5.740214   7.177599   6.193151   1.108164
                   21         22
    21  O    0.000000
    22  H    2.025577   0.000000
 Stoichiometry    C8H12O2
 Framework group  C1[X(C8H12O2)]
 Deg. of freedom    60
 Full point group                 C1      NOp   1
 Largest Abelian subgroup         C1      NOp   1
 Largest concise Abelian subgroup C1      NOp   1
                         Standard orientation:                         
 ---------------------------------------------------------------------
 Center     Atomic      Atomic             Coordinates (Angstroms)
 Number     Number       Type             X           Y           Z
 ---------------------------------------------------------------------
      1          6           0       -0.441455   -1.489455   -0.067842
      2          6           0        0.924106   -0.402777    1.030276
      3          6           0       -0.759780    1.853488    0.370315
      4          6           0       -1.455616   -0.713427   -0.610583
      5          1           0        0.334031   -1.819709   -0.753434
      6          1           0       -0.667041   -2.163682    0.754066
      7          1           0       -1.330581   -0.147490   -1.527685
      8          6           0        1.318115    0.587562    0.145533
      9          6           0        0.486097    1.724203   -0.134626
     10          1           0        1.641407   -1.190468    1.237148
     11          1           0       -1.392951    2.679813    0.064226
     12          1           0        0.816529    2.427984   -0.890694
     13          1           0        0.256575   -0.142998    1.841390
     14          1           0       -1.148859    1.212338    1.150538
     15          8           0        2.458904    0.352337   -0.524463
     16          6           0        3.230937   -0.793129   -0.192191
     17          1           0        2.734063   -1.711214   -0.525512
     18          1           0        4.168183   -0.680156   -0.736650
     19          1           0        3.417364   -0.820715    0.885246
     20          6           0       -2.701256   -0.649542    0.106144
     21          8           0       -3.668243    0.006210   -0.280403
     22          1           0       -2.760893   -1.213624    1.058133
 ---------------------------------------------------------------------
 Rotational constants (GHZ):           2.5442051           0.7369141           0.6264082
 Standard basis: 6-31G(d) (6D, 7F)
 There are   174 symmetry adapted cartesian basis functions of A   symmetry.
 There are   174 symmetry adapted basis functions of A   symmetry.
   174 basis functions,   328 primitive gaussians,   174 cartesian basis functions
    38 alpha electrons       38 beta electrons
       nuclear repulsion energy       519.6092530064 Hartrees.
 NAtoms=   22 NActive=   22 NUniq=   22 SFac= 1.00D+00 NAtFMM=   60 NAOKFM=F Big=F
 Integral buffers will be    131072 words long.
 Raffenetti 2 integral format.
 Two-electron integral symmetry is turned on.
 One-electron integrals computed using PRISM.
 NBasis=   174 RedAO= T EigKep=  1.97D-03  NBF=   174
 NBsUse=   174 1.00D-06 EigRej= -1.00D+00 NBFU=   174
 ExpMin= 1.61D-01 ExpMax= 5.48D+03 ExpMxC= 8.25D+02 IAcc=3 IRadAn=         5 AccDes= 0.00D+00
 Harris functional with IExCor= 1009 and IRadAn=       5 diagonalized for initial guess.
 HarFok:  IExCor= 1009 AccDes= 0.00D+00 IRadAn=         5 IDoV= 1 UseB2=F ITyADJ=14
 ICtDFT=  3500011 ScaDFX=  1.000000  1.000000  1.000000  1.000000
 FoFCou: FMM=F IPFlag=           0 FMFlag=      100000 FMFlg1=           0
         NFxFlg=           0 DoJE=T BraDBF=F KetDBF=T FulRan=T
         wScrn=  0.000000 ICntrl=       500 IOpCl=  0 I1Cent=   200000004 NGrid=           0
         NMat0=    1 NMatS0=      1 NMatT0=    0 NMatD0=    1 NMtDS0=    0 NMtDT0=    0
 Petite list used in FoFCou.
 Requested convergence on RMS density matrix=1.00D-08 within 128 cycles.
 Requested convergence on MAX density matrix=1.00D-06.
 Requested convergence on             energy=1.00D-06.
 No special actions if energy rises.
 Integral accuracy reduced to 1.0D-05 until final iterations.
 Initial convergence to 1.0D-05 achieved.  Increase integral accuracy.
 SCF Done:  E(RM062X) =  -462.165872374     A.U. after   16 cycles
            NFock= 16  Conv=0.93D-08     -V/T= 2.0083
 DoSCS=F DFT=T ScalE2(SS,OS)=  1.000000  1.000000
 Range of M.O.s used for correlation:     1   174
 NBasis=   174 NAE=    38 NBE=    38 NFC=     0 NFV=     0
 NROrb=    174 NOA=    38 NOB=    38 NVA=   136 NVB=   136
 Symmetrizing basis deriv contribution to polar:
 IMax=3 JMax=2 DiffMx= 0.00D+00
 G2DrvN: will do    23 centers at a time, making    1 passes.
 Calling FoFCou, ICntrl=  3107 FMM=F I1Cent=   0 AccDes= 0.00D+00.
 End of G2Drv F.D. properties file   721 does not exist.
 End of G2Drv F.D. properties file   722 does not exist.
 End of G2Drv F.D. properties file   788 does not exist.
          IDoAtm=1111111111111111111111
          Differentiating once with respect to nuclear coordinates.
 CalDSu exits because no D1Ps are significant.
          There are    69 degrees of freedom in the 1st order CPHF.  IDoFFX=6 NUNeed=     0.
     63 vectors produced by pass  0 Test12= 7.49D-15 1.45D-09 XBig12= 8.43D-02 1.26D-01.
 AX will form    63 AO Fock derivatives at one time.
     63 vectors produced by pass  1 Test12= 7.49D-15 1.45D-09 XBig12= 8.30D-03 1.91D-02.
     63 vectors produced by pass  2 Test12= 7.49D-15 1.45D-09 XBig12= 1.63D-04 3.58D-03.
     63 vectors produced by pass  3 Test12= 7.49D-15 1.45D-09 XBig12= 1.12D-06 1.45D-04.
     63 vectors produced by pass  4 Test12= 7.49D-15 1.45D-09 XBig12= 4.70D-09 9.83D-06.
     63 vectors produced by pass  5 Test12= 7.49D-15 1.45D-09 XBig12= 1.44D-11 3.84D-07.
     31 vectors produced by pass  6 Test12= 7.49D-15 1.45D-09 XBig12= 3.88D-14 2.05D-08.
 InvSVY:  IOpt=1 It=  1 EMax= 4.44D-16
 Solved reduced A of dimension   409 with    69 vectors.
 End of Minotr F.D. properties file   721 does not exist.
 End of Minotr F.D. properties file   722 does not exist.
 End of Minotr F.D. properties file   788 does not exist.

 **********************************************************************

            Population analysis using the SCF Density.

 **********************************************************************

 Orbital symmetries:
       Occupied  (A) (A) (A) (A) (A) (A) (A) (A) (A) (A) (A) (A)
                 (A) (A) (A) (A) (A) (A) (A) (A) (A) (A) (A) (A)
                 (A) (A) (A) (A) (A) (A) (A) (A) (A) (A) (A) (A)
                 (A) (A)
       Virtual   (A) (A) (A) (A) (A) (A) (A) (A) (A) (A) (A) (A)
                 (A) (A) (A) (A) (A) (A) (A) (A) (A) (A) (A) (A)
                 (A) (A) (A) (A) (A) (A) (A) (A) (A) (A) (A) (A)
                 (A) (A) (A) (A) (A) (A) (A) (A) (A) (A) (A) (A)
                 (A) (A) (A) (A) (A) (A) (A) (A) (A) (A) (A) (A)
                 (A) (A) (A) (A) (A) (A) (A) (A) (A) (A) (A) (A)
                 (A) (A) (A) (A) (A) (A) (A) (A) (A) (A) (A) (A)
                 (A) (A) (A) (A) (A) (A) (A) (A) (A) (A) (A) (A)
                 (A) (A) (A) (A) (A) (A) (A) (A) (A) (A) (A) (A)
                 (A) (A) (A) (A) (A) (A) (A) (A) (A) (A) (A) (A)
                 (A) (A) (A) (A) (A) (A) (A) (A) (A) (A) (A) (A)
                 (A) (A) (A) (A)
 The electronic state is 1-A.
 Alpha  occ. eigenvalues --  -19.69116 -19.59463 -10.63051 -10.61910 -10.60252
 Alpha  occ. eigenvalues --  -10.57157 -10.56890 -10.56641 -10.55693 -10.53029
 Alpha  occ. eigenvalues --   -1.21338  -1.11584  -0.92874  -0.87547  -0.84069
 Alpha  occ. eigenvalues --   -0.82294  -0.71757  -0.70924  -0.63909  -0.62987
 Alpha  occ. eigenvalues --   -0.60426  -0.57600  -0.56807  -0.52503  -0.51830
 Alpha  occ. eigenvalues --   -0.51484  -0.49168  -0.47197  -0.45987  -0.44961
 Alpha  occ. eigenvalues --   -0.44465  -0.43980  -0.42639  -0.40520  -0.37469
 Alpha  occ. eigenvalues --   -0.32956  -0.29358  -0.23716
 Alpha virt. eigenvalues --   -0.03106   0.03790   0.10413   0.11377   0.13522
 Alpha virt. eigenvalues --    0.15024   0.16450   0.16968   0.17288   0.18394
 Alpha virt. eigenvalues --    0.18960   0.20749   0.21427   0.22872   0.23960
 Alpha virt. eigenvalues --    0.26406   0.27634   0.32106   0.33816   0.34377
 Alpha virt. eigenvalues --    0.37645   0.39195   0.43192   0.44328   0.50974
 Alpha virt. eigenvalues --    0.55396   0.56606   0.57353   0.59523   0.60305
 Alpha virt. eigenvalues --    0.61757   0.63108   0.64450   0.65072   0.65989
 Alpha virt. eigenvalues --    0.67968   0.69257   0.70916   0.74472   0.75253
 Alpha virt. eigenvalues --    0.78597   0.79779   0.80235   0.84500   0.88042
 Alpha virt. eigenvalues --    0.88818   0.89120   0.91260   0.92157   0.92384
 Alpha virt. eigenvalues --    0.93689   0.95634   0.96390   0.98206   0.99785
 Alpha virt. eigenvalues --    1.00467   1.02084   1.02837   1.03332   1.06222
 Alpha virt. eigenvalues --    1.08872   1.10236   1.11948   1.13977   1.15786
 Alpha virt. eigenvalues --    1.20282   1.22800   1.23592   1.27231   1.31176
 Alpha virt. eigenvalues --    1.34898   1.38122   1.40738   1.41942   1.45048
 Alpha virt. eigenvalues --    1.49162   1.54194   1.55725   1.60191   1.62453
 Alpha virt. eigenvalues --    1.64641   1.70961   1.74381   1.76811   1.80216
 Alpha virt. eigenvalues --    1.82666   1.84888   1.89856   1.91183   1.92495
 Alpha virt. eigenvalues --    1.96374   1.97007   1.99116   2.04482   2.04992
 Alpha virt. eigenvalues --    2.07681   2.10868   2.12727   2.14860   2.16174
 Alpha virt. eigenvalues --    2.16745   2.19396   2.19973   2.25382   2.28063
 Alpha virt. eigenvalues --    2.29986   2.30866   2.36200   2.37975   2.41513
 Alpha virt. eigenvalues --    2.47068   2.50924   2.53411   2.56900   2.59601
 Alpha virt. eigenvalues --    2.61220   2.65885   2.66876   2.67489   2.75157
 Alpha virt. eigenvalues --    2.88789   2.90232   3.00713   3.08434   3.10606
 Alpha virt. eigenvalues --    3.14947   3.95490   4.08865   4.15352   4.21313
 Alpha virt. eigenvalues --    4.26522   4.30017   4.35132   4.42064   4.52886
 Alpha virt. eigenvalues --    4.61129
          Condensed to atoms (all electrons):
               1          2          3          4          5          6
     1  C    5.227517   0.027440  -0.004738   0.446058   0.381892   0.382235
     2  C    0.027440   5.455082  -0.019407  -0.038614  -0.033786  -0.013611
     3  C   -0.004738  -0.019407   5.068847   0.021367   0.000435   0.000160
     4  C    0.446058  -0.038614   0.021367   5.304974  -0.027987  -0.043833
     5  H    0.381892  -0.033786   0.000435  -0.027987   0.541653  -0.031837
     6  H    0.382235  -0.013611   0.000160  -0.043833  -0.031837   0.515812
     7  H   -0.041872  -0.000281   0.000300   0.371346  -0.003428   0.003798
     8  C   -0.018263   0.544472  -0.033052  -0.023893  -0.009999   0.001405
     9  C   -0.008783  -0.081687   0.592496  -0.004416  -0.000026   0.000154
    10  H   -0.007605   0.371823   0.000350   0.001493  -0.002519  -0.001111
    11  H    0.000157   0.000151   0.378998  -0.000187  -0.000003  -0.000002
    12  H   -0.000035   0.006712  -0.046491  -0.000093  -0.000005   0.000002
    13  H   -0.013432   0.372725   0.001932  -0.006279   0.001689  -0.002921
    14  H   -0.001351   0.006584   0.375943  -0.002126  -0.000000   0.000087
    15  O   -0.000410  -0.084367   0.002780   0.000099   0.003291   0.000022
    16  C   -0.001562  -0.020982  -0.000126   0.000107  -0.000353   0.000035
    17  H    0.000124   0.002262   0.000008  -0.000009   0.000203  -0.000127
    18  H    0.000004   0.001327   0.000002   0.000001   0.000004  -0.000000
    19  H    0.000405  -0.002050  -0.000005   0.000023   0.000384   0.000022
    20  C   -0.012314  -0.001107   0.001507   0.381294   0.002428  -0.005288
    21  O    0.004759   0.000047  -0.001411  -0.078232  -0.000085   0.000086
    22  H    0.013751  -0.000402  -0.000037  -0.134429  -0.000116   0.008583
               7          8          9         10         11         12
     1  C   -0.041872  -0.018263  -0.008783  -0.007605   0.000157  -0.000035
     2  C   -0.000281   0.544472  -0.081687   0.371823   0.000151   0.006712
     3  C    0.000300  -0.033052   0.592496   0.000350   0.378998  -0.046491
     4  C    0.371346  -0.023893  -0.004416   0.001493  -0.000187  -0.000093
     5  H   -0.003428  -0.009999  -0.000026  -0.002519  -0.000003  -0.000005
     6  H    0.003798   0.001405   0.000154  -0.001111  -0.000002   0.000002
     7  H    0.515890   0.000271   0.001292  -0.000015  -0.000032   0.000169
     8  C    0.000271   4.453910   0.503487  -0.033707   0.003505  -0.035009
     9  C    0.001292   0.503487   4.882097   0.004479  -0.026280   0.364836
    10  H   -0.000015  -0.033707   0.004479   0.526455  -0.000004  -0.000121
    11  H   -0.000032   0.003505  -0.026280  -0.000004   0.484273  -0.005769
    12  H    0.000169  -0.035009   0.364836  -0.000121  -0.005769   0.530281
    13  H   -0.000004  -0.019769  -0.005924  -0.029578   0.000048  -0.000059
    14  H    0.000145  -0.014079  -0.034046   0.000012  -0.030795   0.004394
    15  O   -0.000002   0.291256  -0.044322  -0.012887  -0.000036  -0.000541
    16  C   -0.000002  -0.044914   0.003633   0.003823   0.000002  -0.000147
    17  H    0.000001  -0.004312  -0.000200  -0.002552   0.000000   0.000014
    18  H   -0.000000   0.002858  -0.000047   0.000381  -0.000000  -0.000016
    19  H   -0.000000  -0.000213   0.000007   0.001945   0.000000   0.000025
    20  C   -0.023615  -0.000359   0.000615  -0.000013  -0.000120   0.000004
    21  O   -0.000345   0.000022   0.000141   0.000000   0.000184  -0.000000
    22  H    0.004366  -0.000003   0.000040   0.000001   0.000013   0.000000
              13         14         15         16         17         18
     1  C   -0.013432  -0.001351  -0.000410  -0.001562   0.000124   0.000004
     2  C    0.372725   0.006584  -0.084367  -0.020982   0.002262   0.001327
     3  C    0.001932   0.375943   0.002780  -0.000126   0.000008   0.000002
     4  C   -0.006279  -0.002126   0.000099   0.000107  -0.000009   0.000001
     5  H    0.001689  -0.000000   0.003291  -0.000353   0.000203   0.000004
     6  H   -0.002921   0.000087   0.000022   0.000035  -0.000127  -0.000000
     7  H   -0.000004   0.000145  -0.000002  -0.000002   0.000001  -0.000000
     8  C   -0.019769  -0.014079   0.291256  -0.044914  -0.004312   0.002858
     9  C   -0.005924  -0.034046  -0.044322   0.003633  -0.000200  -0.000047
    10  H   -0.029578   0.000012  -0.012887   0.003823  -0.002552   0.000381
    11  H    0.000048  -0.030795  -0.000036   0.000002   0.000000  -0.000000
    12  H   -0.000059   0.004394  -0.000541  -0.000147   0.000014  -0.000016
    13  H    0.503392   0.002835   0.003514   0.000202  -0.000036  -0.000010
    14  H    0.002835   0.513378  -0.000005  -0.000006  -0.000001   0.000000
    15  O    0.003514  -0.000005   8.223801   0.233117  -0.036392  -0.032396
    16  C    0.000202  -0.000006   0.233117   4.945717   0.377694   0.389276
    17  H   -0.000036  -0.000001  -0.036392   0.377694   0.564791  -0.030909
    18  H   -0.000010   0.000000  -0.032396   0.389276  -0.030909   0.494554
    19  H    0.000052  -0.000001  -0.037576   0.367325  -0.044018  -0.024110
    20  C    0.000570   0.000795   0.000002  -0.000001   0.000000  -0.000000
    21  O    0.000002  -0.000323  -0.000000   0.000000  -0.000000  -0.000000
    22  H    0.000429   0.000430  -0.000000  -0.000000  -0.000000  -0.000000
              19         20         21         22
     1  C    0.000405  -0.012314   0.004759   0.013751
     2  C   -0.002050  -0.001107   0.000047  -0.000402
     3  C   -0.000005   0.001507  -0.001411  -0.000037
     4  C    0.000023   0.381294  -0.078232  -0.134429
     5  H    0.000384   0.002428  -0.000085  -0.000116
     6  H    0.000022  -0.005288   0.000086   0.008583
     7  H   -0.000000  -0.023615  -0.000345   0.004366
     8  C   -0.000213  -0.000359   0.000022  -0.000003
     9  C    0.000007   0.000615   0.000141   0.000040
    10  H    0.001945  -0.000013   0.000000   0.000001
    11  H    0.000000  -0.000120   0.000184   0.000013
    12  H    0.000025   0.000004  -0.000000   0.000000
    13  H    0.000052   0.000570   0.000002   0.000429
    14  H   -0.000001   0.000795  -0.000323   0.000430
    15  O   -0.037576   0.000002  -0.000000  -0.000000
    16  C    0.367325  -0.000001   0.000000  -0.000000
    17  H   -0.044018   0.000000  -0.000000  -0.000000
    18  H   -0.024110  -0.000000  -0.000000  -0.000000
    19  H    0.561763   0.000000  -0.000000   0.000000
    20  C    0.000000   4.552201   0.521411   0.367841
    21  O   -0.000000   0.521411   8.087025  -0.053690
    22  H    0.000000   0.367841  -0.053690   0.692932
 Mulliken charges:
               1
     1  C   -0.373977
     2  C   -0.492331
     3  C   -0.339858
     4  C   -0.166662
     5  H    0.178166
     6  H    0.186331
     7  H    0.172020
     8  C    0.436386
     9  C   -0.147547
    10  H    0.179349
    11  H    0.195897
    12  H    0.181850
    13  H    0.190620
    14  H    0.178129
    15  O   -0.508947
    16  C   -0.252838
    17  H    0.173459
    18  H    0.199082
    19  H    0.176023
    20  C    0.214149
    21  O   -0.479591
    22  H    0.100291
 Sum of Mulliken charges =  -0.00000
 Mulliken charges with hydrogens summed into heavy atoms:
               1
     1  C   -0.009480
     2  C   -0.122362
     3  C    0.034168
     4  C    0.005358
     8  C    0.436386
     9  C    0.034304
    15  O   -0.508947
    16  C    0.295726
    20  C    0.314439
    21  O   -0.479591
 APT charges:
               1
     1  C   -0.944071
     2  C   -0.843792
     3  C   -0.794006
     4  C   -0.383664
     5  H    0.381182
     6  H    0.497554
     7  H    0.332859
     8  C    0.033987
     9  C   -0.551517
    10  H    0.518709
    11  H    0.661848
    12  H    0.556574
    13  H    0.391306
    14  H    0.278694
    15  O   -0.224561
    16  C   -1.267758
    17  H    0.269596
    18  H    0.807391
    19  H    0.386702
    20  C   -0.686526
    21  O    0.207392
    22  H    0.372100
 Sum of APT charges =  -0.00000
 APT charges with hydrogens summed into heavy atoms:
               1
     1  C   -0.065334
     2  C    0.066223
     3  C    0.146536
     4  C   -0.050805
     8  C    0.033987
     9  C    0.005057
    15  O   -0.224561
    16  C    0.195931
    20  C   -0.314426
    21  O    0.207392
 Electronic spatial extent (au):  <R**2>=           1821.6534
 Charge=             -0.0000 electrons
 Dipole moment (field-independent basis, Debye):
    X=              5.5690    Y=             -1.2963    Z=              1.4487  Tot=              5.8985
 Quadrupole moment (field-independent basis, Debye-Ang):
   XX=            -73.9136   YY=            -55.9441   ZZ=            -59.7127
   XY=             -4.4114   XZ=             -3.2761   YZ=             -2.0015
 Traceless Quadrupole moment (field-independent basis, Debye-Ang):
   XX=            -10.7235   YY=              7.2461   ZZ=              3.4774
   XY=             -4.4114   XZ=             -3.2761   YZ=             -2.0015
 Octapole moment (field-independent basis, Debye-Ang**2):
  XXX=            108.7288  YYY=              6.7702  ZZZ=             -2.4143  XYY=             -1.6179
  XXY=            -17.5744  XXZ=              9.8175  XZZ=             -1.4555  YZZ=             -1.0555
  YYZ=             -3.0999  XYZ=              1.4250
 Hexadecapole moment (field-independent basis, Debye-Ang**3):
 XXXX=          -1853.8526 YYYY=           -497.3957 ZZZZ=           -176.6243 XXXY=            -29.9115
 XXXZ=            -42.5923 YYYX=            -17.2709 YYYZ=            -19.6114 ZZZX=             -5.2398
 ZZZY=             -5.3522 XXYY=           -342.6121 XXZZ=           -302.0975 YYZZ=           -116.6026
 XXYZ=              0.6674 YYXZ=             -8.4286 ZZXY=             -3.5212
 N-N= 5.196092530064D+02 E-N=-2.115016770505D+03  KE= 4.583519758441D+02
  Exact polarizability:       0.000       0.000       0.000       0.000       0.000       0.000
 Approx polarizability:     189.219      -2.091     123.828       3.034     -12.195      90.490
 Calling FoFJK, ICntrl=    100127 FMM=F ISym2X=0 I1Cent= 0 IOpClX= 0 NMat=1 NMatS=1 NMatT=0.
 ***** Axes restored to original set *****
 -------------------------------------------------------------------
 Center     Atomic                   Forces (Hartrees/Bohr)
 Number     Number              X              Y              Z
 -------------------------------------------------------------------
      1        6          -0.004752032    0.025217940    0.002112766
      2        6           0.004414020   -0.007331236    0.012959579
      3        6           0.003565668   -0.000988318   -0.001351034
      4        6           0.004649187   -0.018444764   -0.013982890
      5        1          -0.000138045   -0.003685314   -0.002853347
      6        1          -0.000614752   -0.000272124    0.000056932
      7        1          -0.003920587    0.000098981   -0.001767302
      8        6          -0.010972533   -0.036209623   -0.022442562
      9        6           0.005090509    0.008595849   -0.003010860
     10        1          -0.010551587   -0.004137698    0.005344927
     11        1          -0.000653250    0.000399898   -0.001061652
     12        1           0.003293334    0.000714128   -0.001305698
     13        1          -0.002681132    0.001110624   -0.001651819
     14        1           0.000029527    0.000233510    0.000558671
     15        8           0.012906751    0.022142131    0.010881662
     16        6           0.005070230    0.007327449    0.007070764
     17        1           0.000133724   -0.002687479    0.000177743
     18        1           0.000069028   -0.000045857    0.000622325
     19        1           0.003668786    0.000801800   -0.003122414
     20        6          -0.012324854    0.020508089    0.028163960
     21        8           0.002951516   -0.011337768   -0.012105463
     22        1           0.000766493   -0.002010217   -0.003294289
 -------------------------------------------------------------------
 Cartesian Forces:  Max     0.036209623 RMS     0.009805900
 FormGI is forming the generalized inverse of G from B-inverse, IUseBI=4.

 GradGradGradGradGradGradGradGradGradGradGradGradGradGradGradGradGradGrad
 Berny optimization.
 Internal  Forces:  Max     0.063513731 RMS     0.010501872
 Search for a saddle point.
 Step number   1 out of a maximum of  103
 All quantities printed in internal units (Hartrees-Bohrs-Radians)
 Swapping is turned off.
 Second derivative matrix not updated -- analytic derivatives used.
 ITU=  0
     Eigenvalues ---   -0.02054  -0.00106   0.00151   0.00936   0.00965
     Eigenvalues ---    0.01389   0.01958   0.02069   0.02437   0.02638
     Eigenvalues ---    0.03137   0.03665   0.03703   0.04063   0.04147
     Eigenvalues ---    0.05166   0.05484   0.06432   0.07353   0.07697
     Eigenvalues ---    0.08233   0.09016   0.09345   0.10001   0.10474
     Eigenvalues ---    0.10983   0.11347   0.12668   0.13238   0.13825
     Eigenvalues ---    0.14234   0.17187   0.18094   0.19058   0.19251
     Eigenvalues ---    0.22326   0.23401   0.27144   0.30843   0.31842
     Eigenvalues ---    0.34218   0.34724   0.35741   0.35880   0.36379
     Eigenvalues ---    0.36632   0.37187   0.37303   0.37417   0.37519
     Eigenvalues ---    0.37846   0.38702   0.39975   0.40851   0.44253
     Eigenvalues ---    0.51270   0.54033   0.61740   0.81502   1.04544
 Eigenvectors required to have negative eigenvalues:
                          R1        D13       D20       D24       D14
   1                    0.71371   0.24851   0.24441  -0.21471  -0.18800
                          D21       D31       A2        D12       D16
   1                    0.16814  -0.15806  -0.15630   0.13654   0.11670
 RFO step:  Lambda0=7.831288880D-03 Lambda=-2.33517367D-02.
 Linear search not attempted -- option 19 set.
 Maximum step size (   0.300) exceeded in Quadratic search.
    -- Step size scaled by   0.728
 Iteration  1 RMS(Cart)=  0.11035897 RMS(Int)=  0.00989045
 Iteration  2 RMS(Cart)=  0.02113311 RMS(Int)=  0.00115549
 Iteration  3 RMS(Cart)=  0.00058948 RMS(Int)=  0.00110331
 Iteration  4 RMS(Cart)=  0.00000038 RMS(Int)=  0.00110331
 Variable       Old X    -DE/DX   Delta X   Delta X   Delta X     New X
                                 (Linear)    (Quad)   (Total)
    R1        3.89645   0.01701   0.00000  -0.18019  -0.18019   3.71626
    R2        2.62210  -0.00429   0.00000   0.02435   0.02435   2.64645
    R3        2.05319  -0.00030   0.00000  -0.00094  -0.00094   2.05225
    R4        2.05364   0.00047   0.00000   0.00382   0.00382   2.05746
    R5        2.61765   0.00614   0.00000   0.01913   0.01913   2.63679
    R6        2.05083  -0.00711   0.00000   0.00181   0.00181   2.05264
    R7        2.04491  -0.00008   0.00000   0.00035   0.00035   2.04527
    R8        2.55210  -0.00326   0.00000   0.01135   0.01135   2.56345
    R9        2.05051  -0.00059   0.00000  -0.00021  -0.00021   2.05030
   R10        2.04510  -0.00038   0.00000  -0.00211  -0.00211   2.04300
   R11        2.05015  -0.00193   0.00000  -0.00233  -0.00233   2.04783
   R12        2.71845   0.00933   0.00000   0.01038   0.01038   2.72883
   R13        2.71404  -0.00564   0.00000  -0.03402  -0.03402   2.68002
   R14        2.53929   0.01962   0.00000   0.00353   0.00353   2.54282
   R15        2.04940   0.00180   0.00000   0.00251   0.00251   2.05191
   R16        2.68483  -0.00432   0.00000  -0.01181  -0.01181   2.67302
   R17        2.07084  -0.00098   0.00000  -0.00197  -0.00197   2.06887
   R18        2.05939  -0.00011   0.00000  -0.00144  -0.00144   2.05795
   R19        2.06697  -0.00065   0.00000   0.00305   0.00305   2.07003
   R20        2.32559  -0.01535   0.00000  -0.01675  -0.01675   2.30883
   R21        2.09413   0.00274   0.00000   0.01242   0.01242   2.10654
    A1        1.97972   0.00736   0.00000   0.02114   0.02086   2.00058
    A2        1.59435  -0.00240   0.00000   0.09102   0.08982   1.68418
    A3        1.63250  -0.00353   0.00000   0.02230   0.02298   1.65547
    A4        2.03181   0.00362   0.00000   0.00539   0.00121   2.03302
    A5        2.08414  -0.00364   0.00000  -0.04397  -0.04538   2.03876
    A6        2.02285  -0.00100   0.00000  -0.03676  -0.04048   1.98237
    A7        1.79775   0.00497   0.00000   0.05390   0.05265   1.85040
    A8        1.72818  -0.00359   0.00000   0.08778   0.08635   1.81453
    A9        1.68824  -0.00449   0.00000  -0.02952  -0.02828   1.65996
   A10        2.04055   0.00532   0.00000   0.00286  -0.00294   2.03760
   A11        2.07440  -0.00110   0.00000  -0.03150  -0.03194   2.04245
   A12        2.02537  -0.00274   0.00000  -0.03422  -0.03486   1.99052
   A13        2.10104   0.00019   0.00000   0.00821   0.00776   2.10880
   A14        2.14659   0.00039   0.00000  -0.00153  -0.00198   2.14461
   A15        2.03168  -0.00051   0.00000  -0.01133  -0.01178   2.01990
   A16        2.13905  -0.00308   0.00000  -0.00765  -0.00889   2.13016
   A17        2.05200   0.01013   0.00000   0.03157   0.03035   2.08234
   A18        2.09186  -0.00702   0.00000  -0.02191  -0.02312   2.06874
   A19        2.12425  -0.01075   0.00000   0.00035   0.00019   2.12444
   A20        2.02061   0.06351   0.00000   0.09119   0.09084   2.11145
   A21        2.13306  -0.05305   0.00000  -0.09501  -0.09501   2.03805
   A22        2.13798   0.00049   0.00000  -0.01186  -0.01228   2.12570
   A23        2.07101   0.00296   0.00000   0.02218   0.02169   2.09270
   A24        2.06357  -0.00343   0.00000  -0.01752  -0.01787   2.04570
   A25        2.07814   0.03366   0.00000  -0.00948  -0.00948   2.06865
   A26        1.93685   0.00173   0.00000   0.00355   0.00353   1.94038
   A27        1.84099  -0.00242   0.00000   0.00290   0.00288   1.84387
   A28        1.92125   0.00536   0.00000   0.01642   0.01640   1.93766
   A29        1.90164   0.00039   0.00000   0.01067   0.01064   1.91227
   A30        1.93454  -0.00198   0.00000  -0.01653  -0.01655   1.91799
   A31        1.92641  -0.00318   0.00000  -0.01622  -0.01624   1.91017
   A32        2.15024   0.01240   0.00000   0.03867   0.03866   2.18889
   A33        2.03981  -0.00896   0.00000  -0.03803  -0.03805   2.00176
   A34        2.09299  -0.00341   0.00000  -0.00047  -0.00049   2.09250
    D1       -0.93449  -0.00104   0.00000  -0.00392  -0.00307  -0.93756
    D2       -3.03703  -0.00706   0.00000  -0.05596  -0.05835  -3.09538
    D3        1.19016  -0.00236   0.00000  -0.03244  -0.03300   1.15715
    D4        1.15434   0.00382   0.00000   0.05456   0.05638   1.21072
    D5       -0.94820  -0.00220   0.00000   0.00252   0.00110  -0.94710
    D6       -3.00420   0.00250   0.00000   0.02603   0.02644  -2.97775
    D7       -3.10331   0.00242   0.00000   0.02624   0.02821  -3.07510
    D8        1.07733  -0.00360   0.00000  -0.02580  -0.02706   1.05027
    D9       -0.97866   0.00110   0.00000  -0.00229  -0.00172  -0.98039
   D10        1.42150   0.00336   0.00000   0.10131   0.10166   1.52315
   D11       -1.69490   0.00198   0.00000   0.00853   0.00864  -1.68627
   D12       -0.39570  -0.00027   0.00000  -0.02909  -0.02817  -0.42387
   D13        2.77109  -0.00166   0.00000  -0.12187  -0.12119   2.64990
   D14       -2.96364   0.00181   0.00000   0.11788   0.11696  -2.84667
   D15        0.20315   0.00042   0.00000   0.02509   0.02394   0.22709
   D16        1.34109  -0.00428   0.00000  -0.13827  -0.13911   1.20198
   D17       -1.69261   0.00175   0.00000  -0.09715  -0.09655  -1.78916
   D18       -3.06909  -0.00343   0.00000  -0.00006  -0.00141  -3.07050
   D19        0.18040   0.00260   0.00000   0.04107   0.04115   0.22155
   D20       -0.49744  -0.00159   0.00000  -0.12456  -0.12452  -0.62195
   D21        2.75205   0.00444   0.00000  -0.08344  -0.08196   2.67009
   D22       -3.04264   0.00107   0.00000   0.08214   0.08244  -2.96020
   D23       -0.06000   0.00094   0.00000   0.02718   0.02693  -0.03307
   D24        0.19684   0.00019   0.00000   0.14139   0.14164   0.33848
   D25       -3.10371   0.00006   0.00000   0.08643   0.08613  -3.01758
   D26        3.14159   0.00201   0.00000   0.06484   0.06462  -3.07698
   D27        0.01827  -0.00023   0.00000   0.05369   0.05347   0.07174
   D28        0.02448   0.00062   0.00000  -0.02552  -0.02530  -0.00082
   D29       -3.09884  -0.00163   0.00000  -0.03666  -0.03644  -3.13528
   D30       -0.08080  -0.00013   0.00000   0.08697   0.08616   0.00537
   D31       -3.06408  -0.00055   0.00000   0.13827   0.13682  -2.92726
   D32        2.94593   0.00084   0.00000   0.05515   0.05660   3.00253
   D33       -0.03736   0.00042   0.00000   0.10645   0.10726   0.06990
   D34       -0.10849  -0.00749   0.00000   0.22489   0.22490   0.11640
   D35       -3.14159  -0.00434   0.00000   0.25970   0.25969  -2.88190
   D36        1.24589  -0.00231   0.00000  -0.21560  -0.21562   1.03027
   D37       -2.98043  -0.00236   0.00000  -0.19941  -0.19939   3.10337
   D38       -0.90225  -0.00471   0.00000  -0.20843  -0.20843  -1.11068
         Item               Value     Threshold  Converged?
 Maximum Force            0.063514     0.000450     NO 
 RMS     Force            0.010502     0.000300     NO 
 Maximum Displacement     0.351070     0.001800     NO 
 RMS     Displacement     0.120829     0.001200     NO 
 Predicted change in Energy=-7.900969D-03
 GradGradGradGradGradGradGradGradGradGradGradGradGradGradGradGradGradGrad

                          Input orientation:                          
 ---------------------------------------------------------------------
 Center     Atomic      Atomic             Coordinates (Angstroms)
 Number     Number       Type             X           Y           Z
 ---------------------------------------------------------------------
      1          6           0       -1.445540   -0.610944   -1.286944
      2          6           0        0.025163   -1.763598   -0.673930
      3          6           0       -0.697870   -0.639181    1.862064
      4          6           0       -2.082256    0.112577   -0.270900
      5          1           0       -0.861671   -0.034908   -1.998763
      6          1           0       -2.013037   -1.420479   -1.743016
      7          1           0       -1.725118    1.082453    0.054857
      8          6           0        0.885523   -0.937653    0.050316
      9          6           0        0.511751   -0.386553    1.302472
     10          1           0        0.418298   -2.196126   -1.589471
     11          1           0       -1.035456   -0.083755    2.730800
     12          1           0        1.141100    0.400847    1.706126
     13          1           0       -0.607567   -2.433287   -0.105983
     14          1           0       -1.313830   -1.479600    1.573823
     15          8           0        2.035492   -0.492943   -0.488625
     16          6           0        2.289524   -0.760774   -1.854111
     17          1           0        1.507438   -0.337056   -2.492385
     18          1           0        3.241255   -0.280021   -2.075593
     19          1           0        2.374515   -1.837960   -2.034028
     20          6           0       -3.299456   -0.404583    0.308927
     21          8           0       -3.978586    0.161988    1.151856
     22          1           0       -3.604401   -1.408708   -0.067072
 ---------------------------------------------------------------------
                    Distance matrix (angstroms):
                    1          2          3          4          5
     1  C    0.000000
     2  C    1.966562   0.000000
     3  C    3.236674   2.866768   0.000000
     4  C    1.400441   2.850207   2.651641   0.000000
     5  H    1.086004   2.351601   3.911260   2.120634   0.000000
     6  H    1.088762   2.327001   3.916209   2.126541   1.819576
     7  H    2.178574   3.419740   2.699122   1.083662   2.492266
     8  C    2.707186   1.395327   2.424593   3.164471   2.840134
     9  C    3.253676   2.457475   1.356520   3.074654   3.592783
    10  H    2.465404   1.086210   3.947531   3.649865   2.544937
    11  H    4.072881   3.941950   1.084972   3.185049   4.733007
    12  H    4.083245   3.405115   2.118440   3.792329   4.234050
    13  H    2.327617   1.082310   2.664616   2.946749   3.065845
    14  H    2.992640   2.631721   1.081107   2.555094   3.880071
    15  O    3.573348   2.385440   3.608101   4.167721   3.299070
    16  C    3.780850   2.743322   4.769619   4.730936   3.236948
    17  H    3.201278   2.745713   4.890388   4.245358   2.438777
    18  H    4.764191   3.809056   5.581294   5.634786   4.110959
    19  H    4.081241   2.715668   5.104523   5.174556   3.704746
    20  C    2.454871   3.723711   3.039000   1.444032   3.377112
    21  O    3.600207   4.803268   3.450994   2.371233   4.436251
    22  H    2.604841   3.697020   3.572346   2.161662   3.625096
                    6          7          8          9         10
     6  H    0.000000
     7  H    3.095144   0.000000
     8  C    3.442501   3.300954   0.000000
     9  C    4.088832   2.952644   1.418206   0.000000
    10  H    2.556677   4.248192   2.119188   3.412715   0.000000
    11  H    4.770485   2.999391   3.406508   2.127359   5.023968
    12  H    5.016213   3.377349   2.144436   1.085825   4.257661
    13  H    2.383485   3.692589   2.119120   2.725020   1.819171
    14  H    3.390251   3.006747   2.729824   2.145024   3.676970
    15  O    4.338710   4.113324   1.345604   2.353961   2.593841
    16  C    4.354260   4.812379   2.372625   3.642051   2.373132
    17  H    3.758870   4.353489   2.685671   3.923619   2.336156
    18  H    5.386913   5.573151   3.240593   4.344291   3.446282
    19  H    4.416967   5.449702   2.715169   4.087629   2.037817
    20  C    2.626288   2.180451   4.226712   3.938623   4.542602
    21  O    3.840295   2.669978   5.107069   4.526224   5.692817
    22  H    2.311140   3.122892   4.516093   4.456810   4.372624
                   11         12         13         14         15
    11  H    0.000000
    12  H    2.454016   0.000000
    13  H    3.708197   3.791291   0.000000
    14  H    1.834249   3.095201   2.056714   0.000000
    15  O    4.467981   2.532929   3.301077   4.055261   0.000000
    16  C    5.703968   3.917082   3.774439   5.025097   1.414503
    17  H    5.814821   4.278575   3.816065   5.079273   2.078027
    18  H    6.436629   4.378999   4.830047   5.958694   2.004412
    19  H    6.116268   4.530157   3.600638   5.171935   2.076603
    20  C    3.330780   4.724343   3.396182   2.588113   5.394957
    21  O    3.348950   5.155138   4.436370   3.158130   6.268113
    22  H    4.022818   5.379451   3.167379   2.818559   5.729286
                   16         17         18         19         20
    16  C    0.000000
    17  H    1.094801   0.000000
    18  H    1.089022   1.784122   0.000000
    19  H    1.095411   1.792939   1.783295   0.000000
    20  C    6.003523   5.564003   6.962926   6.303805   0.000000
    21  O    7.012598   6.604998   7.920726   7.383194   1.221782
    22  H    6.192873   5.758601   7.222956   6.308773   1.114735
                   21         22
    21  O    0.000000
    22  H    2.023088   0.000000
 Stoichiometry    C8H12O2
 Framework group  C1[X(C8H12O2)]
 Deg. of freedom    60
 Full point group                 C1      NOp   1
 Largest Abelian subgroup         C1      NOp   1
 Largest concise Abelian subgroup C1      NOp   1
                         Standard orientation:                         
 ---------------------------------------------------------------------
 Center     Atomic      Atomic             Coordinates (Angstroms)
 Number     Number       Type             X           Y           Z
 ---------------------------------------------------------------------
      1          6           0       -0.453010   -1.459762   -0.086876
      2          6           0        0.872971   -0.519912    1.020293
      3          6           0       -0.760337    1.734444    0.335793
      4          6           0       -1.466924   -0.642852   -0.602501
      5          1           0        0.252835   -1.867033   -0.804734
      6          1           0       -0.739035   -2.165542    0.691242
      7          1           0       -1.356287   -0.111896   -1.540675
      8          6           0        1.345657    0.536741    0.241197
      9          6           0        0.523965    1.643769   -0.091400
     10          1           0        1.589930   -1.292437    1.283021
     11          1           0       -1.425285    2.495271   -0.059367
     12          1           0        0.887649    2.318789   -0.860230
     13          1           0        0.179100   -0.273926    1.813658
     14          1           0       -1.142015    1.166094    1.172508
     15          8           0        2.543576    0.466491   -0.367659
     16          6           0        3.254294   -0.755613   -0.321183
     17          1           0        2.672988   -1.568413   -0.768429
     18          1           0        4.159564   -0.591246   -0.903797
     19          1           0        3.525079   -1.013748    0.708364
     20          6           0       -2.732153   -0.564819    0.089117
     21          8           0       -3.710813    0.058655   -0.293317
     22          1           0       -2.773402   -1.129064    1.049616
 ---------------------------------------------------------------------
 Rotational constants (GHZ):           2.7254001           0.7204980           0.6224985
 Standard basis: 6-31G(d) (6D, 7F)
 There are   174 symmetry adapted cartesian basis functions of A   symmetry.
 There are   174 symmetry adapted basis functions of A   symmetry.
   174 basis functions,   328 primitive gaussians,   174 cartesian basis functions
    38 alpha electrons       38 beta electrons
       nuclear repulsion energy       520.9976172110 Hartrees.
 NAtoms=   22 NActive=   22 NUniq=   22 SFac= 1.00D+00 NAtFMM=   60 NAOKFM=F Big=F
 Integral buffers will be    131072 words long.
 Raffenetti 2 integral format.
 Two-electron integral symmetry is turned on.
 One-electron integrals computed using PRISM.
 NBasis=   174 RedAO= T EigKep=  1.93D-03  NBF=   174
 NBsUse=   174 1.00D-06 EigRej= -1.00D+00 NBFU=   174
 Initial guess from the checkpoint file:  "DATS_14_exo_iv.chk"
 B after Tr=    -0.000000   -0.000000    0.000000
         Rot=    0.999788   -0.020223    0.001613    0.003445 Ang=  -2.36 deg.
 ExpMin= 1.61D-01 ExpMax= 5.48D+03 ExpMxC= 8.25D+02 IAcc=3 IRadAn=         5 AccDes= 0.00D+00
 Harris functional with IExCor= 1009 and IRadAn=       5 diagonalized for initial guess.
 HarFok:  IExCor= 1009 AccDes= 0.00D+00 IRadAn=         5 IDoV= 1 UseB2=F ITyADJ=14
 ICtDFT=  3500011 ScaDFX=  1.000000  1.000000  1.000000  1.000000
 FoFCou: FMM=F IPFlag=           0 FMFlag=      100000 FMFlg1=           0
         NFxFlg=           0 DoJE=T BraDBF=F KetDBF=T FulRan=T
         wScrn=  0.000000 ICntrl=       500 IOpCl=  0 I1Cent=   200000004 NGrid=           0
         NMat0=    1 NMatS0=      1 NMatT0=    0 NMatD0=    1 NMtDS0=    0 NMtDT0=    0
 Petite list used in FoFCou.
 Requested convergence on RMS density matrix=1.00D-08 within 128 cycles.
 Requested convergence on MAX density matrix=1.00D-06.
 Requested convergence on             energy=1.00D-06.
 No special actions if energy rises.
 Integral accuracy reduced to 1.0D-05 until final iterations.
 Initial convergence to 1.0D-05 achieved.  Increase integral accuracy.
 SCF Done:  E(RM062X) =  -462.173795148     A.U. after   16 cycles
            NFock= 16  Conv=0.58D-08     -V/T= 2.0083
 Calling FoFJK, ICntrl=      2127 FMM=F ISym2X=0 I1Cent= 0 IOpClX= 0 NMat=1 NMatS=1 NMatT=0.
 ***** Axes restored to original set *****
 -------------------------------------------------------------------
 Center     Atomic                   Forces (Hartrees/Bohr)
 Number     Number              X              Y              Z
 -------------------------------------------------------------------
      1        6          -0.000950565    0.010040625   -0.001274364
      2        6           0.000213137   -0.001029899    0.002055231
      3        6          -0.003013898    0.000385508   -0.001180055
      4        6           0.004376377   -0.008228357    0.000879387
      5        1           0.000566112   -0.001769703   -0.001380589
      6        1          -0.000460701   -0.000005294   -0.000420963
      7        1          -0.002820336    0.001330919   -0.002202300
      8        6          -0.001884398   -0.015026417   -0.002687974
      9        6           0.003100395    0.003202991   -0.002698525
     10        1          -0.005026004   -0.001220970    0.001033416
     11        1          -0.000443275    0.000070722   -0.000413619
     12        1           0.001402557   -0.000149314   -0.000602052
     13        1          -0.000657325   -0.000110518    0.000158631
     14        1           0.000581924   -0.001247779    0.000894852
     15        8           0.004314701    0.011919236    0.002179894
     16        6           0.003394432   -0.000351244    0.002985079
     17        1          -0.000099393   -0.000895565   -0.000318926
     18        1           0.000128496    0.000130050   -0.000306565
     19        1           0.001032291    0.000324288   -0.001175843
     20        6          -0.005339512    0.007137722    0.009203505
     21        8           0.001151302   -0.003656561   -0.003617307
     22        1           0.000433683   -0.000850441   -0.001110913
 -------------------------------------------------------------------
 Cartesian Forces:  Max     0.015026417 RMS     0.003709857

 GradGradGradGradGradGradGradGradGradGradGradGradGradGradGradGradGradGrad
 Berny optimization.
 FormGI is forming the generalized inverse of G from B-inverse, IUseBI=4.
 Internal  Forces:  Max     0.023172652 RMS     0.003825492
 Search for a saddle point.
 Step number   2 out of a maximum of  103
 All quantities printed in internal units (Hartrees-Bohrs-Radians)
 Swapping is turned off.
 Update second derivatives using D2CorX and points    1    2
 ITU=  0  0
     Eigenvalues ---   -0.02884   0.00129   0.00416   0.00933   0.00944
     Eigenvalues ---    0.01389   0.01955   0.02067   0.02446   0.02661
     Eigenvalues ---    0.03129   0.03679   0.03695   0.04056   0.04124
     Eigenvalues ---    0.05178   0.05476   0.06403   0.07330   0.07703
     Eigenvalues ---    0.08223   0.09016   0.09344   0.09974   0.10476
     Eigenvalues ---    0.10983   0.11339   0.12649   0.13232   0.13824
     Eigenvalues ---    0.14231   0.17182   0.18102   0.19057   0.19259
     Eigenvalues ---    0.22515   0.23461   0.27122   0.30874   0.31842
     Eigenvalues ---    0.34218   0.34711   0.35736   0.35878   0.36379
     Eigenvalues ---    0.36629   0.37184   0.37303   0.37417   0.37518
     Eigenvalues ---    0.37846   0.38720   0.39961   0.40845   0.44221
     Eigenvalues ---    0.51257   0.54028   0.61742   0.81501   1.04368
 Eigenvectors required to have negative eigenvalues:
                          R1        D20       D24       D13       D14
   1                   -0.68419  -0.24448   0.24411  -0.23851   0.19338
                          D31       D21       A2        D16       D25
   1                    0.16968  -0.16365   0.15148  -0.14059   0.13611
 RFO step:  Lambda0=4.997045848D-05 Lambda=-6.13482938D-03.
 Linear search not attempted -- option 19 set.
 Iteration  1 RMS(Cart)=  0.12167827 RMS(Int)=  0.00427683
 Iteration  2 RMS(Cart)=  0.00709274 RMS(Int)=  0.00062062
 Iteration  3 RMS(Cart)=  0.00003565 RMS(Int)=  0.00062003
 Iteration  4 RMS(Cart)=  0.00000000 RMS(Int)=  0.00062003
 Variable       Old X    -DE/DX   Delta X   Delta X   Delta X     New X
                                 (Linear)    (Quad)   (Total)
    R1        3.71626   0.00459   0.00000   0.10679   0.10679   3.82305
    R2        2.64645   0.00107   0.00000  -0.00702  -0.00702   2.63943
    R3        2.05225   0.00027   0.00000  -0.00016  -0.00016   2.05209
    R4        2.05746   0.00042   0.00000   0.00160   0.00160   2.05906
    R5        2.63679   0.00257   0.00000  -0.00425  -0.00425   2.63254
    R6        2.05264  -0.00220   0.00000   0.00080   0.00080   2.05344
    R7        2.04527   0.00054   0.00000   0.00103   0.00103   2.04630
    R8        2.56345   0.00243   0.00000   0.00973   0.00973   2.57318
    R9        2.05030  -0.00016   0.00000   0.00009   0.00009   2.05039
   R10        2.04300   0.00040   0.00000   0.00095   0.00095   2.04395
   R11        2.04783  -0.00040   0.00000  -0.00087  -0.00087   2.04696
   R12        2.72883   0.00402   0.00000   0.01819   0.01819   2.74702
   R13        2.68002  -0.00307   0.00000  -0.01317  -0.01317   2.66685
   R14        2.54282   0.00983   0.00000   0.01504   0.01504   2.55787
   R15        2.05191   0.00048   0.00000   0.00128   0.00128   2.05319
   R16        2.67302  -0.00020   0.00000  -0.00488  -0.00488   2.66815
   R17        2.06887  -0.00009   0.00000   0.00283   0.00283   2.07170
   R18        2.05795   0.00023   0.00000   0.00071   0.00071   2.05867
   R19        2.07003  -0.00005   0.00000   0.00248   0.00248   2.07251
   R20        2.30883  -0.00483   0.00000  -0.01290  -0.01290   2.29593
   R21        2.10654   0.00102   0.00000   0.00563   0.00563   2.11217
    A1        2.00058  -0.00144   0.00000  -0.00959  -0.00966   1.99092
    A2        1.68418   0.00041   0.00000  -0.00191  -0.00185   1.68233
    A3        1.65547  -0.00008   0.00000  -0.03422  -0.03442   1.62105
    A4        2.03302   0.00210   0.00000   0.03292   0.03279   2.06581
    A5        2.03876  -0.00063   0.00000  -0.00018  -0.00081   2.03795
    A6        1.98237  -0.00080   0.00000  -0.00324  -0.00361   1.97876
    A7        1.85040  -0.00356   0.00000  -0.02987  -0.02989   1.82051
    A8        1.81453   0.00055   0.00000   0.00987   0.01019   1.82473
    A9        1.65996  -0.00041   0.00000  -0.04022  -0.04055   1.61941
   A10        2.03760   0.00413   0.00000   0.04287   0.04268   2.08029
   A11        2.04245  -0.00056   0.00000   0.00125  -0.00023   2.04223
   A12        1.99052  -0.00149   0.00000  -0.00650  -0.00687   1.98365
   A13        2.10880   0.00054   0.00000   0.00849   0.00767   2.11647
   A14        2.14461  -0.00049   0.00000  -0.00906  -0.00988   2.13473
   A15        2.01990  -0.00016   0.00000  -0.00943  -0.01027   2.00963
   A16        2.13016  -0.00123   0.00000  -0.00458  -0.00720   2.12296
   A17        2.08234   0.00389   0.00000   0.01523   0.01270   2.09504
   A18        2.06874  -0.00274   0.00000  -0.01840  -0.02090   2.04785
   A19        2.12444  -0.00991   0.00000  -0.01130  -0.01215   2.11229
   A20        2.11145   0.02317   0.00000   0.03607   0.03489   2.14634
   A21        2.03805  -0.01360   0.00000  -0.03487  -0.03556   2.00249
   A22        2.12570  -0.00240   0.00000  -0.00681  -0.00711   2.11860
   A23        2.09270   0.00265   0.00000   0.01145   0.01110   2.10380
   A24        2.04570  -0.00037   0.00000  -0.01296  -0.01322   2.03248
   A25        2.06865   0.01101   0.00000  -0.02552  -0.02552   2.04314
   A26        1.94038   0.00050   0.00000   0.00075   0.00072   1.94110
   A27        1.84387  -0.00014   0.00000   0.01025   0.01022   1.85409
   A28        1.93766   0.00183   0.00000   0.00043   0.00040   1.93806
   A29        1.91227  -0.00019   0.00000  -0.00265  -0.00268   1.90960
   A30        1.91799  -0.00093   0.00000  -0.01395  -0.01397   1.90402
   A31        1.91017  -0.00109   0.00000   0.00625   0.00621   1.91638
   A32        2.18889   0.00391   0.00000   0.01314   0.01314   2.20204
   A33        2.00176  -0.00304   0.00000  -0.01853  -0.01853   1.98323
   A34        2.09250  -0.00087   0.00000   0.00539   0.00539   2.09790
    D1       -0.93756   0.00041   0.00000   0.00722   0.00700  -0.93056
    D2       -3.09538  -0.00288   0.00000  -0.03248  -0.03235  -3.12773
    D3        1.15715  -0.00131   0.00000  -0.01488  -0.01436   1.14279
    D4        1.21072   0.00253   0.00000   0.04080   0.04038   1.25110
    D5       -0.94710  -0.00076   0.00000   0.00110   0.00103  -0.94607
    D6       -2.97775   0.00081   0.00000   0.01870   0.01902  -2.95874
    D7       -3.07510   0.00176   0.00000   0.03164   0.03118  -3.04392
    D8        1.05027  -0.00153   0.00000  -0.00807  -0.00817   1.04210
    D9       -0.98039   0.00004   0.00000   0.00953   0.00982  -0.97057
   D10        1.52315   0.00255   0.00000   0.15193   0.15202   1.67517
   D11       -1.68627   0.00106   0.00000   0.01566   0.01556  -1.67070
   D12       -0.42387   0.00159   0.00000   0.13861   0.13879  -0.28508
   D13        2.64990   0.00011   0.00000   0.00234   0.00233   2.65223
   D14       -2.84667   0.00102   0.00000   0.10048   0.10049  -2.74618
   D15        0.22709  -0.00047   0.00000  -0.03579  -0.03597   0.19113
   D16        1.20198  -0.00428   0.00000  -0.12281  -0.12323   1.07875
   D17       -1.78916  -0.00040   0.00000  -0.03827  -0.03761  -1.82677
   D18       -3.07050  -0.00377   0.00000  -0.10738  -0.10815   3.10454
   D19        0.22155   0.00012   0.00000  -0.02284  -0.02253   0.19902
   D20       -0.62195  -0.00141   0.00000  -0.05705  -0.05749  -0.67944
   D21        2.67009   0.00247   0.00000   0.02748   0.02813   2.69822
   D22       -2.96020   0.00080   0.00000   0.05273   0.05295  -2.90725
   D23       -0.03307   0.00008   0.00000   0.00510   0.00504  -0.02803
   D24        0.33848   0.00171   0.00000   0.13243   0.13249   0.47096
   D25       -3.01758   0.00099   0.00000   0.08479   0.08458  -2.93300
   D26       -3.07698   0.00107   0.00000   0.07809   0.07772  -2.99925
   D27        0.07174   0.00049   0.00000   0.07740   0.07703   0.14877
   D28       -0.00082  -0.00031   0.00000  -0.05289  -0.05252  -0.05333
   D29       -3.13528  -0.00090   0.00000  -0.05358  -0.05321   3.09469
   D30        0.00537   0.00024   0.00000   0.07499   0.07412   0.07948
   D31       -2.92726   0.00058   0.00000   0.11856   0.11733  -2.80992
   D32        3.00253  -0.00047   0.00000  -0.00041   0.00081   3.00334
   D33        0.06990  -0.00013   0.00000   0.04316   0.04403   0.11393
   D34        0.11640  -0.00564   0.00000  -0.12598  -0.12612  -0.00972
   D35       -2.88190  -0.00205   0.00000  -0.04705  -0.04691  -2.92881
   D36        1.03027  -0.00096   0.00000   0.03256   0.03256   1.06284
   D37        3.10337  -0.00100   0.00000   0.03589   0.03588   3.13925
   D38       -1.11068  -0.00142   0.00000   0.04963   0.04965  -1.06103
         Item               Value     Threshold  Converged?
 Maximum Force            0.023173     0.000450     NO 
 RMS     Force            0.003825     0.000300     NO 
 Maximum Displacement     0.360740     0.001800     NO 
 RMS     Displacement     0.122543     0.001200     NO 
 Predicted change in Energy=-3.669488D-03
 GradGradGradGradGradGradGradGradGradGradGradGradGradGradGradGradGradGrad

                          Input orientation:                          
 ---------------------------------------------------------------------
 Center     Atomic      Atomic             Coordinates (Angstroms)
 Number     Number       Type             X           Y           Z
 ---------------------------------------------------------------------
      1          6           0       -1.491880   -0.533198   -1.254446
      2          6           0        0.034702   -1.759440   -0.745816
      3          6           0       -0.763617   -0.638200    1.738514
      4          6           0       -2.082968    0.120315   -0.170758
      5          1           0       -0.935609    0.060326   -1.973829
      6          1           0       -2.062242   -1.342015   -1.710244
      7          1           0       -1.794062    1.124884    0.113323
      8          6           0        0.889595   -0.952924    0.002085
      9          6           0        0.462403   -0.365981    1.212290
     10          1           0        0.383023   -2.168022   -1.690543
     11          1           0       -1.178783   -0.035975    2.539905
     12          1           0        1.041013    0.481197    1.570044
     13          1           0       -0.615956   -2.428486   -0.196634
     14          1           0       -1.281382   -1.568328    1.547042
     15          8           0        2.054514   -0.464326   -0.484098
     16          6           0        2.395550   -0.815600   -1.808419
     17          1           0        1.643202   -0.456541   -2.520399
     18          1           0        3.349726   -0.332430   -2.015517
     19          1           0        2.498928   -1.902386   -1.913366
     20          6           0       -3.277188   -0.430967    0.448153
     21          8           0       -3.958958    0.108260    1.297000
     22          1           0       -3.544738   -1.450428    0.076136
 ---------------------------------------------------------------------
                    Distance matrix (angstroms):
                    1          2          3          4          5
     1  C    0.000000
     2  C    2.023073   0.000000
     3  C    3.082077   2.840139   0.000000
     4  C    1.396726   2.889411   2.441588   0.000000
     5  H    1.085919   2.400222   3.781403   2.138012   0.000000
     6  H    1.089610   2.345536   3.751762   2.123406   1.818059
     7  H    2.170563   3.521622   2.609890   1.083203   2.495281
     8  C    2.725153   1.393079   2.418129   3.165098   2.874418
     9  C    3.151503   2.441073   1.361669   2.937383   3.505357
    10  H    2.525488   1.086635   3.926012   3.691523   2.604721
    11  H    3.839578   3.903695   1.085018   2.861760   4.521305
    12  H    3.927122   3.375844   2.130286   3.594424   4.079608
    13  H    2.340581   1.082856   2.640403   2.940949   3.074863
    14  H    2.994017   2.650622   1.081611   2.538679   3.894689
    15  O    3.629751   2.413599   3.593341   4.190316   3.381626
    16  C    3.936845   2.755643   4.753161   4.859526   3.448366
    17  H    3.381900   2.726530   4.895316   4.442737   2.686290
    18  H    4.905168   3.825949   5.577260   5.755195   4.303497
    19  H    4.270292   2.730571   5.057529   5.302996   3.956253
    20  C    2.469133   3.762846   2.833022   1.453659   3.404461
    21  O    3.606636   4.859086   3.310943   2.381974   4.454353
    22  H    2.612659   3.685578   3.340337   2.159853   3.645859
                    6          7          8          9         10
     6  H    0.000000
     7  H    3.079433   0.000000
     8  C    3.434647   3.395832   0.000000
     9  C    3.983426   2.919253   1.411237   0.000000
    10  H    2.581084   4.340145   2.144311   3.417615   0.000000
    11  H    4.533211   2.759432   3.399928   2.136576   4.988141
    12  H    4.869762   3.251771   2.130287   1.086502   4.252380
    13  H    2.358639   3.756387   2.117417   2.720635   1.815920
    14  H    3.357212   3.093830   2.734731   2.144408   3.689422
    15  O    4.384228   4.206428   1.353566   2.328566   2.674317
    16  C    4.489840   5.001142   2.358959   3.614401   2.427593
    17  H    3.894962   4.610009   2.679038   3.916050   2.281639
    18  H    5.513787   5.754500   3.241600   4.330876   3.503759
    19  H    4.599951   5.630417   2.675890   4.034563   2.144124
    20  C    2.639087   2.175419   4.222972   3.817417   4.581323
    21  O    3.839837   2.668594   5.129462   4.447529   5.741051
    22  H    2.323941   3.114239   4.462769   4.303958   4.366166
                   11         12         13         14         15
    11  H    0.000000
    12  H    2.477013   0.000000
    13  H    3.678250   3.785888   0.000000
    14  H    1.828773   3.097515   2.055010   0.000000
    15  O    4.447729   2.478044   3.327457   4.058640   0.000000
    16  C    5.682569   3.863996   3.777357   5.034436   1.411922
    17  H    5.809230   4.239541   3.793711   5.131601   2.077440
    18  H    6.430174   4.341473   4.840291   5.972137   2.010028
    19  H    6.069652   4.465549   3.595338   5.135831   2.075651
    20  C    2.989105   4.553849   3.389393   2.546446   5.412694
    21  O    3.048769   5.021289   4.454400   3.169051   6.297779
    22  H    3.697104   5.195387   3.099801   2.701896   5.712958
                   16         17         18         19         20
    16  C    0.000000
    17  H    1.096297   0.000000
    18  H    1.089400   1.783965   0.000000
    19  H    1.096725   1.786399   1.788589   0.000000
    20  C    6.117190   5.746581   7.070740   6.411346   0.000000
    21  O    7.132806   6.802627   8.036407   7.486885   1.214956
    22  H    6.264310   5.885960   7.290992   6.378737   1.117712
                   21         22
    21  O    0.000000
    22  H    2.022770   0.000000
 Stoichiometry    C8H12O2
 Framework group  C1[X(C8H12O2)]
 Deg. of freedom    60
 Full point group                 C1      NOp   1
 Largest Abelian subgroup         C1      NOp   1
 Largest concise Abelian subgroup C1      NOp   1
                         Standard orientation:                         
 ---------------------------------------------------------------------
 Center     Atomic      Atomic             Coordinates (Angstroms)
 Number     Number       Type             X           Y           Z
 ---------------------------------------------------------------------
      1          6           0       -0.485056   -1.452601   -0.209198
      2          6           0        0.914044   -0.611405    0.985679
      3          6           0       -0.813390    1.556948    0.368742
      4          6           0       -1.484995   -0.570123   -0.624167
      5          1           0        0.206389   -1.835702   -0.953750
      6          1           0       -0.762908   -2.190429    0.542903
      7          1           0       -1.434839   -0.063651   -1.580357
      8          6           0        1.357869    0.497273    0.268378
[...]
 920958,-0.00050478,-0.00007935,-0.00027489,0.00211236,-0.00156190,0.00
 287523,0.13852970,0.22764855,0.00023548,0.00013533,0.00042699,0.004549
 49,-0.00231855,-0.00314683,0.00942575,0.01237038,0.00734618,-0.0004852
 8,-0.00017729,-0.00007675,-0.00005928,-0.00001991,-0.00009045,0.000169
 19,-0.00007214,0.00002637,-0.00003383,0.00008341,0.00007052,-0.0151060
 4,-0.02258385,-0.00817923,-0.04663929,-0.08382035,-0.08074935,-0.00118
 960,-0.00071245,-0.00072960,-0.00232932,0.00212423,-0.00197077,0.04828
 486,0.09436654,0.08320313,-0.00779664,0.01412325,-0.00440304,-0.141425
 96,-0.12154017,0.10549535,0.00428229,0.00053524,0.00210723,0.00114324,
 -0.00013743,-0.00554944,-0.00099438,0.00072406,0.00006525,0.00066766,0
 .00048706,-0.00007575,0.00046196,-0.00037394,0.00028916,-0.01789377,-0
 .01435802,0.00534613,-0.00510803,0.00215329,0.00277331,-0.00373318,-0.
 00441549,0.00241845,-0.00021909,0.00056019,-0.00050464,-0.00019783,0.0
 0019955,0.00011457,0.16763064,0.00756282,-0.01338798,0.00330696,-0.135
 48767,-0.15215195,0.08420172,-0.00471831,0.00042253,-0.00101349,-0.000
 68572,0.00049591,0.00573671,0.00075952,-0.00024467,0.00000613,-0.00078
 963,0.00111155,-0.00056173,-0.00036562,0.00024228,-0.00018940,-0.00455
 425,-0.00281233,0.01812402,0.00385902,-0.00111467,-0.00309475,0.008046
 17,0.00934593,-0.00596283,0.00049785,0.00029990,0.00039650,0.00026381,
 -0.00007751,0.00013240,0.12763206,0.15608324,-0.00250440,0.00594250,-0
 .00130232,0.10865207,0.09005377,-0.13226254,0.00054155,-0.00330509,-0.
 00082307,0.00090731,-0.00091044,-0.00230536,-0.00047029,-0.00011374,0.
 00004926,-0.00016224,0.00000399,-0.00022477,0.00017114,-0.00007891,0.0
 0005528,-0.01238887,-0.00983919,0.01191865,0.00015160,0.00146141,-0.00
 064226,0.01445241,0.01638089,-0.01008418,-0.00003226,0.00006174,0.0000
 1150,-0.00015664,0.00041824,0.00003864,-0.10841894,-0.09480703,0.13971
 595,-0.00295235,0.00322634,0.00206234,0.00306533,-0.00128698,0.0021959
 2,-0.10511870,-0.12403307,-0.01361870,-0.00329536,0.00404732,-0.007708
 00,0.00026192,-0.00014082,0.00022437,0.00029784,-0.00033062,0.00010154
 ,0.00000874,-0.00008389,0.00008623,-0.00147021,-0.00140191,-0.00674632
 ,-0.01449847,-0.02514961,-0.00377206,-0.00006530,0.00059800,-0.0003283
 9,0.00644288,0.00922061,0.00195280,-0.00168644,-0.00302252,0.00540001,
 0.00066533,0.00064803,0.00137823,0.11911130,0.00281275,-0.00261307,-0.
 00156603,-0.00105229,0.00141052,-0.00278904,-0.13374473,-0.27512026,-0
 .05709242,0.00366924,-0.00280211,0.00578215,-0.00023844,0.00009651,-0.
 00014648,-0.00029808,0.00032064,-0.00015321,-0.00010761,0.00018728,-0.
 00012532,0.00048025,-0.00027464,0.00280408,0.00172041,-0.00138605,-0.0
 0565080,0.00044076,0.00034733,0.00000292,-0.00808525,-0.00900406,-0.00
 168996,-0.00160461,0.00320576,-0.00155148,0.00007103,0.00008874,-0.000
 95011,0.13519561,0.28556575,-0.00533797,0.00502747,0.00250089,0.006299
 21,-0.00011326,0.00144980,-0.00489549,-0.05523683,-0.05320618,-0.00431
 933,0.00484515,-0.01068332,0.00049537,-0.00031282,0.00034792,0.0002898
 0,-0.00041544,0.00011239,0.00013886,-0.00009501,-0.00004226,-0.0023803
 8,-0.00267957,-0.00807986,-0.00327911,0.01114783,0.01273507,-0.0004354
 4,0.00025041,0.00014661,-0.01132437,-0.01999331,-0.00029415,0.00414496
 ,-0.00322143,0.00267885,0.00139426,-0.00191988,-0.00244622,0.02011481,
 0.06151944,0.05496850,0.00422696,-0.00307376,0.00274486,-0.03752404,-0
 .02647411,0.01184011,0.00952305,-0.00088443,0.00096387,-0.01211787,0.0
 0010235,-0.00003408,0.00014106,0.00101354,-0.00114693,0.00033100,0.000
 20112,-0.00025227,0.00011545,-0.00033529,0.00041243,-0.23667975,-0.107
 51892,0.05941660,-0.02703367,-0.00859929,0.03266016,0.00009767,0.00065
 622,0.00063940,-0.00060290,0.00010317,-0.00005264,-0.00115810,0.001609
 79,-0.00255853,0.00225045,-0.00427505,-0.00272082,-0.00040262,0.001225
 04,-0.00082818,0.39022001,0.00487406,-0.00438716,-0.00074943,-0.033070
 92,-0.00912314,0.00704489,-0.00100654,0.00017758,-0.00489855,-0.005939
 77,0.00034667,0.00417835,-0.00168771,0.00006790,-0.00094880,0.00003253
 ,0.00099828,-0.00063242,-0.00019012,-0.00000361,0.00014664,-0.09272957
 ,-0.11199006,-0.00107783,0.01118150,0.01035727,-0.00114708,0.00377744,
 -0.00120720,0.00198496,0.00076943,0.00024147,-0.00030588,0.00076875,-0
 .00008123,0.00138912,-0.00490651,0.00127784,-0.00399938,0.00044957,0.0
 0026369,0.00006207,0.11164606,0.21184920,0.00179442,-0.00071293,-0.001
 89005,-0.00706487,-0.00453091,0.01468983,-0.00754983,-0.00433076,-0.00
 414478,0.00824008,-0.00001939,0.00234189,0.00072437,-0.00008098,0.0007
 3945,-0.00029726,-0.00026719,0.00039986,-0.00026438,0.00045125,-0.0004
 4324,0.08801089,0.02115478,-0.12075533,0.05209113,0.01922612,-0.029936
 92,0.00057139,0.00246786,-0.00117591,0.00184770,0.00005301,-0.00017829
 ,-0.00030563,0.00163858,0.00150640,-0.00096515,-0.00316698,-0.00136803
 ,0.00053629,-0.00021304,0.00077786,-0.19960821,0.08240550,0.42012188,-
 0.00087568,0.00030803,0.00028719,0.00000894,0.00098548,0.00138942,-0.0
 0050125,0.00049969,0.00138448,0.00198188,0.00020963,-0.00028425,-0.000
 10663,0.00015173,-0.00012494,0.00009035,0.00001779,0.00001951,-0.00004
 016,0.00005548,-0.00001458,-0.02800631,0.00871621,0.03836548,-0.001430
 94,-0.00357341,-0.00113954,-0.00268672,-0.00015986,0.00182928,-0.00025
 802,0.00000131,-0.00003034,-0.00008166,0.00031002,0.00013701,0.0004350
 8,0.00092036,0.00082361,0.00007874,-0.00007742,0.00007194,-0.09394611,
 -0.00045041,0.03645152,0.61910150,0.00118354,-0.00088481,-0.00009508,-
 0.00505888,-0.00148771,0.00306897,-0.00070332,0.00131812,0.00014806,-0
 .00154136,-0.00007693,0.00087260,0.00015601,0.00000376,-0.00006058,-0.
 00011433,0.00002888,-0.00005710,-0.00000579,-0.00002926,-0.00004404,-0
 .00066293,0.00647915,0.01611306,-0.00362209,-0.00117583,-0.00016509,-0
 .00185648,-0.00074211,0.00095937,-0.00031969,-0.00003519,0.00014031,0.
 00035911,0.00005038,0.00030139,-0.00027436,-0.00022293,-0.00012165,0.0
 0015030,-0.00008085,-0.00008713,0.01564993,-0.10310698,-0.07581027,0.0
 3775233,0.59565834,0.00200416,-0.00259863,0.00088423,-0.00818332,-0.00
 062642,0.00363000,0.00241735,-0.00082807,-0.00017651,-0.00475591,0.000
 24030,0.00055588,-0.00015822,0.00075499,-0.00043076,-0.00017608,0.0003
 5330,-0.00024443,0.00015190,-0.00025098,0.00020507,0.02535401,0.003904
 53,-0.02844487,-0.00149396,-0.00075019,0.00657124,0.00005417,-0.000767
 39,-0.00045029,-0.00028021,0.00018528,-0.00011197,-0.00036299,0.000206
 58,-0.00061579,-0.00011293,-0.00170273,-0.00113242,-0.00018825,0.00027
 262,-0.00012299,0.05707397,-0.05806934,-0.21286254,0.02095583,-0.03196
 510,0.52128000,-0.00062904,0.00050855,-0.00018483,0.00045825,-0.001389
 67,-0.00096128,0.00020310,0.00006852,0.00000190,0.00020627,0.00006431,
 -0.00020261,-0.00031741,0.00008839,0.00008923,0.00008528,-0.00002073,-
 0.00003533,-0.00002555,0.00001856,-0.00004197,0.00260431,-0.00011731,0
 .00055297,-0.00055849,0.00043953,0.00005227,-0.00063132,-0.00131220,0.
 00162532,0.00001501,-0.00000908,0.00001043,0.00005397,-0.00004637,0.00
 001929,-0.00043772,0.00060330,0.00007060,-0.00001519,-0.00004619,-0.00
 005910,0.01313447,-0.00459824,0.01396613,-0.16825783,0.04227932,-0.124
 83262,0.17276583,-0.00017675,0.00007811,-0.00005605,0.00063390,0.00046
 675,0.00073484,0.00002240,-0.00005987,0.00001804,0.00029478,0.00000410
 ,-0.00012352,0.00021719,0.00007560,0.00001089,-0.00008984,-0.00002282,
 0.00006547,0.00003400,-0.00000659,-0.00001541,-0.00128078,-0.00027405,
 0.00083030,0.00020109,-0.00008441,-0.00013476,-0.00036886,-0.00096131,
 0.00046803,0.00000158,0.00000111,-0.00002109,-0.00004918,0.00003341,-0
 .00001492,0.00007190,-0.00007829,-0.00025852,-0.00000908,-0.00002734,0
 .00001767,-0.00798726,0.00451391,-0.01587634,0.04185899,-0.06982954,0.
 04747514,-0.04441547,0.06780711,0.00018778,0.00019465,-0.00039119,0.00
 083286,0.00044260,0.00025499,-0.00075743,-0.00009334,0.00006921,0.0007
 7254,-0.00013798,0.00029697,0.00027458,-0.00029171,0.00019505,-0.00004
 140,-0.00006466,0.00009762,-0.00003122,0.00005406,-0.00004586,-0.00835
 143,-0.00304843,0.00264475,0.00160200,-0.00003383,-0.00114333,0.000275
 58,0.00115974,-0.00017071,0.00004889,0.00002599,-0.00004272,-0.0001418
 6,0.00016927,0.00014119,0.00000529,0.00018094,0.00040831,0.00008994,-0
 .00003562,0.00008802,-0.00668484,0.00018515,-0.04064517,-0.12007635,0.
 04622146,-0.18124851,0.13223752,-0.04490757,0.21233347,0.00014566,-0.0
 0003344,-0.00002678,0.00015118,-0.00024185,-0.00000014,0.00015729,0.00
 012136,0.00022140,-0.00031116,-0.00007624,0.00001580,0.00004370,-0.000
 08289,-0.00000122,0.00000886,0.00000162,0.00000158,-0.00000357,-0.0000
 1277,0.00002519,0.00183651,0.00201080,0.00021646,-0.00055973,-0.000413
 56,0.00029098,-0.00005012,0.00025952,0.00006004,-0.00006228,0.00000199
 ,0.00000027,-0.00000775,0.00002820,0.00000096,-0.00001829,0.00000434,0
 .00008986,0.00001587,0.00001371,-0.00001453,-0.01164574,-0.00357657,0.
 00865535,-0.26637656,-0.11467069,0.03365564,-0.01632677,-0.01051130,0.
 00237673,0.28595741,0.00029246,-0.00020208,0.00003827,-0.00053666,-0.0
 0001955,-0.00049281,-0.00028730,-0.00007187,-0.00012684,-0.00005340,0.
 00004442,0.00020880,-0.00007802,0.00005058,-0.00001169,0.00000442,0.00
 000505,-0.00000929,-0.00002134,0.00000804,-0.00000850,0.00063207,-0.00
 048276,-0.00203362,0.00053051,0.00046216,-0.00042587,0.00004855,-0.000
 04161,0.00069068,0.00008829,-0.00003366,0.00003879,-0.00002188,-0.0000
 1232,0.00001420,-0.00012301,0.00018759,0.00012353,-0.00000388,0.000015
 14,-0.00000296,0.01571565,0.00707575,-0.00569679,-0.12104457,-0.117804
 77,0.02225008,0.00865864,0.00490728,-0.00132049,0.12458482,0.11766358,
 0.00003127,0.00007299,-0.00009053,-0.00029487,-0.00085818,-0.00063880,
 -0.00030918,-0.00029660,-0.00040233,0.00032904,-0.00002107,0.00004879,
 0.00009174,-0.00009376,0.00002630,0.00001834,-0.00003468,0.00003743,-0
 .00001105,0.00002525,-0.00000914,0.00011532,-0.00364499,-0.00361033,0.
 00153787,0.00084542,-0.00046115,-0.00036209,0.00045818,0.00053036,0.00
 015456,0.00003264,-0.00003667,-0.00000525,-0.00005389,0.00002888,-0.00
 003639,0.00028491,0.00033658,0.00001894,0.00001200,0.00004940,0.037487
 63,0.01456198,-0.01705470,0.02351486,0.01557788,-0.05243136,-0.0201353
 3,-0.01203986,0.00593689,-0.04365075,-0.01686674,0.06717386,-0.0011098
 7,0.00092978,0.00010240,0.00036792,-0.00064417,-0.00019532,0.00104335,
 -0.00016316,0.00019398,-0.00000105,-0.00015045,-0.00084847,0.00015643,
 -0.00011778,0.00010492,0.00003843,-0.00007340,0.00006360,0.00006842,-0
 .00003368,0.00003563,0.00341994,0.00298958,-0.00183388,-0.00092922,0.0
 0003090,0.00124412,-0.00190111,0.00043341,-0.00032582,-0.00000386,0.00
 000561,-0.00001457,-0.00005832,-0.00001685,-0.00014719,0.00021846,-0.0
 0022312,-0.00010517,-0.00011377,0.00007685,-0.00008226,-0.00380158,0.0
 1254940,0.00659117,-0.05835616,0.03070791,-0.00307487,-0.00235371,0.02
 172216,-0.00230007,0.00688682,-0.02840861,0.00166164,0.05640253,-0.000
 31627,0.00023951,0.00017730,0.00047959,-0.00036155,-0.00051220,-0.0002
 8344,0.00012230,0.00015569,0.00075972,0.00002451,-0.00031082,0.0000269
 1,0.00000432,0.00000832,0.00005767,-0.00003818,0.00003749,-0.00001961,
 0.00002061,0.00001635,-0.00383618,-0.00030414,0.00183826,0.00043521,0.
 00025800,-0.00065454,-0.00045461,0.00049445,0.00038645,0.00009274,-0.0
 0004752,0.00005804,0.00003029,-0.00000094,0.00021413,-0.00003648,0.000
 17068,0.00029112,0.00002985,0.00002257,-0.00001627,0.00678617,-0.00965
 474,-0.01385611,0.03427016,-0.30873444,0.02004953,-0.00062589,-0.00641
 823,0.00155529,0.00244039,-0.01179319,0.00215867,-0.03952647,0.3362772
 8,0.00046206,-0.00017574,-0.00026737,0.00022812,0.00163935,0.00053198,
 -0.00098831,0.00026045,-0.00022021,0.00029488,-0.00003763,0.00058875,-
 0.00002965,-0.00005844,0.00000256,-0.00006774,0.00000469,-0.00000909,-
 0.00004751,0.00004474,-0.00006362,-0.00537277,-0.00340082,0.00384634,0
 .00076498,0.00020686,-0.00172635,0.00055805,-0.00024873,-0.00010406,0.
 00002937,-0.00002976,0.00002064,0.00010933,-0.00001219,0.00027186,0.00
 000053,0.00002026,-0.00008206,0.00012214,-0.00008359,0.00008590,0.0131
 7268,-0.03904817,-0.01184457,-0.00384001,0.02531592,-0.05365843,-0.002
 25912,0.02380149,0.00097920,-0.00188119,0.00362951,0.00047476,-0.00108
 015,-0.01175377,0.06108127,-0.01946859,0.00941024,0.01557408,0.0068995
 6,-0.00011887,0.00435161,-0.01876312,0.00523305,-0.00923575,-0.1771356
 1,-0.07866173,0.05746127,0.00449905,-0.00352653,0.00050406,-0.00320064
 ,-0.00061175,-0.00262085,-0.00259258,0.00029805,0.00159438,-0.00706246
 ,-0.00530821,0.00630788,0.00512787,-0.00272481,-0.00685374,-0.00013565
 ,-0.00007050,-0.00026207,0.00190218,-0.00061959,0.00131302,0.00028292,
 -0.00012521,0.00029721,-0.00001334,0.00052376,-0.00056920,-0.00054646,
 -0.00112196,-0.00018294,0.00892948,0.00412083,-0.00618490,-0.00166448,
 0.00129960,0.00361788,-0.00001123,-0.00032877,-0.00053166,0.00033130,0
 .00007448,-0.00026583,-0.00001991,-0.00059170,-0.00026809,0.57893734,0
 .00654785,0.01550867,-0.00210822,0.00928428,-0.00093195,0.00311077,0.0
 0430254,0.00118555,0.00172756,-0.08427004,-0.14578248,0.01573443,-0.00
 105862,-0.00037886,-0.00464715,0.00435429,-0.00134716,-0.00187492,-0.0
 2599407,-0.01009823,0.01360956,-0.00263155,-0.00698699,-0.00095662,-0.
 00110068,-0.00165189,-0.00113021,-0.00003858,-0.00023480,0.00001154,-0
 .00103370,-0.00043878,-0.00055688,-0.00022827,0.00029737,0.00016718,0.
 00050216,0.00007886,-0.00019502,0.00322004,-0.00019096,0.00177899,0.00
 440083,0.00228958,-0.00306458,-0.00072517,0.00078097,0.00199101,-0.000
 18969,-0.00008999,-0.00027927,0.00012955,0.00003723,-0.00013613,-0.000
 08396,-0.00032728,-0.00004547,-0.01045715,0.60215940,0.03612493,0.0003
 9492,-0.02673704,-0.00821856,0.00072333,-0.00568605,0.00492618,-0.0025
 8104,0.00248963,0.03699685,0.01112281,-0.08394378,0.00508091,-0.004006
 31,-0.00207616,-0.00037500,0.00481699,-0.00135688,-0.00851394,-0.00613
 257,0.00498405,0.00480469,0.00599561,-0.00291615,-0.00356620,0.0022098
 8,0.00531938,0.00028381,-0.00018351,0.00037528,-0.00238238,0.00059103,
 -0.00228187,0.00007889,0.00005582,-0.00033981,0.00076037,-0.00052306,0
 .00075070,-0.00242267,0.00297788,-0.00097903,-0.00711851,-0.00344482,0
 .00433199,0.00110282,-0.00093559,-0.00307848,0.00019617,0.00016520,0.0
 0047157,-0.00019522,-0.00005363,0.00020207,0.00008846,0.00044926,0.000
 20501,-0.31935464,0.25642197,0.61313070,0.00228051,-0.01208717,-0.0015
 4235,-0.00490242,0.00042158,-0.00254701,0.00131237,-0.00239963,0.00367
 609,-0.03656051,0.01813626,0.05122943,-0.00203720,0.00216136,0.0012527
 9,0.00066668,0.00055512,0.00004658,0.00189328,0.00058580,-0.00218983,0
 .00355962,0.00428170,-0.00069403,-0.00096321,0.00176394,0.00062752,0.0
 0001548,0.00002854,0.00008204,0.00011376,-0.00030879,0.00017524,-0.000
 03744,-0.00009525,-0.00007641,0.00024868,-0.00042144,0.00039292,0.0001
 8894,0.00034464,0.00031236,-0.00406556,-0.00211828,0.00272121,0.000883
 78,-0.00070352,-0.00166267,0.00004529,0.00016467,0.00020819,-0.0001770
 8,-0.00005388,0.00010568,0.00006171,0.00027590,0.00008943,-0.29322543,
 0.15430205,0.27929878,0.31416826,-0.00497987,0.00282790,0.00223343,0.0
 0031679,-0.00008959,0.00087373,-0.00278911,0.00084624,-0.00240266,0.00
 773897,0.02620989,0.00123989,0.00090135,-0.00030757,0.00107090,-0.0010
 6235,0.00009361,0.00125442,0.00404529,0.00232146,-0.00144505,-0.001247
 66,-0.00020840,0.00071870,0.00126464,-0.00014123,-0.00053541,-0.000033
 10,0.00008773,-0.00008923,0.00060769,-0.00018077,0.00065536,0.00019291
 ,-0.00006826,0.00001241,-0.00042948,0.00022548,-0.00020821,-0.00065603
 ,-0.00008921,-0.00017469,0.00096730,0.00053722,-0.00051746,-0.00020528
 ,0.00008614,0.00032841,0.00001980,-0.00005472,-0.00004356,0.00004929,0
 .00001190,-0.00001862,-0.00001059,-0.00004019,-0.00004202,0.14822064,-
 0.23156500,-0.22313708,-0.17610215,0.21567641,-0.00518987,0.00846585,0
 .00756690,0.00637400,-0.00045867,0.00360768,-0.00536141,0.00213224,-0.
 00341358,0.05066262,-0.00763902,-0.02517266,-0.00006076,-0.00011898,-0
 .00041651,-0.00004725,-0.00128897,0.00108268,-0.00156512,0.00179504,-0
 .00088065,-0.00429062,-0.00471495,0.00056325,0.00166128,-0.00104704,-0
 .00228073,-0.00005504,0.00004146,-0.00013864,0.00209545,-0.00020536,0.
 00163578,0.00004609,-0.00003205,0.00020886,-0.00071546,0.00048514,-0.0
 0056914,0.00037306,-0.00134747,-0.00016072,0.00501757,0.00245522,-0.00
 286012,-0.00089329,0.00068518,0.00202927,-0.00011602,-0.00014847,-0.00
 025559,0.00017027,0.00005404,-0.00012224,-0.00007003,-0.00031711,-0.00
 012317,0.27634412,-0.22816250,-0.42876266,-0.34096041,0.26015113,0.461
 00997,-0.00076144,0.00023978,-0.00079605,0.00030054,-0.00019276,0.0003
 3499,0.00116818,-0.00025339,0.00061174,-0.00082273,-0.02770088,-0.0041
 8411,0.00018761,0.00041145,0.00006568,0.00020292,0.00060404,0.00081087
 ,-0.00313712,-0.00221362,0.00335723,-0.00001881,-0.00042548,-0.0003808
 3,-0.00001573,-0.00001109,0.00031577,0.00000901,0.00005619,-0.00003175
 ,-0.00008318,0.00002040,-0.00001942,0.00002140,0.00006692,-0.00000905,
 -0.00016557,0.00019977,-0.00010245,0.00002798,0.00032629,-0.00012248,0
 .00000832,0.00010507,0.00003859,0.00000825,-0.00000461,-0.00000287,-0.
 00000755,-0.00000536,0.00000436,0.00000445,0.00000267,0.00000385,-0.00
 001543,0.00000604,0.00000294,-0.08307019,-0.05923210,-0.01759573,0.016
 53048,0.02319095,0.01658084,0.06962860,0.00248517,-0.00142247,-0.00127
 441,-0.00143735,0.00004993,-0.00057444,-0.00019618,-0.00048425,-0.0002
 2427,-0.00779976,-0.01120046,-0.00907876,0.00031627,0.00035018,0.00056
 602,-0.00050185,0.00059259,0.00116632,-0.00307303,-0.00008294,0.000122
 96,0.00047321,0.00121605,-0.00039426,0.00006795,0.00062179,0.00060011,
 0.00003347,0.00006141,-0.00000223,0.00024486,0.00010667,0.00023562,0.0
 0010281,-0.00004197,-0.00003978,-0.00046489,0.00005980,0.00005011,-0.0
 0066726,0.00006461,-0.00038045,-0.00092903,-0.00044223,0.00074666,0.00
 017891,-0.00019436,-0.00045292,0.00002193,0.00001975,0.00006731,-0.000
 02628,-0.00000692,0.00003461,0.00000665,0.00008617,0.00001308,-0.06491
 389,-0.22231326,-0.04492708,0.01126858,-0.01617903,-0.03078471,0.06480
 971,0.24913894,-0.00048251,0.00198016,0.00143692,-0.00028663,-0.000148
 40,-0.00014267,0.00061035,-0.00056012,0.00075639,0.00865852,0.00548012
 ,0.00875645,-0.00041347,0.00025690,0.00023685,-0.00039979,-0.00032122,
 -0.00017343,0.00287647,-0.00004551,0.00095858,0.00032567,0.00005003,-0
 .00019635,-0.00021859,0.00006907,0.00018916,0.00003435,-0.00000829,0.0
 0000928,0.00004103,0.00001215,-0.00000489,-0.00005516,0.00005439,-0.00
 004927,0.00001184,0.00006619,-0.00004249,0.00012776,0.00002346,0.00007
 354,-0.00042424,-0.00009216,0.00025050,0.00007032,-0.00006255,-0.00014
 633,0.00000637,0.00000946,0.00002584,-0.00001069,0.00000131,0.00001190
 ,-0.00000813,0.00002493,0.00001066,-0.02103583,-0.05139604,-0.07410246
 ,0.00945447,-0.03992439,-0.01254796,0.00111788,0.08453051,0.07468979\\
 0.00000449,-0.00000751,-0.00000131,-0.00000549,0.00000376,-0.00000284,
 -0.00000982,0.00000792,0.00000117,0.00000547,-0.00000326,-0.00000020,-
 0.00000007,-0.00000205,-0.00000309,-0.00000047,-0.00000063,-0.00000095
 ,0.00000151,-0.00000083,-0.00000119,0.00000294,0.00000193,-0.00000711,
 -0.00000467,0.00000271,0.00000954,0.00000352,-0.00000166,0.00000331,-0
 .00000079,0.00000142,0.00000030,-0.00000225,0.00000162,0.00000051,0.00
 000006,-0.00000067,-0.00000045,-0.00000285,0.00000165,0.00000023,0.000
 00164,-0.00000044,0.00000037,0.00000241,0.00000004,0.00000024,0.000001
 76,-0.00000150,0.00000161,0.00000111,0.00000002,0.00000205,0.00000158,
 -0.00000060,0.00000337,0.00000240,-0.00000299,-0.00000150,-0.00000275,
 0.00000182,-0.00000291,0.00000025,-0.00000073,-0.00000116\\\@
 The archive entry for this job was punched.


 QED = W**5 (WHICH WAS WHAT WE WANTED)
 Job cpu time:       0 days  0 hours 22 minutes 49.1 seconds.
 Elapsed time:       0 days  0 hours  1 minutes 39.1 seconds.
 File lengths (MBytes):  RWF=     84 Int=      0 D2E=      0 Chk=      5 Scr=      1
 Normal termination of Gaussian 16 at Tue Jun 21 10:25:24 2022.
