Job Start Time: Tue Jun 21 10:35:38 MDT 2022
SLURM Job ID: 40876
SLURM Job Name: DATS_13_exo_i
 Entering Gaussian System, Link 0=/opt/apps/Gaussian/G16C/g16/g16
 Initial command:
 /opt/apps/Gaussian/G16C/g16/l1.exe "/tmp/Gau-3366794.inp" -scrdir="/tmp/"
 Entering Link 1 = /opt/apps/Gaussian/G16C/g16/l1.exe PID=   3366796.
  
 Copyright (c) 1988-2019, Gaussian, Inc.  All Rights Reserved.
  
 This is part of the Gaussian(R) 16 program.  It is based on
 the Gaussian(R) 09 system (copyright 2009, Gaussian, Inc.),
 the Gaussian(R) 03 system (copyright 2003, Gaussian, Inc.),
 the Gaussian(R) 98 system (copyright 1998, Gaussian, Inc.),
 the Gaussian(R) 94 system (copyright 1995, Gaussian, Inc.),
 the Gaussian 92(TM) system (copyright 1992, Gaussian, Inc.),
 the Gaussian 90(TM) system (copyright 1990, Gaussian, Inc.),
 the Gaussian 88(TM) system (copyright 1988, Gaussian, Inc.),
 the Gaussian 86(TM) system (copyright 1986, Carnegie Mellon
 University), and the Gaussian 82(TM) system (copyright 1983,
 Carnegie Mellon University). Gaussian is a federally registered
 trademark of Gaussian, Inc.
  
 This software contains proprietary and confidential information,
 including trade secrets, belonging to Gaussian, Inc.
  
 This software is provided under written license and may be
 used, copied, transmitted, or stored only in accord with that
 written license.
  
 The following legend is applicable only to US Government
 contracts under FAR:
  
                    RESTRICTED RIGHTS LEGEND
  
 Use, reproduction and disclosure by the US Government is
 subject to restrictions as set forth in subparagraphs (a)
 and (c) of the Commercial Computer Software - Restricted
 Rights clause in FAR 52.227-19.
  
 Gaussian, Inc.
 340 Quinnipiac St., Bldg. 40, Wallingford CT 06492
  
  
 ---------------------------------------------------------------
 Warning -- This program may not be used in any manner that
 competes with the business of Gaussian, Inc. or will provide
 assistance to any competitor of Gaussian, Inc.  The licensee
 of this program is prohibited from giving any competitor of
 Gaussian, Inc. access to this program.  By using this program,
 the user acknowledges that Gaussian, Inc. is engaged in the
 business of creating and licensing software in the field of
 computational chemistry and represents and warrants to the
 licensee that it is not a competitor of Gaussian, Inc. and that
 it will not use this program in any manner prohibited above.
 ---------------------------------------------------------------
  

 Cite this work as:
 Gaussian 16, Revision C.01,
 M. J. Frisch, G. W. Trucks, H. B. Schlegel, G. E. Scuseria, 
 M. A. Robb, J. R. Cheeseman, G. Scalmani, V. Barone, 
 G. A. Petersson, H. Nakatsuji, X. Li, M. Caricato, A. V. Marenich, 
 J. Bloino, B. G. Janesko, R. Gomperts, B. Mennucci, H. P. Hratchian, 
 J. V. Ortiz, A. F. Izmaylov, J. L. Sonnenberg, D. Williams-Young, 
 F. Ding, F. Lipparini, F. Egidi, J. Goings, B. Peng, A. Petrone, 
 T. Henderson, D. Ranasinghe, V. G. Zakrzewski, J. Gao, N. Rega, 
 G. Zheng, W. Liang, M. Hada, M. Ehara, K. Toyota, R. Fukuda, 
 J. Hasegawa, M. Ishida, T. Nakajima, Y. Honda, O. Kitao, H. Nakai, 
 T. Vreven, K. Throssell, J. A. Montgomery, Jr., J. E. Peralta, 
 F. Ogliaro, M. J. Bearpark, J. J. Heyd, E. N. Brothers, K. N. Kudin, 
 V. N. Staroverov, T. A. Keith, R. Kobayashi, J. Normand, 
 K. Raghavachari, A. P. Rendell, J. C. Burant, S. S. Iyengar, 
 J. Tomasi, M. Cossi, J. M. Millam, M. Klene, C. Adamo, R. Cammi, 
 J. W. Ochterski, R. L. Martin, K. Morokuma, O. Farkas, 
 J. B. Foresman, and D. J. Fox, Gaussian, Inc., Wallingford CT, 2019.
 
 ******************************************
 Gaussian 16:  AS64L-G16RevC.01  3-Jul-2019
                21-Jun-2022 
 ******************************************
 %nprocshared=16
 Will use up to   16 processors via shared memory.
 -------------------------------------------------
 # opt=(calcfc,ts,noeigentest) freq 6-31g(d) m062x
 -------------------------------------------------
 1/5=1,10=4,11=1,18=20,26=3,38=1/1,3;
 2/9=110,12=2,17=6,18=5,40=1/2;
 3/5=1,6=6,7=1,11=2,25=1,30=1,71=2,74=-55,140=1/1,2,3;
 4//1;
 5/5=2,38=5/2;
 8/6=4,10=90,11=11/1;
 11/6=1,8=1,9=11,15=111,16=1/1,2,10;
 10/6=1,13=1/2;
 6/7=2,8=2,9=2,10=2,28=1/1;
 7/10=1,25=1/1,2,3,16;
 1/5=1,10=4,11=1,18=20,26=3/3(2);
 2/9=110/2;
 99//99;
 2/9=110/2;
 3/5=1,6=6,7=1,11=2,25=1,30=1,71=1,74=-55/1,2,3;
 4/5=5,16=3,69=1/1;
 5/5=2,38=5/2;
 7//1,2,3,16;
 1/5=1,11=1,18=20,26=3/3(-5);
 2/9=110/2;
 6/7=2,8=2,9=2,10=2,19=2,28=1/1;
 99/9=1/99;
 -------------------
 Title Card Required
 -------------------
 Symbolic Z-matrix:
 Charge =  0 Multiplicity = 1
 C                     0.95384  -1.27007   0.75812 
 C                    -0.24861  -1.00294  -0.91321 
 C                     0.3264    1.74853  -0.33782 
 C                     1.61451  -0.09991   1.09669 
 H                     0.2046   -1.68134   1.42738 
 H                     1.5139   -1.99654   0.17528 
 H                     1.3346    0.48876   1.96268 
 C                    -1.22092  -0.12617  -0.47318 
 C                    -0.91113   1.22648  -0.1385 
 H                    -0.56371  -2.0176   -1.13605 
 H                     0.56314   2.74345   0.02639 
 H                     0.61169  -0.63662  -1.46236 
 H                     1.04716   1.30125  -1.0107 
 C                     2.78506   0.2844    0.33286 
 O                     3.09556  -0.22588  -0.73582 
 H                     3.39317   1.11476   0.74788 
 O                    -1.86648   1.99264   0.59987 
 C                    -3.01743   1.18811   0.86997 
 H                    -3.66743   1.70941   1.54128 
 H                    -3.53538   0.98806  -0.04469 
 H                    -2.71068   0.26487   1.31543 
 H                    -2.16921  -0.56557  -0.24391 
 
 Add virtual bond connecting atoms C2         and C1         Dist= 3.92D+00.

 GradGradGradGradGradGradGradGradGradGradGradGradGradGradGradGradGradGrad
 Berny optimization.
 Initialization pass.
                           ----------------------------
                           !    Initial Parameters    !
                           ! (Angstroms and Degrees)  !
 --------------------------                            --------------------------
 ! Name  Definition              Value          Derivative Info.                !
 --------------------------------------------------------------------------------
 ! R1    R(1,2)                  2.0762         calculate D2E/DX2 analytically  !
 ! R2    R(1,4)                  1.3858         calculate D2E/DX2 analytically  !
 ! R3    R(1,5)                  1.0855         calculate D2E/DX2 analytically  !
 ! R4    R(1,6)                  1.0868         calculate D2E/DX2 analytically  !
 ! R5    R(2,8)                  1.3812         calculate D2E/DX2 analytically  !
 ! R6    R(2,10)                 1.0856         calculate D2E/DX2 analytically  !
 ! R7    R(2,12)                 1.0844         calculate D2E/DX2 analytically  !
 ! R8    R(3,9)                  1.3578         calculate D2E/DX2 analytically  !
 ! R9    R(3,11)                 1.0856         calculate D2E/DX2 analytically  !
 ! R10   R(3,13)                 1.0827         calculate D2E/DX2 analytically  !
 ! R11   R(4,7)                  1.0839         calculate D2E/DX2 analytically  !
 ! R12   R(4,14)                 1.4496         calculate D2E/DX2 analytically  !
 ! R13   R(8,9)                  1.4275         calculate D2E/DX2 analytically  !
 ! R14   R(8,22)                 1.07           calculate D2E/DX2 analytically  !
 ! R15   R(9,17)                 1.43           calculate D2E/DX2 analytically  !
 ! R16   R(14,15)                1.2243         calculate D2E/DX2 analytically  !
 ! R17   R(14,16)                1.1098         calculate D2E/DX2 analytically  !
 ! R18   R(17,18)                1.43           calculate D2E/DX2 analytically  !
 ! R19   R(18,19)                1.07           calculate D2E/DX2 analytically  !
 ! R20   R(18,20)                1.07           calculate D2E/DX2 analytically  !
 ! R21   R(18,21)                1.07           calculate D2E/DX2 analytically  !
 ! A1    A(2,1,4)              111.3551         calculate D2E/DX2 analytically  !
 ! A2    A(2,1,5)               98.3547         calculate D2E/DX2 analytically  !
 ! A3    A(2,1,6)               87.2914         calculate D2E/DX2 analytically  !
 ! A4    A(4,1,5)              119.8902         calculate D2E/DX2 analytically  !
 ! A5    A(4,1,6)              116.73           calculate D2E/DX2 analytically  !
 ! A6    A(5,1,6)              115.6621         calculate D2E/DX2 analytically  !
 ! A7    A(1,2,8)              103.4689         calculate D2E/DX2 analytically  !
 ! A8    A(1,2,10)             102.304          calculate D2E/DX2 analytically  !
 ! A9    A(1,2,12)              89.5216         calculate D2E/DX2 analytically  !
 ! A10   A(8,2,10)             117.0256         calculate D2E/DX2 analytically  !
 ! A11   A(8,2,12)             120.3564         calculate D2E/DX2 analytically  !
 ! A12   A(10,2,12)            116.2362         calculate D2E/DX2 analytically  !
 ! A13   A(9,3,11)             120.1227         calculate D2E/DX2 analytically  !
 ! A14   A(9,3,13)             122.6222         calculate D2E/DX2 analytically  !
 ! A15   A(11,3,13)            116.2261         calculate D2E/DX2 analytically  !
 ! A16   A(1,4,7)              122.0515         calculate D2E/DX2 analytically  !
 ! A17   A(1,4,14)             118.6919         calculate D2E/DX2 analytically  !
 ! A18   A(7,4,14)             119.0486         calculate D2E/DX2 analytically  !
 ! A19   A(2,8,9)              121.5633         calculate D2E/DX2 analytically  !
 ! A20   A(2,8,22)             115.5606         calculate D2E/DX2 analytically  !
 ! A21   A(9,8,22)             122.089          calculate D2E/DX2 analytically  !
 ! A22   A(3,9,8)              121.85           calculate D2E/DX2 analytically  !
 ! A23   A(3,9,17)             118.5997         calculate D2E/DX2 analytically  !
 ! A24   A(8,9,17)             118.9318         calculate D2E/DX2 analytically  !
 ! A25   A(4,14,15)            123.6596         calculate D2E/DX2 analytically  !
 ! A26   A(4,14,16)            116.3465         calculate D2E/DX2 analytically  !
 ! A27   A(15,14,16)           119.9559         calculate D2E/DX2 analytically  !
 ! A28   A(9,17,18)            109.5            calculate D2E/DX2 analytically  !
 ! A29   A(17,18,19)           109.4712         calculate D2E/DX2 analytically  !
 ! A30   A(17,18,20)           109.4712         calculate D2E/DX2 analytically  !
 ! A31   A(17,18,21)           109.4712         calculate D2E/DX2 analytically  !
 ! A32   A(19,18,20)           109.4713         calculate D2E/DX2 analytically  !
 ! A33   A(19,18,21)           109.4712         calculate D2E/DX2 analytically  !
 ! A34   A(20,18,21)           109.4712         calculate D2E/DX2 analytically  !
 ! D1    D(4,1,2,8)            -66.3686         calculate D2E/DX2 analytically  !
 ! D2    D(4,1,2,10)           171.5947         calculate D2E/DX2 analytically  !
 ! D3    D(4,1,2,12)            54.8087         calculate D2E/DX2 analytically  !
 ! D4    D(5,1,2,8)             60.3751         calculate D2E/DX2 analytically  !
 ! D5    D(5,1,2,10)           -61.6616         calculate D2E/DX2 analytically  !
 ! D6    D(5,1,2,12)          -178.4476         calculate D2E/DX2 analytically  !
 ! D7    D(6,1,2,8)            175.922          calculate D2E/DX2 analytically  !
 ! D8    D(6,1,2,10)            53.8853         calculate D2E/DX2 analytically  !
 ! D9    D(6,1,2,12)           -62.9007         calculate D2E/DX2 analytically  !
 ! D10   D(2,1,4,7)            106.976          calculate D2E/DX2 analytically  !
 ! D11   D(2,1,4,14)           -78.3166         calculate D2E/DX2 analytically  !
 ! D12   D(5,1,4,7)             -6.8956         calculate D2E/DX2 analytically  !
 ! D13   D(5,1,4,14)           167.8117         calculate D2E/DX2 analytically  !
 ! D14   D(6,1,4,7)           -154.9707         calculate D2E/DX2 analytically  !
 ! D15   D(6,1,4,14)            19.7366         calculate D2E/DX2 analytically  !
 ! D16   D(1,2,8,9)             67.7            calculate D2E/DX2 analytically  !
 ! D17   D(1,2,8,22)          -102.3382         calculate D2E/DX2 analytically  !
 ! D18   D(10,2,8,9)           179.3019         calculate D2E/DX2 analytically  !
 ! D19   D(10,2,8,22)            9.2637         calculate D2E/DX2 analytically  !
 ! D20   D(12,2,8,9)           -29.7881         calculate D2E/DX2 analytically  !
 ! D21   D(12,2,8,22)          160.1737         calculate D2E/DX2 analytically  !
 ! D22   D(11,3,9,8)          -173.2223         calculate D2E/DX2 analytically  !
 ! D23   D(11,3,9,17)           -2.3378         calculate D2E/DX2 analytically  !
 ! D24   D(13,3,9,8)            18.8232         calculate D2E/DX2 analytically  !
 ! D25   D(13,3,9,17)         -170.2922         calculate D2E/DX2 analytically  !
 ! D26   D(1,4,14,15)           13.3557         calculate D2E/DX2 analytically  !
 ! D27   D(1,4,14,16)         -168.8918         calculate D2E/DX2 analytically  !
 ! D28   D(7,4,14,15)         -171.7753         calculate D2E/DX2 analytically  !
 ! D29   D(7,4,14,16)            5.9773         calculate D2E/DX2 analytically  !
 ! D30   D(2,8,9,3)              5.4452         calculate D2E/DX2 analytically  !
 ! D31   D(2,8,9,17)          -165.4101         calculate D2E/DX2 analytically  !
 ! D32   D(22,8,9,3)           174.8306         calculate D2E/DX2 analytically  !
 ! D33   D(22,8,9,17)            3.9753         calculate D2E/DX2 analytically  !
 ! D34   D(3,9,17,18)         -171.1551         calculate D2E/DX2 analytically  !
 ! D35   D(8,9,17,18)            0.0            calculate D2E/DX2 analytically  !
 ! D36   D(9,17,18,19)         171.7571         calculate D2E/DX2 analytically  !
 ! D37   D(9,17,18,20)         -68.2429         calculate D2E/DX2 analytically  !
 ! D38   D(9,17,18,21)          51.7571         calculate D2E/DX2 analytically  !
 --------------------------------------------------------------------------------
 Trust Radius=3.00D-01 FncErr=1.00D-07 GrdErr=1.00D-06 EigMax=2.50D+02 EigMin=1.00D-04
 Number of steps in this run=    103 maximum allowed number of steps=    132.
 Search for a saddle point of order  1.
 GradGradGradGradGradGradGradGradGradGradGradGradGradGradGradGradGradGrad

                          Input orientation:                          
 ---------------------------------------------------------------------
 Center     Atomic      Atomic             Coordinates (Angstroms)
 Number     Number       Type             X           Y           Z
 ---------------------------------------------------------------------
      1          6           0        0.953839   -1.270069    0.758124
      2          6           0       -0.248610   -1.002944   -0.913206
      3          6           0        0.326401    1.748529   -0.337817
      4          6           0        1.614509   -0.099908    1.096694
      5          1           0        0.204599   -1.681339    1.427376
      6          1           0        1.513896   -1.996538    0.175278
      7          1           0        1.334597    0.488755    1.962683
      8          6           0       -1.220918   -0.126166   -0.473179
      9          6           0       -0.911128    1.226481   -0.138504
     10          1           0       -0.563708   -2.017603   -1.136051
     11          1           0        0.563144    2.743452    0.026394
     12          1           0        0.611688   -0.636620   -1.462356
     13          1           0        1.047155    1.301254   -1.010696
     14          6           0        2.785056    0.284398    0.332859
     15          8           0        3.095556   -0.225878   -0.735817
     16          1           0        3.393168    1.114764    0.747878
     17          8           0       -1.866482    1.992639    0.599874
     18          6           0       -3.017430    1.188111    0.869972
     19          1           0       -3.667427    1.709409    1.541278
     20          1           0       -3.535383    0.988063   -0.044689
     21          1           0       -2.710677    0.264871    1.315429
     22          1           0       -2.169212   -0.565568   -0.243910
 ---------------------------------------------------------------------
                    Distance matrix (angstroms):
                    1          2          3          4          5
     1  C    0.000000
     2  C    2.076194   0.000000
     3  C    3.272109   2.869201   0.000000
     4  C    1.385782   2.885548   2.670911   0.000000
     5  H    1.085542   2.478698   3.859370   2.144323   0.000000
     6  H    1.086798   2.297489   3.962188   2.111004   1.838847
     7  H    2.165502   3.605891   2.809945   1.083887   2.504547
     8  C    2.748489   1.381212   2.434543   3.241117   2.839502
     9  C    3.242654   2.451414   1.357843   3.108676   3.486007
    10  H    2.539617   1.085578   3.951357   3.661603   2.697133
    11  H    4.098344   3.946806   1.085619   3.214904   4.655113
    12  H    2.334279   1.084376   2.652341   2.800437   3.099631
    13  H    3.122360   2.645343   1.082731   2.593499   3.943343
    14  C    2.439380   3.523217   2.939127   1.449591   3.423572
    15  O    2.812320   3.437840   3.424165   2.359548   3.892994
    16  H    3.411431   4.528403   3.314431   2.181909   4.294983
    17  O    4.315613   3.725646   2.397413   4.091806   4.297935
    18  C    4.671845   3.955605   3.599170   4.813029   4.350392
    19  H    5.553982   5.006961   4.413977   5.600904   5.148080
    20  H    5.088888   3.939709   3.946848   5.385891   4.824950
    21  H    4.011896   3.554708   3.762753   4.346050   3.507008
    22  H    3.354675   2.080377   3.404695   4.041114   3.110164
                    6          7          8          9         10
     6  H    0.000000
     7  H    3.066536   0.000000
     8  C    3.376092   3.583603   0.000000
     9  C    4.045621   3.162674   1.427456   0.000000
    10  H    2.456922   4.414470   2.109232   3.411727   0.000000
    11  H    4.836693   3.070507   3.415722   2.121761   5.028789
    12  H    2.311969   3.676950   2.144173   2.746397   1.842592
    13  H    3.535508   3.095765   2.733241   2.145037   3.691261
    14  C    2.615979   2.191328   4.106834   3.843368   4.321010
    15  O    2.543026   3.300542   4.325606   4.303446   4.093981
    16  H    3.679638   2.470901   4.931600   4.396034   5.386815
    17  O    5.246024   3.790227   2.461205   1.430000   4.559901
    18  C    5.581890   4.541283   2.599775   2.335595   4.507935
    19  H    6.515068   5.166026   3.662346   3.263751   5.540016
    20  H    5.869535   5.291082   2.604200   2.636732   4.365312
    21  H    4.925539   4.102841   2.360384   2.505393   3.978558
    22  H    3.973497   4.272860   1.070000   2.192105   2.341359
                   11         12         13         14         15
    11  H    0.000000
    12  H    3.693727   0.000000
    13  H    1.841129   2.036905   0.000000
    14  C    3.328327   2.965569   2.420627   0.000000
    15  O    3.976304   2.620337   2.569754   1.224279   0.000000
    16  H    3.343980   3.960948   2.937880   1.109752   2.021694
    17  O    2.606853   4.160182   3.400180   4.962478   5.597116
    18  C    3.993898   4.684004   4.480018   5.896951   6.476613
    19  H    4.611057   5.730314   5.376472   6.717549   7.393811
    20  H    4.459189   4.674138   4.693710   6.370685   6.776478
    21  H    4.303822   4.423448   4.539411   5.582912   6.177442
    22  H    4.299820   3.036950   3.797104   5.059632   5.298598
                   16         17         18         19         20
    16  H    0.000000
    17  O    5.334462   0.000000
    18  C    6.412180   1.430000   0.000000
    19  H    7.129873   2.051796   1.070000   0.000000
    20  H    6.974886   2.051796   1.070000   1.747303   0.000000
    21  H    6.188809   2.051796   1.070000   1.747303   1.747303
    22  H    5.894678   2.710727   2.244013   3.256849   2.078432
                   21         22
    21  H    0.000000
    22  H    1.847797   0.000000
 Stoichiometry    C8H12O2
 Framework group  C1[X(C8H12O2)]
 Deg. of freedom    60
 Full point group                 C1      NOp   1
 Largest Abelian subgroup         C1      NOp   1
 Largest concise Abelian subgroup C1      NOp   1
                         Standard orientation:                         
 ---------------------------------------------------------------------
 Center     Atomic      Atomic             Coordinates (Angstroms)
 Number     Number       Type             X           Y           Z
 ---------------------------------------------------------------------
      1          6           0       -1.244273    1.169725    0.938827
      2          6           0       -0.175833    1.544831   -0.801379
      3          6           0        0.159329   -1.302213   -0.681705
      4          6           0       -1.488109   -0.184980    1.099165
      5          1           0       -0.595483    1.688992    1.637279
      6          1           0       -2.048015    1.763934    0.512160
      7          1           0       -0.965784   -0.779753    1.839593
      8          6           0        1.051358    0.959634   -0.557880
      9          6           0        1.195147   -0.456221   -0.446935
     10          1           0       -0.202592    2.628483   -0.860224
     11          1           0        0.267492   -2.364096   -0.483530
     12          1           0       -0.932550    1.015077   -1.369369
     13          1           0       -0.721171   -1.006577   -1.238146
     14          6           0       -2.553598   -0.796214    0.329462
     15          8           0       -3.099959   -0.254138   -0.622643
     16          1           0       -2.842810   -1.827193    0.620988
     17          8           0        2.400321   -0.987654    0.109873
     18          6           0        3.275425    0.085731    0.466156
     19          1           0        4.110900   -0.301192    1.011292
     20          1           0        3.622942    0.572134   -0.421281
     21          1           0        2.747233    0.789411    1.075045
     22          1           0        1.840258    1.633360   -0.295903
 ---------------------------------------------------------------------
 Rotational constants (GHZ):           2.5231128           0.7728588           0.7044551
 Standard basis: 6-31G(d) (6D, 7F)
 There are   174 symmetry adapted cartesian basis functions of A   symmetry.
 There are   174 symmetry adapted basis functions of A   symmetry.
   174 basis functions,   328 primitive gaussians,   174 cartesian basis functions
    38 alpha electrons       38 beta electrons
       nuclear repulsion energy       525.7260505371 Hartrees.
 NAtoms=   22 NActive=   22 NUniq=   22 SFac= 1.00D+00 NAtFMM=   60 NAOKFM=F Big=F
 Integral buffers will be    131072 words long.
 Raffenetti 2 integral format.
 Two-electron integral symmetry is turned on.
 One-electron integrals computed using PRISM.
 NBasis=   174 RedAO= T EigKep=  1.97D-03  NBF=   174
 NBsUse=   174 1.00D-06 EigRej= -1.00D+00 NBFU=   174
 ExpMin= 1.61D-01 ExpMax= 5.48D+03 ExpMxC= 8.25D+02 IAcc=3 IRadAn=         5 AccDes= 0.00D+00
 Harris functional with IExCor= 1009 and IRadAn=       5 diagonalized for initial guess.
 HarFok:  IExCor= 1009 AccDes= 0.00D+00 IRadAn=         5 IDoV= 1 UseB2=F ITyADJ=14
 ICtDFT=  3500011 ScaDFX=  1.000000  1.000000  1.000000  1.000000
 FoFCou: FMM=F IPFlag=           0 FMFlag=      100000 FMFlg1=           0
         NFxFlg=           0 DoJE=T BraDBF=F KetDBF=T FulRan=T
         wScrn=  0.000000 ICntrl=       500 IOpCl=  0 I1Cent=   200000004 NGrid=           0
         NMat0=    1 NMatS0=      1 NMatT0=    0 NMatD0=    1 NMtDS0=    0 NMtDT0=    0
 Petite list used in FoFCou.
 Requested convergence on RMS density matrix=1.00D-08 within 128 cycles.
 Requested convergence on MAX density matrix=1.00D-06.
 Requested convergence on             energy=1.00D-06.
 No special actions if energy rises.
 Integral accuracy reduced to 1.0D-05 until final iterations.
 Initial convergence to 1.0D-05 achieved.  Increase integral accuracy.
 SCF Done:  E(RM062X) =  -462.164927610     A.U. after   16 cycles
            NFock= 16  Conv=0.61D-08     -V/T= 2.0084
 DoSCS=F DFT=T ScalE2(SS,OS)=  1.000000  1.000000
 Range of M.O.s used for correlation:     1   174
 NBasis=   174 NAE=    38 NBE=    38 NFC=     0 NFV=     0
 NROrb=    174 NOA=    38 NOB=    38 NVA=   136 NVB=   136
 Symmetrizing basis deriv contribution to polar:
 IMax=3 JMax=2 DiffMx= 0.00D+00
 G2DrvN: will do    23 centers at a time, making    1 passes.
 Calling FoFCou, ICntrl=  3107 FMM=F I1Cent=   0 AccDes= 0.00D+00.
 End of G2Drv F.D. properties file   721 does not exist.
 End of G2Drv F.D. properties file   722 does not exist.
 End of G2Drv F.D. properties file   788 does not exist.
          IDoAtm=1111111111111111111111
          Differentiating once with respect to nuclear coordinates.
 CalDSu exits because no D1Ps are significant.
          There are    69 degrees of freedom in the 1st order CPHF.  IDoFFX=6 NUNeed=     0.
     63 vectors produced by pass  0 Test12= 7.49D-15 1.45D-09 XBig12= 7.09D-02 8.85D-02.
 AX will form    63 AO Fock derivatives at one time.
     63 vectors produced by pass  1 Test12= 7.49D-15 1.45D-09 XBig12= 9.22D-03 2.25D-02.
     63 vectors produced by pass  2 Test12= 7.49D-15 1.45D-09 XBig12= 1.30D-04 1.58D-03.
     63 vectors produced by pass  3 Test12= 7.49D-15 1.45D-09 XBig12= 8.35D-07 1.15D-04.
     63 vectors produced by pass  4 Test12= 7.49D-15 1.45D-09 XBig12= 3.33D-09 5.55D-06.
     63 vectors produced by pass  5 Test12= 7.49D-15 1.45D-09 XBig12= 8.98D-12 3.19D-07.
     32 vectors produced by pass  6 Test12= 7.49D-15 1.45D-09 XBig12= 2.38D-14 1.41D-08.
 InvSVY:  IOpt=1 It=  1 EMax= 4.44D-16
 Solved reduced A of dimension   410 with    69 vectors.
 End of Minotr F.D. properties file   721 does not exist.
 End of Minotr F.D. properties file   722 does not exist.
 End of Minotr F.D. properties file   788 does not exist.

 **********************************************************************

            Population analysis using the SCF Density.

 **********************************************************************

 Orbital symmetries:
       Occupied  (A) (A) (A) (A) (A) (A) (A) (A) (A) (A) (A) (A)
                 (A) (A) (A) (A) (A) (A) (A) (A) (A) (A) (A) (A)
                 (A) (A) (A) (A) (A) (A) (A) (A) (A) (A) (A) (A)
                 (A) (A)
       Virtual   (A) (A) (A) (A) (A) (A) (A) (A) (A) (A) (A) (A)
                 (A) (A) (A) (A) (A) (A) (A) (A) (A) (A) (A) (A)
                 (A) (A) (A) (A) (A) (A) (A) (A) (A) (A) (A) (A)
                 (A) (A) (A) (A) (A) (A) (A) (A) (A) (A) (A) (A)
                 (A) (A) (A) (A) (A) (A) (A) (A) (A) (A) (A) (A)
                 (A) (A) (A) (A) (A) (A) (A) (A) (A) (A) (A) (A)
                 (A) (A) (A) (A) (A) (A) (A) (A) (A) (A) (A) (A)
                 (A) (A) (A) (A) (A) (A) (A) (A) (A) (A) (A) (A)
                 (A) (A) (A) (A) (A) (A) (A) (A) (A) (A) (A) (A)
                 (A) (A) (A) (A) (A) (A) (A) (A) (A) (A) (A) (A)
                 (A) (A) (A) (A) (A) (A) (A) (A) (A) (A) (A) (A)
                 (A) (A) (A) (A)
 The electronic state is 1-A.
 Alpha  occ. eigenvalues --  -19.66620 -19.61968 -10.62056 -10.61385 -10.59101
 Alpha  occ. eigenvalues --  -10.56926 -10.56741 -10.56249 -10.55391 -10.54948
 Alpha  occ. eigenvalues --   -1.16624  -1.14297  -0.92285  -0.87167  -0.84309
 Alpha  occ. eigenvalues --   -0.78275  -0.73974  -0.71934  -0.61737  -0.60767
 Alpha  occ. eigenvalues --   -0.59940  -0.57469  -0.55363  -0.54680  -0.50743
 Alpha  occ. eigenvalues --   -0.49794  -0.48018  -0.47383  -0.47050  -0.45186
 Alpha  occ. eigenvalues --   -0.44766  -0.43322  -0.41971  -0.40058  -0.38121
 Alpha  occ. eigenvalues --   -0.31369  -0.28894  -0.26779
 Alpha virt. eigenvalues --   -0.03445   0.03118   0.10788   0.12839   0.14278
 Alpha virt. eigenvalues --    0.15680   0.16309   0.17417   0.18344   0.20097
 Alpha virt. eigenvalues --    0.20693   0.21556   0.21813   0.22397   0.24082
 Alpha virt. eigenvalues --    0.25931   0.28430   0.30730   0.32482   0.34132
 Alpha virt. eigenvalues --    0.37188   0.39713   0.40887   0.45283   0.52897
 Alpha virt. eigenvalues --    0.56367   0.56663   0.58122   0.59528   0.60123
 Alpha virt. eigenvalues --    0.61472   0.62609   0.63397   0.65276   0.66601
 Alpha virt. eigenvalues --    0.68671   0.68855   0.71162   0.72597   0.77250
 Alpha virt. eigenvalues --    0.79657   0.82165   0.82629   0.85173   0.87295
 Alpha virt. eigenvalues --    0.88746   0.89807   0.92406   0.92921   0.94399
 Alpha virt. eigenvalues --    0.94495   0.95159   0.95624   0.97771   1.00236
 Alpha virt. eigenvalues --    1.01710   1.02557   1.04345   1.05322   1.06223
 Alpha virt. eigenvalues --    1.09862   1.11295   1.14394   1.16203   1.18762
 Alpha virt. eigenvalues --    1.21529   1.21926   1.25746   1.26520   1.29317
 Alpha virt. eigenvalues --    1.35262   1.38631   1.40641   1.43693   1.45166
 Alpha virt. eigenvalues --    1.52581   1.54635   1.56321   1.60057   1.60918
 Alpha virt. eigenvalues --    1.63947   1.70835   1.74140   1.75961   1.80461
 Alpha virt. eigenvalues --    1.82551   1.89252   1.89778   1.90398   1.92230
 Alpha virt. eigenvalues --    1.94190   1.96959   1.99307   2.03795   2.05845
 Alpha virt. eigenvalues --    2.06752   2.12062   2.13103   2.13511   2.17603
 Alpha virt. eigenvalues --    2.19837   2.21299   2.23314   2.25635   2.29669
 Alpha virt. eigenvalues --    2.30657   2.33614   2.37289   2.38345   2.42944
 Alpha virt. eigenvalues --    2.44081   2.49310   2.55009   2.56889   2.58511
 Alpha virt. eigenvalues --    2.60776   2.62728   2.67723   2.71367   2.76099
 Alpha virt. eigenvalues --    2.81444   2.84882   2.97079   3.05744   3.09437
 Alpha virt. eigenvalues --    3.15631   3.95767   4.08663   4.18022   4.21834
 Alpha virt. eigenvalues --    4.28681   4.32390   4.35646   4.39195   4.54607
 Alpha virt. eigenvalues --    4.61819
          Condensed to atoms (all electrons):
               1          2          3          4          5          6
     1  C    5.170549   0.086455  -0.007902   0.492227   0.373692   0.385058
     2  C    0.086455   5.192924  -0.019675  -0.014537  -0.013027  -0.019442
     3  C   -0.007902  -0.019675   5.257761   0.051700   0.000514   0.000833
     4  C    0.492227  -0.014537   0.051700   5.269116  -0.029345  -0.044843
     5  H    0.373692  -0.013027   0.000514  -0.029345   0.520979  -0.030480
     6  H    0.385058  -0.019442   0.000833  -0.044843  -0.030480   0.488726
     7  H   -0.040381   0.000442  -0.002574   0.365485  -0.004002   0.003864
     8  C   -0.027323   0.528292  -0.076449  -0.022114  -0.003722   0.000686
     9  C   -0.014580  -0.032031   0.596646  -0.004347  -0.000229   0.000351
    10  H   -0.009253   0.373146   0.000456   0.001501  -0.000811  -0.000689
    11  H    0.000281   0.000069   0.356872  -0.000405  -0.000003  -0.000003
    12  H   -0.020310   0.371131   0.001386  -0.016310   0.001943  -0.004609
    13  H   -0.004928   0.004192   0.357180  -0.018296   0.000001  -0.000049
    14  C   -0.026874  -0.003321  -0.000345   0.355401   0.003916  -0.006901
    15  O    0.003388  -0.005628  -0.007966  -0.099546   0.000376   0.010004
    16  H    0.008632  -0.000234   0.000541  -0.114276  -0.000077   0.000604
    17  O    0.000125   0.003610  -0.059598  -0.000189  -0.000026  -0.000001
    18  C    0.000036   0.000396   0.003765   0.000087  -0.000027   0.000001
    19  H   -0.000000  -0.000028  -0.000099   0.000000   0.000000   0.000000
    20  H    0.000035   0.000265  -0.000050   0.000004  -0.000005  -0.000000
    21  H   -0.000377   0.000164   0.000241  -0.000052   0.000258   0.000000
    22  H    0.000452  -0.050088   0.005202   0.000045   0.000707  -0.000068
               7          8          9         10         11         12
     1  C   -0.040381  -0.027323  -0.014580  -0.009253   0.000281  -0.020310
     2  C    0.000442   0.528292  -0.032031   0.373146   0.000069   0.371131
     3  C   -0.002574  -0.076449   0.596646   0.000456   0.356872   0.001386
     4  C    0.365485  -0.022114  -0.004347   0.001501  -0.000405  -0.016310
     5  H   -0.004002  -0.003722  -0.000229  -0.000811  -0.000003   0.001943
     6  H    0.003864   0.000686   0.000351  -0.000689  -0.000003  -0.004609
     7  H    0.525916   0.000471  -0.000797  -0.000029   0.000140   0.000017
     8  C    0.000471   5.045187   0.464190  -0.029372   0.005971  -0.033690
     9  C   -0.000797   0.464190   4.453687   0.003611  -0.018638  -0.008606
    10  H   -0.000029  -0.029372   0.003611   0.514171  -0.000003  -0.028210
    11  H    0.000140   0.005971  -0.018638  -0.000003   0.499740  -0.000022
    12  H    0.000017  -0.033690  -0.008606  -0.028210  -0.000022   0.489684
    13  H   -0.000007  -0.009171  -0.020147  -0.000014  -0.029145   0.007196
    14  C   -0.026005  -0.000427   0.000119   0.000056   0.000110   0.000692
    15  O    0.002875   0.000277   0.000064  -0.000004   0.000034   0.015202
    16  H    0.001268  -0.000009   0.000072   0.000001   0.000146   0.000348
    17  O    0.000160  -0.057824   0.274934  -0.000043  -0.000960  -0.000019
    18  C    0.000005  -0.013954  -0.055730   0.000017   0.000065   0.000004
    19  H   -0.000000   0.001237   0.004775  -0.000000  -0.000013   0.000001
    20  H    0.000001   0.000322  -0.007364  -0.000006   0.000023  -0.000015
    21  H   -0.000019   0.001538  -0.012691   0.000040   0.000032   0.000002
    22  H   -0.000008   0.381398  -0.044758  -0.006431  -0.000121   0.004114
              13         14         15         16         17         18
     1  C   -0.004928  -0.026874   0.003388   0.008632   0.000125   0.000036
     2  C    0.004192  -0.003321  -0.005628  -0.000234   0.003610   0.000396
     3  C    0.357180  -0.000345  -0.007966   0.000541  -0.059598   0.003765
     4  C   -0.018296   0.355401  -0.099546  -0.114276  -0.000189   0.000087
     5  H    0.000001   0.003916   0.000376  -0.000077  -0.000026  -0.000027
     6  H   -0.000049  -0.006901   0.010004   0.000604  -0.000001   0.000001
     7  H   -0.000007  -0.026005   0.002875   0.001268   0.000160   0.000005
     8  C   -0.009171  -0.000427   0.000277  -0.000009  -0.057824  -0.013954
     9  C   -0.020147   0.000119   0.000064   0.000072   0.274934  -0.055730
    10  H   -0.000014   0.000056  -0.000004   0.000001  -0.000043   0.000017
    11  H   -0.029145   0.000110   0.000034   0.000146  -0.000960   0.000065
    12  H    0.007196   0.000692   0.015202   0.000348  -0.000019   0.000004
    13  H    0.491824   0.005384   0.009214   0.000067   0.002258  -0.000159
    14  C    0.005384   4.585155   0.526736   0.374541   0.000001   0.000000
    15  O    0.009214   0.526736   8.064682  -0.057404  -0.000000   0.000000
    16  H    0.000067   0.374541  -0.057404   0.662139  -0.000000   0.000000
    17  O    0.002258   0.000001  -0.000000  -0.000000   8.260096   0.232053
    18  C   -0.000159   0.000000   0.000000   0.000000   0.232053   4.923543
    19  H    0.000003  -0.000000  -0.000000   0.000000  -0.028240   0.386991
    20  H    0.000006  -0.000000  -0.000000  -0.000000  -0.038364   0.384655
    21  H   -0.000015   0.000001   0.000000   0.000000  -0.036784   0.378630
    22  H    0.000015  -0.000006  -0.000001  -0.000000  -0.008142   0.001342
              19         20         21         22
     1  C   -0.000000   0.000035  -0.000377   0.000452
     2  C   -0.000028   0.000265   0.000164  -0.050088
     3  C   -0.000099  -0.000050   0.000241   0.005202
     4  C    0.000000   0.000004  -0.000052   0.000045
     5  H    0.000000  -0.000005   0.000258   0.000707
     6  H    0.000000  -0.000000   0.000000  -0.000068
     7  H   -0.000000   0.000001  -0.000019  -0.000008
     8  C    0.001237   0.000322   0.001538   0.381398
     9  C    0.004775  -0.007364  -0.012691  -0.044758
    10  H   -0.000000  -0.000006   0.000040  -0.006431
    11  H   -0.000013   0.000023   0.000032  -0.000121
    12  H    0.000001  -0.000015   0.000002   0.004114
    13  H    0.000003   0.000006  -0.000015   0.000015
    14  C   -0.000000  -0.000000   0.000001  -0.000006
    15  O   -0.000000  -0.000000   0.000000  -0.000001
    16  H    0.000000  -0.000000   0.000000  -0.000000
    17  O   -0.028240  -0.038364  -0.036784  -0.008142
    18  C    0.386991   0.384655   0.378630   0.001342
    19  H    0.507114  -0.031463  -0.028107   0.000242
    20  H   -0.031463   0.576150  -0.052619   0.000562
    21  H   -0.028107  -0.052619   0.589910  -0.000692
    22  H    0.000242   0.000562  -0.000692   0.546561
 Mulliken charges:
               1
     1  C   -0.369002
     2  C   -0.403073
     3  C   -0.458441
     4  C   -0.171305
     5  H    0.179369
     6  H    0.216958
     7  H    0.173181
     8  C   -0.155513
     9  C    0.421467
    10  H    0.181867
    11  H    0.185831
    12  H    0.220072
    13  H    0.204591
    14  C    0.211766
    15  O   -0.462303
    16  H    0.123642
    17  O   -0.543048
    18  C   -0.241723
    19  H    0.187589
    20  H    0.167862
    21  H    0.160539
    22  H    0.169674
 Sum of Mulliken charges =  -0.00000
 Mulliken charges with hydrogens summed into heavy atoms:
               1
     1  C    0.027325
     2  C   -0.001134
     3  C   -0.068019
     4  C    0.001876
     8  C    0.014161
     9  C    0.421467
    14  C    0.335408
    15  O   -0.462303
    17  O   -0.543048
    18  C    0.274267
 APT charges:
               1
     1  C   -0.964498
     2  C   -0.855661
     3  C   -0.820150
     4  C   -0.406938
     5  H    0.425747
     6  H    0.558038
     7  H    0.368801
     8  C   -0.475278
     9  C    0.077708
    10  H    0.600192
    11  H    0.539571
    12  H    0.340321
    13  H    0.336094
    14  C   -0.510508
    15  O   -0.098242
    16  H    0.495856
    17  O   -0.308103
    18  C   -1.200436
    19  H    0.783194
    20  H    0.415887
    21  H    0.162911
    22  H    0.535495
 Sum of APT charges =  -0.00000
 APT charges with hydrogens summed into heavy atoms:
               1
     1  C    0.019286
     2  C    0.084852
     3  C    0.055516
     4  C   -0.038137
     8  C    0.060217
     9  C    0.077708
    14  C   -0.014653
    15  O   -0.098242
    17  O   -0.308103
    18  C    0.161557
 Electronic spatial extent (au):  <R**2>=           1713.4095
 Charge=             -0.0000 electrons
 Dipole moment (field-independent basis, Debye):
    X=              2.7339    Y=              1.7318    Z=              1.7030  Tot=              3.6570
 Quadrupole moment (field-independent basis, Debye-Ang):
   XX=            -66.2700   YY=            -55.8752   ZZ=            -61.5694
   XY=              4.9453   XZ=             -1.9975   YZ=             -0.4780
 Traceless Quadrupole moment (field-independent basis, Debye-Ang):
   XX=             -5.0318   YY=              5.3630   ZZ=             -0.3312
   XY=              4.9453   XZ=             -1.9975   YZ=             -0.4780
 Octapole moment (field-independent basis, Debye-Ang**2):
  XXX=             59.2116  YYY=              0.7044  ZZZ=              2.2649  XYY=             -9.0994
  XXY=              8.4814  XXZ=             19.5904  XZZ=              2.9741  YZZ=             -1.6060
  YYZ=             -0.0485  XYZ=              2.9300
 Hexadecapole moment (field-independent basis, Debye-Ang**3):
 XXXX=          -1543.9112 YYYY=           -401.8073 ZZZZ=           -261.3321 XXXY=             18.5682
 XXXZ=            -11.5818 YYYX=              1.9757 YYYZ=             -1.7713 ZZZX=             19.8410
 ZZZY=             -0.8241 XXYY=           -322.4194 XXZZ=           -304.0876 YYZZ=           -115.4703
 XXYZ=            -10.5546 YYXZ=              2.2925 ZZXY=             -0.8587
 N-N= 5.257260505371D+02 E-N=-2.127462723363D+03  KE= 4.583255813498D+02
  Exact polarizability:       0.000       0.000       0.000       0.000       0.000       0.000
 Approx polarizability:     156.768       6.969     136.560      -5.453      -4.223      95.175
 Calling FoFJK, ICntrl=    100127 FMM=F ISym2X=0 I1Cent= 0 IOpClX= 0 NMat=1 NMatS=1 NMatT=0.
 ***** Axes restored to original set *****
 -------------------------------------------------------------------
 Center     Atomic                   Forces (Hartrees/Bohr)
 Number     Number              X              Y              Z
 -------------------------------------------------------------------
      1        6           0.006613710   -0.000087502    0.006893405
      2        6          -0.006712866    0.009348537   -0.002699361
      3        6           0.003640259    0.006393694    0.003049842
      4        6          -0.009976512   -0.006062196   -0.001065358
      5        1           0.000733801    0.000633266   -0.000033044
      6        1          -0.000363939    0.000077683   -0.000769290
      7        1          -0.000091842    0.000196559   -0.000226371
      8        6           0.017644458   -0.004904124   -0.011800405
      9        6          -0.023045273    0.010087089    0.017375983
     10        1           0.002431180   -0.000945910   -0.000641430
     11        1          -0.001820023   -0.000118563    0.000905376
     12        1           0.004092716   -0.002647578    0.000352298
     13        1          -0.004178499   -0.000473854   -0.001089380
     14        6           0.005871361    0.001798838   -0.006468328
     15        8          -0.001462791    0.001189766    0.004224129
     16        1          -0.000271792   -0.000677591   -0.000212972
     17        8           0.015934832   -0.029915293   -0.017912219
     18        6           0.013745448    0.021662558    0.002688809
     19        1          -0.005331312    0.012531655    0.008634250
     20        1          -0.011682752   -0.004363981   -0.013668737
     21        1          -0.001197204   -0.011930796    0.012227234
     22        1          -0.004572959   -0.001792258    0.000235567
 -------------------------------------------------------------------
 Cartesian Forces:  Max     0.029915293 RMS     0.008750434
 FormGI is forming the generalized inverse of G from B-inverse, IUseBI=4.

 GradGradGradGradGradGradGradGradGradGradGradGradGradGradGradGradGradGrad
 Berny optimization.
 Internal  Forces:  Max     0.081139161 RMS     0.011198326
 Search for a saddle point.
 Step number   1 out of a maximum of  103
 All quantities printed in internal units (Hartrees-Bohrs-Radians)
 Swapping is turned off.
 Second derivative matrix not updated -- analytic derivatives used.
 ITU=  0
     Eigenvalues ---   -0.04170  -0.00967   0.00415   0.00881   0.01029
     Eigenvalues ---    0.01241   0.02082   0.02475   0.02836   0.03070
     Eigenvalues ---    0.03247   0.03650   0.03767   0.04148   0.04249
     Eigenvalues ---    0.05106   0.05832   0.06674   0.07278   0.08059
     Eigenvalues ---    0.09025   0.09452   0.09680   0.10420   0.10811
     Eigenvalues ---    0.11350   0.11747   0.13196   0.13815   0.14258
     Eigenvalues ---    0.15732   0.17699   0.18107   0.19034   0.19418
     Eigenvalues ---    0.23970   0.24159   0.27996   0.29942   0.31850
     Eigenvalues ---    0.34579   0.36319   0.36921   0.36957   0.37058
     Eigenvalues ---    0.37353   0.37450   0.37502   0.37877   0.39226
     Eigenvalues ---    0.39606   0.39964   0.40577   0.41462   0.48747
     Eigenvalues ---    0.53111   0.60056   0.65050   0.84588   1.20813
 Eigenvectors required to have negative eigenvalues:
                          R1        D24       D14       D20       D25
   1                    0.68986  -0.27013  -0.23632   0.23135  -0.20383
                          A3        D13       D21       R13       R2
   1                   -0.18723   0.18619   0.14914   0.13486  -0.13298
 RFO step:  Lambda0=2.789128424D-04 Lambda=-2.14432800D-02.
 Linear search not attempted -- option 19 set.
 Iteration  1 RMS(Cart)=  0.13353937 RMS(Int)=  0.03715891
 Iteration  2 RMS(Cart)=  0.09327979 RMS(Int)=  0.00617935
 Iteration  3 RMS(Cart)=  0.01375626 RMS(Int)=  0.00034070
 Iteration  4 RMS(Cart)=  0.00020187 RMS(Int)=  0.00032346
 Iteration  5 RMS(Cart)=  0.00000004 RMS(Int)=  0.00032346
 Variable       Old X    -DE/DX   Delta X   Delta X   Delta X     New X
                                 (Linear)    (Quad)   (Total)
    R1        3.92344   0.00287   0.00000   0.01381   0.01381   3.93725
    R2        2.61875  -0.00674   0.00000  -0.00649  -0.00649   2.61226
    R3        2.05138  -0.00077   0.00000  -0.00243  -0.00243   2.04895
    R4        2.05375   0.00017   0.00000   0.00009   0.00009   2.05384
    R5        2.61011  -0.00098   0.00000  -0.00050  -0.00050   2.60962
    R6        2.05145   0.00031   0.00000   0.00133   0.00133   2.05278
    R7        2.04917   0.00217   0.00000   0.00468   0.00468   2.05385
    R8        2.56595  -0.00034   0.00000   0.01961   0.01961   2.58556
    R9        2.05152  -0.00020   0.00000  -0.00128  -0.00128   2.05024
   R10        2.04607  -0.00191   0.00000  -0.00678  -0.00678   2.03929
   R11        2.04825  -0.00005   0.00000  -0.00034  -0.00034   2.04791
   R12        2.73933   0.00525   0.00000   0.01861   0.01861   2.75794
   R13        2.69750   0.00351   0.00000  -0.01531  -0.01531   2.68219
   R14        2.02201   0.00484   0.00000   0.02355   0.02355   2.04556
   R15        2.70231  -0.01825   0.00000  -0.13057  -0.13057   2.57174
   R16        2.31355  -0.00455   0.00000  -0.00801  -0.00801   2.30555
   R17        2.09713  -0.00074   0.00000  -0.00168  -0.00168   2.09544
   R18        2.70231  -0.00461   0.00000  -0.04026  -0.04026   2.66205
   R19        2.02201   0.01476   0.00000   0.03291   0.03291   2.05491
   R20        2.02201   0.01816   0.00000   0.04665   0.04665   2.06866
   R21        2.02201   0.01504   0.00000   0.04337   0.04337   2.06538
    A1        1.94351  -0.00774   0.00000  -0.04597  -0.04606   1.89745
    A2        1.71661   0.00357   0.00000   0.01432   0.01401   1.73062
    A3        1.52352   0.00180   0.00000   0.02022   0.02037   1.54389
    A4        2.09248   0.00045   0.00000  -0.00379  -0.00393   2.08855
    A5        2.03732   0.00125   0.00000   0.00851   0.00877   2.04609
    A6        2.01868  -0.00022   0.00000   0.00394   0.00368   2.02236
    A7        1.80587  -0.00079   0.00000   0.00576   0.00577   1.81164
    A8        1.78554  -0.00076   0.00000  -0.01415  -0.01418   1.77136
    A9        1.56245  -0.00155   0.00000  -0.01363  -0.01366   1.54878
   A10        2.04248   0.00154   0.00000   0.01687   0.01685   2.05933
   A11        2.10062   0.00165   0.00000   0.01543   0.01540   2.11602
   A12        2.02870  -0.00175   0.00000  -0.02276  -0.02304   2.00566
   A13        2.09654  -0.00064   0.00000  -0.01406  -0.01510   2.08144
   A14        2.14016  -0.00334   0.00000  -0.02472  -0.02576   2.11440
   A15        2.02853   0.00354   0.00000   0.02451   0.02342   2.05195
   A16        2.13020  -0.00008   0.00000   0.00069   0.00051   2.13071
   A17        2.07157   0.00041   0.00000   0.00257   0.00240   2.07396
   A18        2.07779  -0.00031   0.00000  -0.00599  -0.00616   2.07163
   A19        2.12168  -0.00620   0.00000  -0.00692  -0.00713   2.11455
   A20        2.01691   0.00293   0.00000   0.03340   0.03310   2.05001
   A21        2.13085   0.00327   0.00000  -0.03237  -0.03247   2.09838
   A22        2.12668  -0.01381   0.00000  -0.01035  -0.01044   2.11624
   A23        2.06996  -0.02994   0.00000  -0.04858  -0.04862   2.02134
   A24        2.07575   0.04419   0.00000   0.05489   0.05466   2.13041
   A25        2.15827  -0.00108   0.00000  -0.00392  -0.00393   2.15434
   A26        2.03063   0.00059   0.00000  -0.00093  -0.00094   2.02969
   A27        2.09363   0.00050   0.00000   0.00504   0.00503   2.09866
   A28        1.91114   0.08114   0.00000   0.12188   0.12188   2.03302
   A29        1.91063  -0.01437   0.00000  -0.05591  -0.05569   1.85494
   A30        1.91063   0.00700   0.00000   0.03052   0.03014   1.94077
   A31        1.91063   0.00967   0.00000   0.04058   0.04021   1.95085
   A32        1.91063  -0.00032   0.00000   0.00953   0.00973   1.92036
   A33        1.91063  -0.00247   0.00000  -0.01839  -0.01816   1.89247
   A34        1.91063   0.00049   0.00000  -0.00633  -0.00719   1.90345
    D1       -1.15835   0.00098   0.00000   0.02131   0.02123  -1.13712
    D2        2.99489  -0.00009   0.00000   0.00624   0.00625   3.00115
    D3        0.95659   0.00216   0.00000   0.03435   0.03420   0.99079
    D4        1.05374  -0.00004   0.00000   0.00357   0.00348   1.05722
    D5       -1.07620  -0.00110   0.00000  -0.01150  -0.01150  -1.08770
    D6       -3.11450   0.00114   0.00000   0.01661   0.01645  -3.09805
    D7        3.07042   0.00005   0.00000   0.01064   0.01079   3.08121
    D8        0.94048  -0.00102   0.00000  -0.00443  -0.00419   0.93628
    D9       -1.09782   0.00123   0.00000   0.02368   0.02376  -1.07407
   D10        1.86708  -0.00001   0.00000  -0.00096  -0.00078   1.86631
   D11       -1.36688   0.00026   0.00000  -0.03608  -0.03593  -1.40282
   D12       -0.12035   0.00111   0.00000   0.01929   0.01920  -0.10115
   D13        2.92887   0.00137   0.00000  -0.01582  -0.01596   2.91291
   D14       -2.70475  -0.00161   0.00000   0.00160   0.00157  -2.70318
   D15        0.34447  -0.00135   0.00000  -0.03352  -0.03359   0.31088
   D16        1.18159   0.00038   0.00000  -0.01066  -0.01095   1.17064
   D17       -1.78614   0.00002   0.00000   0.02934   0.02959  -1.75654
   D18        3.12941  -0.00035   0.00000  -0.01636  -0.01663   3.11278
   D19        0.16168  -0.00070   0.00000   0.02364   0.02392   0.18560
   D20       -0.51990   0.00220   0.00000  -0.00278  -0.00304  -0.52294
   D21        2.79556   0.00185   0.00000   0.03722   0.03751   2.83307
   D22       -3.02330  -0.00365   0.00000   0.00650   0.00612  -3.01718
   D23       -0.04080   0.00354   0.00000  -0.01817  -0.01754  -0.05834
   D24        0.32853  -0.00153   0.00000   0.08610   0.08546   0.41399
   D25       -2.97216   0.00565   0.00000   0.06143   0.06180  -2.91036
   D26        0.23310  -0.00055   0.00000   0.00421   0.00417   0.23727
   D27       -2.94772   0.00004   0.00000   0.00973   0.00969  -2.93803
   D28       -2.99804  -0.00028   0.00000  -0.02949  -0.02944  -3.02749
   D29        0.10432   0.00030   0.00000  -0.02397  -0.02392   0.08040
   D30        0.09504   0.00113   0.00000  -0.01267  -0.01347   0.08156
   D31       -2.88695   0.00048   0.00000   0.02123   0.02119  -2.86576
   D32        3.05137   0.00139   0.00000  -0.04855  -0.04851   3.00286
   D33        0.06938   0.00074   0.00000  -0.01465  -0.01384   0.05554
   D34       -2.98722   0.00324   0.00000  -0.40310  -0.40292   2.89305
   D35        0.00000   0.00507   0.00000  -0.43274  -0.43292  -0.43292
   D36        2.99773   0.00363   0.00000   0.25842   0.25839  -3.02706
   D37       -1.19106  -0.00128   0.00000   0.25455   0.25373  -0.93734
   D38        0.90333   0.00952   0.00000   0.29034   0.29119   1.19452
         Item               Value     Threshold  Converged?
 Maximum Force            0.081139     0.000450     NO 
 RMS     Force            0.011198     0.000300     NO 
 Maximum Displacement     1.052802     0.001800     NO 
 RMS     Displacement     0.224263     0.001200     NO 
 Predicted change in Energy=-1.418542D-02
 GradGradGradGradGradGradGradGradGradGradGradGradGradGradGradGradGradGrad

                          Input orientation:                          
 ---------------------------------------------------------------------
 Center     Atomic      Atomic             Coordinates (Angstroms)
 Number     Number       Type             X           Y           Z
 ---------------------------------------------------------------------
      1          6           0        1.104108   -1.343690    0.712530
      2          6           0       -0.201836   -1.072170   -0.888020
      3          6           0        0.289601    1.645957   -0.205521
      4          6           0        1.665541   -0.123369    1.038862
      5          1           0        0.426515   -1.825865    1.408222
      6          1           0        1.690224   -2.008498    0.083458
      7          1           0        1.381977    0.420098    1.932538
      8          6           0       -1.197202   -0.268338   -0.368287
      9          6           0       -0.933240    1.072824    0.014036
     10          1           0       -0.454105   -2.098744   -1.138052
     11          1           0        0.494750    2.630255    0.202119
     12          1           0        0.622368   -0.651374   -1.457992
     13          1           0        0.948192    1.277706   -0.977015
     14          6           0        2.782846    0.372917    0.241810
     15          8           0        3.102071   -0.100520   -0.836363
     16          1           0        3.329004    1.246457    0.651949
     17          8           0       -1.785339    1.779424    0.805686
     18          6           0       -3.134531    1.374478    0.794822
     19          1           0       -3.678823    2.111787    1.380132
     20          1           0       -3.529308    1.340185   -0.225627
     21          1           0       -3.267796    0.395501    1.262143
     22          1           0       -2.122385   -0.746930   -0.073812
 ---------------------------------------------------------------------
                    Distance matrix (angstroms):
                    1          2          3          4          5
     1  C    0.000000
     2  C    2.083501   0.000000
     3  C    3.231753   2.845264   0.000000
     4  C    1.382348   2.846085   2.563633   0.000000
     5  H    1.084257   2.497120   3.830987   2.137781   0.000000
     6  H    1.086846   2.323871   3.924321   2.113556   1.839923
     7  H    2.162540   3.562426   2.695795   1.083707   2.496431
     8  C    2.760539   1.380949   2.429322   3.193178   2.866763
     9  C    3.237009   2.439191   1.368221   3.038883   3.492147
    10  H    2.534322   1.086283   3.930076   3.624081   2.708037
    11  H    4.052663   3.921936   1.084942   3.106982   4.616963
    12  H    2.328635   1.086853   2.637640   2.757042   3.103703
    13  H    3.122594   2.617709   1.079145   2.557609   3.948881
    14  C    2.446729   3.503302   2.834961   1.459439   3.427457
    15  O    2.817162   3.444209   3.370183   2.362332   3.895328
    16  H    3.415069   4.496039   3.183209   2.189345   4.293665
    17  O    4.255751   3.675283   2.312083   3.947602   4.272406
    18  C    5.035997   4.173576   3.577578   5.034262   4.826955
    19  H    5.938219   5.231781   4.298800   5.802983   5.688558
    20  H    5.436163   4.162966   3.831184   5.543228   5.323708
    21  H    4.737130   4.022110   4.046326   4.965571   4.313205
    22  H    3.374124   2.111214   3.400137   3.996906   3.139652
                    6          7          8          9         10
     6  H    0.000000
     7  H    3.067929   0.000000
     8  C    3.401391   3.524188   0.000000
     9  C    4.047460   3.076838   1.419353   0.000000
    10  H    2.469490   4.375418   2.120169   3.408185   0.000000
    11  H    4.791792   2.943861   3.404396   2.121349   5.005978
    12  H    2.314772   3.636035   2.155228   2.749480   1.831949
    13  H    3.531905   3.064174   2.713580   2.136339   3.659615
    14  C    2.624888   2.196183   4.077280   3.788278   4.300114
    15  O    2.545538   3.300997   4.327934   4.287616   4.090269
    16  H    3.688294   2.472588   4.880781   4.313213   5.357834
    17  O    5.191291   3.626217   2.432580   1.360906   4.537674
    18  C    5.935387   4.754375   2.793727   2.355059   4.794158
    19  H    6.890920   5.364575   3.857513   3.237883   5.870999
    20  H    6.209084   5.442881   2.836621   2.620780   4.702726
    21  H    5.634756   4.697917   2.717783   2.732524   4.460836
    22  H    4.018990   4.203326   1.082464   2.175612   2.396491
                   11         12         13         14         15
    11  H    0.000000
    12  H    3.679856   0.000000
    13  H    1.850771   2.014658   0.000000
    14  C    3.214426   2.933627   2.381205   0.000000
    15  O    3.915827   2.615108   2.560955   1.220043   0.000000
    16  H    3.185944   3.921669   2.884921   1.108862   2.020128
    17  O    2.507392   4.102446   3.301807   4.812954   5.487922
    18  C    3.885866   4.826337   4.451673   6.026964   6.612986
    19  H    4.367521   5.847243   5.259382   6.787681   7.469115
    20  H    4.247386   4.766702   4.540538   6.402921   6.813503
    21  H    4.502725   4.860911   4.854551   6.136111   6.724952
    22  H    4.281461   3.075509   3.787264   5.041326   5.319236
                   16         17         18         19         20
    16  H    0.000000
    17  O    5.144335   0.000000
    18  C    6.466381   1.408694   0.000000
    19  H    7.098499   2.006424   1.087413   0.000000
    20  H    6.914865   2.073153   1.094687   1.787788   0.000000
    21  H    6.679388   2.078767   1.092952   1.768757   1.781649
    22  H    5.849612   2.696215   2.505860   3.564928   2.521612
                   21         22
    21  H    0.000000
    22  H    2.098068   0.000000
 Stoichiometry    C8H12O2
 Framework group  C1[X(C8H12O2)]
 Deg. of freedom    60
 Full point group                 C1      NOp   1
 Largest Abelian subgroup         C1      NOp   1
 Largest concise Abelian subgroup C1      NOp   1
                         Standard orientation:                         
 ---------------------------------------------------------------------
 Center     Atomic      Atomic             Coordinates (Angstroms)
 Number     Number       Type             X           Y           Z
 ---------------------------------------------------------------------
      1          6           0       -1.366974    1.136091    0.982495
      2          6           0       -0.236565    1.610396   -0.702196
      3          6           0        0.178122   -1.203424   -0.624856
      4          6           0       -1.501668   -0.237826    1.053876
      5          1           0       -0.784602    1.657940    1.733580
      6          1           0       -2.192574    1.694938    0.549704
      7          1           0       -0.967646   -0.831203    1.786778
      8          6           0        1.005259    1.072236   -0.427826
      9          6           0        1.194855   -0.331912   -0.344238
     10          1           0       -0.329051    2.692444   -0.727261
     11          1           0        0.321367   -2.262741   -0.439309
     12          1           0       -0.961284    1.074707   -1.309707
     13          1           0       -0.645607   -0.914427   -1.259289
     14          6           0       -2.508815   -0.890304    0.223280
     15          8           0       -3.077715   -0.336510   -0.703095
     16          1           0       -2.721306   -1.953992    0.453470
     17          8           0        2.304125   -0.878584    0.223858
     18          6           0        3.463143   -0.077992    0.236017
     19          1           0        4.265288   -0.708583    0.612031
     20          1           0        3.707519    0.279980   -0.769208
     21          1           0        3.356122    0.780211    0.904281
     22          1           0        1.776345    1.747895   -0.080496
 ---------------------------------------------------------------------
 Rotational constants (GHZ):           2.6036459           0.7664324           0.6922253
 Standard basis: 6-31G(d) (6D, 7F)
 There are   174 symmetry adapted cartesian basis functions of A   symmetry.
 There are   174 symmetry adapted basis functions of A   symmetry.
   174 basis functions,   328 primitive gaussians,   174 cartesian basis functions
    38 alpha electrons       38 beta electrons
       nuclear repulsion energy       526.6239871119 Hartrees.
 NAtoms=   22 NActive=   22 NUniq=   22 SFac= 1.00D+00 NAtFMM=   60 NAOKFM=F Big=F
 Integral buffers will be    131072 words long.
 Raffenetti 2 integral format.
 Two-electron integral symmetry is turned on.
 One-electron integrals computed using PRISM.
 NBasis=   174 RedAO= T EigKep=  1.95D-03  NBF=   174
 NBsUse=   174 1.00D-06 EigRej= -1.00D+00 NBFU=   174
 Initial guess from the checkpoint file:  "/tmp/Gau-3366796.chk"
 B after Tr=    -0.000000   -0.000000    0.000000
         Rot=    0.999759   -0.021116   -0.000393   -0.005989 Ang=  -2.52 deg.
 ExpMin= 1.61D-01 ExpMax= 5.48D+03 ExpMxC= 8.25D+02 IAcc=3 IRadAn=         5 AccDes= 0.00D+00
 Harris functional with IExCor= 1009 and IRadAn=       5 diagonalized for initial guess.
 HarFok:  IExCor= 1009 AccDes= 0.00D+00 IRadAn=         5 IDoV= 1 UseB2=F ITyADJ=14
 ICtDFT=  3500011 ScaDFX=  1.000000  1.000000  1.000000  1.000000
 FoFCou: FMM=F IPFlag=           0 FMFlag=      100000 FMFlg1=           0
         NFxFlg=           0 DoJE=T BraDBF=F KetDBF=T FulRan=T
         wScrn=  0.000000 ICntrl=       500 IOpCl=  0 I1Cent=   200000004 NGrid=           0
         NMat0=    1 NMatS0=      1 NMatT0=    0 NMatD0=    1 NMtDS0=    0 NMtDT0=    0
 Petite list used in FoFCou.
 Requested convergence on RMS density matrix=1.00D-08 within 128 cycles.
 Requested convergence on MAX density matrix=1.00D-06.
 Requested convergence on             energy=1.00D-06.
 No special actions if energy rises.
 Integral accuracy reduced to 1.0D-05 until final iterations.
 Initial convergence to 1.0D-05 achieved.  Increase integral accuracy.
 SCF Done:  E(RM062X) =  -462.176251227     A.U. after   16 cycles
            NFock= 16  Conv=0.62D-08     -V/T= 2.0084
 Calling FoFJK, ICntrl=      2127 FMM=F ISym2X=0 I1Cent= 0 IOpClX= 0 NMat=1 NMatS=1 NMatT=0.
 ***** Axes restored to original set *****
 -------------------------------------------------------------------
 Center     Atomic                   Forces (Hartrees/Bohr)
 Number     Number              X              Y              Z
 -------------------------------------------------------------------
      1        6           0.002120794   -0.001099602    0.001471130
      2        6          -0.002962349    0.001649508   -0.000706906
      3        6           0.001868351   -0.000700599   -0.000503561
      4        6          -0.002160942    0.000925948   -0.000542817
      5        1          -0.000094641   -0.000008922    0.000054476
      6        1          -0.000119978    0.000366079   -0.000456773
      7        1           0.000616917   -0.000381724    0.000463738
      8        6           0.002528539   -0.000329041   -0.004005948
      9        6           0.008167229   -0.003294949   -0.000646615
     10        1           0.000561286   -0.000119312   -0.000351428
     11        1          -0.000461477   -0.000026998    0.000091381
     12        1           0.000994995   -0.000947967    0.000446283
     13        1          -0.000577989    0.000447497   -0.000994846
     14        6           0.001077604   -0.000041296    0.000105181
     15        8           0.000070571   -0.000258905    0.000234201
     16        1          -0.000154509    0.000069846   -0.000061482
     17        8          -0.006824955    0.002620750    0.001000210
     18        6           0.000234565    0.000245212    0.002538234
     19        1          -0.001208994    0.001979489    0.000016000
     20        1          -0.000889140    0.000018904   -0.001084198
     21        1          -0.000977183   -0.001826772    0.001580435
     22        1          -0.001808696    0.000712853    0.001353306
 -------------------------------------------------------------------
 Cartesian Forces:  Max     0.008167229 RMS     0.001817159

 GradGradGradGradGradGradGradGradGradGradGradGradGradGradGradGradGradGrad
 Berny optimization.
 FormGI is forming the generalized inverse of G from B-inverse, IUseBI=4.
 Internal  Forces:  Max     0.009983948 RMS     0.001646374
 Search for a saddle point.
 Step number   2 out of a maximum of  103
 All quantities printed in internal units (Hartrees-Bohrs-Radians)
 Swapping is turned off.
 Update second derivatives using D2CorX and points    1    2
 ITU=  0  0
     Eigenvalues ---   -0.04144  -0.00060   0.00414   0.00881   0.01030
     Eigenvalues ---    0.01234   0.02089   0.02471   0.02833   0.03073
     Eigenvalues ---    0.03246   0.03651   0.03777   0.04147   0.04254
     Eigenvalues ---    0.05108   0.05827   0.06671   0.07275   0.08058
     Eigenvalues ---    0.09022   0.09447   0.09679   0.10417   0.10806
     Eigenvalues ---    0.11346   0.11730   0.13186   0.13808   0.14257
     Eigenvalues ---    0.15730   0.17781   0.18074   0.19039   0.19409
     Eigenvalues ---    0.23961   0.24155   0.28588   0.30092   0.31850
     Eigenvalues ---    0.34575   0.36318   0.36922   0.36962   0.37063
     Eigenvalues ---    0.37378   0.37451   0.37508   0.37878   0.39231
     Eigenvalues ---    0.39609   0.39964   0.40591   0.41485   0.48767
     Eigenvalues ---    0.53129   0.60061   0.65077   0.84588   1.20903
 Eigenvectors required to have negative eigenvalues:
                          R1        D24       D14       D20       D25
   1                   -0.69197   0.26548   0.23841  -0.23280   0.20555
                          D13       A3        D21       R13       R2
   1                   -0.18761   0.18656  -0.15032  -0.13508   0.13321
 RFO step:  Lambda0=7.148274766D-05 Lambda=-1.75089958D-03.
 Linear search not attempted -- option 19 set.
 Iteration  1 RMS(Cart)=  0.08428462 RMS(Int)=  0.06167472
 Iteration  2 RMS(Cart)=  0.08550674 RMS(Int)=  0.02888767
 Iteration  3 RMS(Cart)=  0.09239901 RMS(Int)=  0.00584094
 Iteration  4 RMS(Cart)=  0.00853403 RMS(Int)=  0.00017147
 Iteration  5 RMS(Cart)=  0.00004984 RMS(Int)=  0.00017002
 Iteration  6 RMS(Cart)=  0.00000000 RMS(Int)=  0.00017002
 Variable       Old X    -DE/DX   Delta X   Delta X   Delta X     New X
                                 (Linear)    (Quad)   (Total)
    R1        3.93725   0.00188   0.00000   0.01713   0.01713   3.95437
    R2        2.61226   0.00010   0.00000   0.00137   0.00137   2.61363
    R3        2.04895   0.00010   0.00000   0.00044   0.00044   2.04939
    R4        2.05384  -0.00002   0.00000  -0.00063  -0.00063   2.05321
    R5        2.60962  -0.00037   0.00000  -0.00037  -0.00037   2.60924
    R6        2.05278   0.00006   0.00000   0.00046   0.00046   2.05323
    R7        2.05385   0.00015   0.00000   0.00064   0.00064   2.05449
    R8        2.58556   0.00085   0.00000   0.00441   0.00441   2.58997
    R9        2.05024  -0.00008   0.00000   0.00010   0.00010   2.05034
   R10        2.03929   0.00021   0.00000   0.00156   0.00156   2.04085
   R11        2.04791   0.00003   0.00000  -0.00015  -0.00015   2.04776
   R12        2.75794   0.00053   0.00000   0.00314   0.00314   2.76108
   R13        2.68219  -0.00010   0.00000  -0.00593  -0.00593   2.67626
   R14        2.04556   0.00160   0.00000   0.00321   0.00321   2.04877
   R15        2.57174   0.00998   0.00000  -0.02217  -0.02217   2.54957
   R16        2.30555  -0.00009   0.00000  -0.00152  -0.00152   2.30403
   R17        2.09544  -0.00004   0.00000   0.00001   0.00001   2.09546
   R18        2.66205   0.00258   0.00000   0.00195   0.00195   2.66400
   R19        2.05491   0.00196   0.00000   0.00224   0.00224   2.05715
   R20        2.06866   0.00133   0.00000   0.00042   0.00042   2.06908
   R21        2.06538   0.00243   0.00000   0.00737   0.00737   2.07275
    A1        1.89745   0.00067   0.00000  -0.01980  -0.01982   1.87763
    A2        1.73062  -0.00040   0.00000   0.00015   0.00010   1.73072
    A3        1.54389  -0.00035   0.00000   0.00607   0.00608   1.54997
    A4        2.08855  -0.00020   0.00000   0.00128   0.00119   2.08973
    A5        2.04609   0.00007   0.00000   0.00152   0.00151   2.04761
    A6        2.02236   0.00017   0.00000   0.00526   0.00523   2.02759
    A7        1.81164   0.00035   0.00000   0.00702   0.00694   1.81859
    A8        1.77136  -0.00062   0.00000   0.01251   0.01240   1.78377
    A9        1.54878  -0.00045   0.00000  -0.02682  -0.02679   1.52199
   A10        2.05933   0.00027   0.00000   0.00763   0.00750   2.06683
   A11        2.11602   0.00051   0.00000   0.00282   0.00281   2.11882
   A12        2.00566  -0.00048   0.00000  -0.00793  -0.00784   1.99783
   A13        2.08144  -0.00052   0.00000  -0.00620  -0.00675   2.07469
   A14        2.11440  -0.00024   0.00000  -0.01032  -0.01086   2.10353
   A15        2.05195   0.00044   0.00000   0.00152   0.00094   2.05289
   A16        2.13071   0.00015   0.00000   0.00113   0.00084   2.13155
   A17        2.07396  -0.00019   0.00000  -0.00266  -0.00295   2.07101
   A18        2.07163  -0.00003   0.00000  -0.00331  -0.00359   2.06804
   A19        2.11455   0.00092   0.00000  -0.00096  -0.00100   2.11354
   A20        2.05001   0.00108   0.00000   0.01679   0.01672   2.06673
   A21        2.09838  -0.00201   0.00000  -0.01920  -0.01922   2.07916
   A22        2.11624  -0.00092   0.00000   0.00823   0.00766   2.12391
   A23        2.02134   0.00099   0.00000   0.01124   0.01069   2.03202
   A24        2.13041   0.00017   0.00000  -0.00925  -0.00986   2.12055
   A25        2.15434  -0.00017   0.00000  -0.00039  -0.00039   2.15395
   A26        2.02969   0.00004   0.00000  -0.00118  -0.00118   2.02851
   A27        2.09866   0.00014   0.00000   0.00156   0.00156   2.10022
   A28        2.03302   0.00919   0.00000   0.00421   0.00421   2.03723
   A29        1.85494  -0.00044   0.00000  -0.00311  -0.00312   1.85182
   A30        1.94077   0.00034   0.00000   0.00540   0.00540   1.94617
   A31        1.95085   0.00116   0.00000  -0.00328  -0.00328   1.94757
   A32        1.92036  -0.00099   0.00000  -0.01772  -0.01773   1.90263
   A33        1.89247  -0.00006   0.00000   0.02335   0.02334   1.91581
   A34        1.90345  -0.00006   0.00000  -0.00443  -0.00443   1.89902
    D1       -1.13712   0.00010   0.00000   0.03249   0.03250  -1.10462
    D2        3.00115  -0.00008   0.00000   0.01595   0.01586   3.01701
    D3        0.99079   0.00055   0.00000   0.02891   0.02892   1.01971
    D4        1.05722  -0.00004   0.00000   0.02529   0.02533   1.08256
    D5       -1.08770  -0.00022   0.00000   0.00874   0.00870  -1.07900
    D6       -3.09805   0.00040   0.00000   0.02171   0.02176  -3.07629
    D7        3.08121   0.00005   0.00000   0.03163   0.03166   3.11287
    D8        0.93628  -0.00013   0.00000   0.01509   0.01503   0.95132
    D9       -1.07407   0.00050   0.00000   0.02805   0.02809  -1.04598
   D10        1.86631   0.00009   0.00000   0.01239   0.01242   1.87872
   D11       -1.40282  -0.00062   0.00000  -0.03251  -0.03252  -1.43534
   D12       -0.10115   0.00023   0.00000   0.02646   0.02648  -0.07468
   D13        2.91291  -0.00048   0.00000  -0.01845  -0.01846   2.89445
   D14       -2.70318   0.00008   0.00000   0.00905   0.00905  -2.69413
   D15        0.31088  -0.00062   0.00000  -0.03586  -0.03588   0.27500
   D16        1.17064   0.00045   0.00000  -0.03543  -0.03553   1.13511
   D17       -1.75654   0.00079   0.00000  -0.01551  -0.01547  -1.77201
   D18        3.11278   0.00005   0.00000  -0.01183  -0.01187   3.10091
   D19        0.18560   0.00039   0.00000   0.00809   0.00819   0.19379
   D20       -0.52294   0.00060   0.00000  -0.00830  -0.00837  -0.53130
   D21        2.83307   0.00095   0.00000   0.01162   0.01169   2.84476
   D22       -3.01718  -0.00084   0.00000  -0.00220  -0.00235  -3.01952
   D23       -0.05834   0.00060   0.00000   0.05764   0.05796  -0.00038
   D24        0.41399   0.00036   0.00000   0.05745   0.05714   0.47113
   D25       -2.91036   0.00180   0.00000   0.11729   0.11744  -2.79291
   D26        0.23727   0.00003   0.00000  -0.00489  -0.00493   0.23234
   D27       -2.93803   0.00017   0.00000  -0.00546  -0.00550  -2.94353
   D28       -3.02749  -0.00064   0.00000  -0.04793  -0.04788  -3.07537
   D29        0.08040  -0.00050   0.00000  -0.04850  -0.04845   0.03195
   D30        0.08156   0.00158   0.00000   0.03740   0.03715   0.11871
   D31       -2.86576  -0.00003   0.00000  -0.02851  -0.02848  -2.89424
   D32        3.00286   0.00161   0.00000   0.02137   0.02134   3.02420
   D33        0.05554   0.00001   0.00000  -0.04454  -0.04429   0.01124
   D34        2.89305   0.00147   0.00000   0.55967   0.55977  -2.83036
   D35       -0.43292   0.00280   0.00000   0.62206   0.62195   0.18903
   D36       -3.02706   0.00169   0.00000  -0.30120  -0.30120   2.95492
   D37       -0.93734   0.00041   0.00000  -0.32152  -0.32151  -1.25885
   D38        1.19452   0.00140   0.00000  -0.32569  -0.32570   0.86883
         Item               Value     Threshold  Converged?
 Maximum Force            0.009984     0.000450     NO 
 RMS     Force            0.001646     0.000300     NO 
 Maximum Displacement     1.058162     0.001800     NO 
 RMS     Displacement     0.240912     0.001200     NO 
 Predicted change in Energy=-1.691274D-03
 GradGradGradGradGradGradGradGradGradGradGradGradGradGradGradGradGradGrad

                          Input orientation:                          
 ---------------------------------------------------------------------
 Center     Atomic      Atomic             Coordinates (Angstroms)
 Number     Number       Type             X           Y           Z
 ---------------------------------------------------------------------
      1          6           0        0.959880   -1.309656    0.742831
      2          6           0       -0.207809   -1.050219   -0.974148
      3          6           0        0.349153    1.671452   -0.325402
      4          6           0        1.503699   -0.080227    1.067883
      5          1           0        0.215284   -1.757033    1.392095
      6          1           0        1.586289   -2.000199    0.184910
      7          1           0        1.162637    0.493198    1.921761
      8          6           0       -1.206410   -0.183406   -0.576768
      9          6           0       -0.909863    1.146717   -0.191408
     10          1           0       -0.479284   -2.072223   -1.223834
     11          1           0        0.554259    2.653284    0.088298
     12          1           0        0.691878   -0.690097   -1.466958
     13          1           0        1.021905    1.296611   -1.082526
     14          6           0        2.710223    0.358817    0.370488
     15          8           0        3.135677   -0.178123   -0.638091
     16          1           0        3.222076    1.248709    0.789641
     17          8           0       -1.812453    1.910083    0.458880
     18          6           0       -2.964351    1.256780    0.942259
     19          1           0       -3.467306    1.971957    1.590798
     20          1           0       -3.639843    0.978258    0.126808
     21          1           0       -2.707841    0.355520    1.512364
     22          1           0       -2.185169   -0.592110   -0.352265
 ---------------------------------------------------------------------
                    Distance matrix (angstroms):
                    1          2          3          4          5
     1  C    0.000000
     2  C    2.092564   0.000000
     3  C    3.225076   2.852818   0.000000
     4  C    1.383074   2.835495   2.518452   0.000000
     5  H    1.084488   2.505534   3.836956   2.139347   0.000000
     6  H    1.086515   2.337662   3.907933   2.114889   1.842846
     7  H    2.163623   3.556198   2.664541   1.083627   2.498312
     8  C    2.775354   1.380753   2.433815   3.171784   2.893776
     9  C    3.225292   2.435588   1.370555   2.986048   3.493595
    10  H    2.553522   1.086524   3.938095   3.626601   2.724859
    11  H    4.037058   3.927528   1.084994   3.055013   4.611474
    12  H    2.310594   1.087192   2.645283   2.730643   3.088637
    13  H    3.182515   2.651708   1.079972   2.598474   4.012372
    14  C    2.446659   3.508324   2.789610   1.461102   3.427131
    15  O    2.814498   3.471654   3.359080   2.362897   3.891440
    16  H    3.415399   4.490003   3.110582   2.190047   4.293977
    17  O    4.258307   3.659486   2.311835   3.915237   4.293058
    18  C    4.693182   4.073497   3.571865   4.665494   4.404032
    19  H    5.575662   5.131940   4.281061   5.403312   5.244646
    20  H    5.174117   4.135901   4.073953   5.334982   4.893339
    21  H    4.100874   3.795919   3.801877   4.257289   3.608602
    22  H    3.406676   2.122865   3.398120   3.985799   3.187792
                    6          7          8          9         10
     6  H    0.000000
     7  H    3.068087   0.000000
     8  C    3.417609   3.508963   0.000000
     9  C    4.034286   3.031143   1.416216   0.000000
    10  H    2.501267   4.378591   2.124861   3.407767   0.000000
    11  H    4.767528   2.897876   3.404274   2.119347   5.012018
    12  H    2.290198   3.620113   2.157004   2.750724   1.827841
    13  H    3.576853   3.113040   2.722431   2.132671   3.690878
    14  C    2.619661   2.195343   4.065872   3.747203   4.315643
    15  O    2.529405   3.300969   4.342522   4.280317   4.122942
    16  H    3.687398   2.468558   4.850723   4.248032   5.364954
    17  O    5.188141   3.605377   2.412997   1.349175   4.524116
    18  C    5.647106   4.309816   2.733484   2.349093   4.685059
    19  H    6.579769   4.871615   3.802050   3.224561   5.762449
    20  H    6.015565   5.149850   2.786768   2.753621   4.595519
    21  H    5.074554   3.894504   2.628538   2.600300   4.283361
    22  H    4.061424   4.190095   1.084163   2.162359   2.420829
                   11         12         13         14         15
    11  H    0.000000
    12  H    3.689980   0.000000
    13  H    1.852049   2.050296   0.000000
    14  C    3.161075   2.924063   2.416842   0.000000
    15  O    3.899773   2.630835   2.615414   1.219240   0.000000
    16  H    3.095475   3.905523   2.889300   1.108869   2.020330
    17  O    2.508187   4.091633   3.284185   4.782137   5.481600
    18  C    3.880732   4.791937   4.471194   5.773564   6.462723
    19  H    4.346803   5.808201   5.268374   6.500249   7.293159
    20  H    4.516379   4.907881   4.826565   6.384859   6.915920
    21  H    4.236624   4.639802   4.640056   5.537085   6.249474
    22  H    4.269794   3.086995   3.792871   5.038998   5.344575
                   16         17         18         19         20
    16  H    0.000000
    17  O    5.088546   0.000000
    18  C    6.188314   1.409726   0.000000
    19  H    6.775896   2.005892   1.088597   0.000000
    20  H    6.899161   2.077961   1.094908   1.777772   0.000000
    21  H    6.040201   2.080436   1.096853   1.787682   1.782188
    22  H    5.825020   2.656660   2.387741   3.463207   2.193545
                   21         22
    21  H    0.000000
    22  H    2.155929   0.000000
 Stoichiometry    C8H12O2
 Framework group  C1[X(C8H12O2)]
 Deg. of freedom    60
 Full point group                 C1      NOp   1
 Largest Abelian subgroup         C1      NOp   1
 Largest concise Abelian subgroup C1      NOp   1
                         Standard orientation:                         
 ---------------------------------------------------------------------
 Center     Atomic      Atomic             Coordinates (Angstroms)
 Number     Number       Type             X           Y           Z
 ---------------------------------------------------------------------
      1          6           0       -1.255853    1.153008    0.989547
      2          6           0       -0.219247    1.610588   -0.769683
      3          6           0        0.127323   -1.220250   -0.700299
      4          6           0       -1.374017   -0.223265    1.058848
      5          1           0       -0.626465    1.675347    1.701689
      6          1           0       -2.107297    1.707878    0.605259
      7          1           0       -0.802871   -0.815959    1.763655
[...]
 0.00636406,-0.00047620,0.00035285,-0.00018373,-0.12153099,-0.04656544,
 0.10428113,-0.00113571,-0.00148214,-0.00113705,0.00221594,-0.00057510,
 0.00150878,-0.15989967,0.05565836,0.14536095,-0.00267885,0.00246804,-0
 .00309102,0.00006017,-0.00008792,0.00006748,0.00025528,-0.00003008,0.0
 0029211,-0.00009189,0.00002446,0.00004597,-0.00204839,0.00385395,-0.00
 052546,-0.01571818,0.01057720,0.01722117,0.00004120,0.00022050,-0.0006
 6901,0.00659254,-0.00247925,-0.00633390,0.00105320,-0.00098396,0.00023
 321,0.17556152,0.00223360,0.00190490,0.00209885,-0.00547587,-0.0006089
 9,-0.00048579,0.05084759,-0.08438737,-0.08926249,0.00245869,-0.0042957
 6,0.00417397,-0.00021461,0.00014556,-0.00025515,-0.00019553,-0.0000155
 3,-0.00024001,-0.00004522,-0.00009010,-0.00010291,0.00302329,-0.005189
 88,-0.00128601,0.00167919,0.01141402,0.01060889,0.00044994,0.00009705,
 0.00043516,0.01642104,-0.00383944,-0.01691999,-0.00064736,-0.00332801,
 -0.00143769,-0.06599512,0.08744540,-0.00274654,-0.00274082,-0.00349514
 ,0.00272853,-0.00338760,0.00266002,0.15716260,-0.08865149,-0.19627155,
 -0.00289291,0.00655189,-0.00587487,0.00013824,-0.00014792,0.00015204,0
 .00047018,-0.00011145,0.00061261,0.00008838,-0.00006943,0.00030183,-0.
 00178134,0.00491394,-0.00023458,-0.00866790,-0.00527282,0.00006449,-0.
 00058081,-0.00004983,-0.00028624,0.00531107,-0.00134614,-0.00354283,0.
 00025431,-0.00059919,0.00092184,-0.15127853,0.09176518,0.20345566,-0.0
 2092012,-0.02071529,-0.00332522,0.00480057,-0.00314747,0.00149074,-0.0
 0833331,0.00665046,-0.00867943,-0.18927582,-0.05603320,0.07245994,0.00
 326138,-0.00172829,0.00386681,-0.00171252,0.00234985,-0.00130653,-0.00
 057200,-0.00134364,-0.00234254,0.00238072,-0.00099765,0.00363956,-0.00
 227779,0.00453867,0.00317274,-0.00021671,0.00027488,0.00026442,0.00055
 869,-0.00043464,0.00052796,0.00302269,0.00057813,-0.00005200,-0.000916
 55,0.00148912,-0.00036427,0.49761645,-0.02976632,-0.01218019,0.0157808
 0,-0.00242687,-0.00132519,-0.00151365,-0.00098394,-0.00217121,0.001215
 62,-0.07351865,-0.11515690,0.01178357,-0.00366256,-0.00457562,-0.00449
 226,-0.00043585,-0.00159089,0.00194537,0.01935006,0.00561154,-0.007707
 46,0.00322744,-0.00283955,0.00050805,0.00280156,0.00406396,-0.00029091
 ,-0.00023229,0.00019531,-0.00054705,0.00107707,-0.00125351,0.00069379,
 -0.00091115,-0.00010634,0.00010221,0.00343917,-0.00107628,0.00169459,0
 .09481460,0.54753302,0.00695523,0.01530550,0.02199302,-0.00845218,0.00
 486341,-0.00365393,0.00149500,0.00014076,0.00480713,0.04640960,-0.0116
 1311,-0.11656240,0.00230052,-0.00493190,0.00166595,-0.00299816,-0.0020
 5855,-0.00432851,0.01860895,0.01242429,-0.00779255,-0.00182836,-0.0015
 3822,-0.00475986,0.00086835,-0.00449663,-0.00250753,0.00080295,-0.0001
 2272,-0.00026596,0.00079016,-0.00039064,-0.00069917,-0.00472521,-0.001
 34083,-0.00170593,-0.00677785,0.00417128,-0.00421568,-0.21397680,0.290
 34461,0.74923761,0.00246826,0.00387121,0.00245012,-0.00190832,0.000928
 84,0.00054230,0.00000502,-0.00147453,0.00247921,-0.01815793,0.01263852
 ,0.04615659,-0.00057389,0.00126530,-0.00055257,-0.00076052,-0.00005879
 ,0.00059417,-0.00457483,-0.00391654,0.00470333,-0.00080483,-0.00072366
 ,-0.00109549,0.00127212,-0.00035777,-0.00066729,-0.00032320,-0.0001517
 2,0.00011331,-0.00058940,0.00056873,-0.00029460,0.00039647,0.00030713,
 0.00063338,-0.00050242,-0.00080889,0.00084129,-0.16201808,0.07819236,0
 .19273624,0.16419743,-0.00413708,-0.00578778,-0.00246078,0.00317156,-0
 .00111353,0.00275560,0.00102143,0.00180837,-0.00178323,0.01310464,0.02
 439036,0.00115394,-0.00039926,0.00185343,0.00128619,0.00023276,0.00234
 225,0.00096134,-0.00393453,0.00067887,0.00032608,-0.00054466,0.0011671
 9,0.00110843,-0.00102757,-0.00109396,0.00065938,0.00002502,0.00011232,
 0.00024803,-0.00022345,0.00013044,-0.00001736,0.00196669,-0.00020823,0
 .00003910,0.00001209,-0.00018707,-0.00077542,0.07166961,-0.21700258,-0
 .24949811,-0.08923683,0.20198883,-0.00953425,-0.01064443,-0.00973833,0
 .00455895,-0.00241052,0.00095983,-0.00217681,0.00183728,-0.00594635,0.
 05405493,0.00283326,-0.03331543,-0.00041486,0.00043134,0.00088482,0.00
 060198,0.00165626,0.00038451,0.00458923,-0.00013356,-0.00018904,0.0011
 2057,0.00001565,0.00332790,-0.00059013,0.00272090,0.00203072,-0.000600
 51,-0.00001810,0.00035291,-0.00054719,0.00039425,0.00045935,0.00336097
 ,0.00073331,0.00080179,0.00200275,-0.00112395,0.00157490,0.18237551,-0
 .25475979,-0.55028529,-0.24371069,0.28869726,0.61107215,-0.00485734,-0
 .00179645,0.00395278,0.00108724,-0.00034399,0.00122189,0.00094421,-0.0
 0041661,0.00056273,-0.00314719,-0.02508746,-0.00697639,-0.00070679,-0.
 00136986,-0.00084988,0.00050788,0.00011673,-0.00000909,-0.00007533,0.0
 0073579,0.00020436,-0.00025514,0.00086026,0.00025396,-0.00037580,-0.00
 061632,-0.00019160,0.00008651,0.00005484,0.00004060,-0.00027402,0.0002
 4931,-0.00010101,0.00012421,0.00018046,-0.00032723,0.00004895,-0.00003
 449,-0.00012771,-0.12625732,-0.09047308,-0.03384504,0.02295588,0.00804
 751,0.00606633,0.11021395,-0.00151689,0.00197509,0.00120661,-0.0006165
 0,0.00055757,-0.00073466,-0.00013692,0.00022834,-0.00007304,-0.0084660
 6,-0.00254227,-0.00920866,0.00015959,-0.00043524,0.00028855,0.00019544
 ,0.00036936,-0.00054628,-0.00054383,-0.00048398,0.00099426,-0.00033032
 ,-0.00045844,-0.00044802,0.00058064,-0.00015123,-0.00012405,-0.0000803
 9,-0.00006419,0.00001363,-0.00034061,0.00029776,-0.00011662,-0.0000199
 6,-0.00018748,0.00036606,-0.00024802,-0.00020508,-0.00012069,-0.096287
 70,-0.19752063,-0.05144389,-0.00186394,-0.00942377,-0.03013465,0.10969
 826,0.20778796,0.00259187,0.00038610,-0.00010856,0.00011392,0.00015041
 ,0.00041307,-0.00025942,-0.00068427,0.00024339,0.00974452,0.00697559,0
 .01241287,-0.00024881,0.00080801,-0.00056125,0.00040091,0.00025962,-0.
 00004664,-0.00143897,-0.00052125,-0.00006075,-0.00005169,0.00005735,0.
 00004855,-0.00005390,0.00017698,-0.00024416,0.00004477,0.00000562,0.00
 006661,-0.00006498,0.00002813,0.00013342,0.00056397,-0.00003195,-0.000
 02484,0.00007228,-0.00016753,0.00015303,-0.03621638,-0.05509826,-0.081
 21293,-0.00527476,-0.04217289,-0.02243972,0.03017501,0.08977487,0.0912
 2508,-0.00064777,0.00267055,0.00136615,-0.00153453,-0.00077196,-0.0013
 6199,-0.05417984,0.02923021,0.03590439,0.00113683,-0.00075122,0.000903
 16,-0.00024177,0.00033548,-0.00022708,-0.00045516,0.00031536,-0.000970
 32,-0.00037717,-0.00029922,-0.00028551,0.00406206,0.00396042,0.0079699
 5,-0.17889863,0.08354580,0.08571261,0.00018703,0.00002218,0.00017757,0
 .00184768,0.00187815,-0.00104652,0.00047741,-0.00011475,-0.00024423,-0
 .00213789,-0.00490209,0.00175151,0.00265101,-0.00035213,0.00033517,-0.
 00149995,0.00067163,0.00001125,-0.00006077,-0.00030571,-0.00008774,0.5
 1257591,0.00322207,0.00076292,0.00315586,-0.00921696,-0.00100587,-0.00
 300183,-0.00044358,0.01448854,0.00363549,0.00089994,-0.00420765,0.0005
 7579,-0.00005935,-0.00004768,-0.00012033,-0.00027750,0.00008931,-0.000
 17180,0.00001956,0.00028258,-0.00011449,0.03138803,-0.02710482,-0.0278
 7912,0.04978966,-0.16632816,-0.07037182,0.00172923,-0.00134598,0.00013
 316,0.00120823,-0.00019096,0.00094547,0.00035654,0.00002782,0.00050144
 ,-0.00526920,0.00126613,-0.00138289,-0.00175408,-0.00031542,0.00066277
 ,0.00057775,0.00013549,-0.00048236,0.00016187,0.00022937,0.00002003,0.
 01218363,0.31106710,0.00113347,-0.00183131,-0.00056752,-0.00027019,-0.
 00295163,0.00514997,0.02470864,-0.00600782,-0.00216184,-0.00026714,-0.
 00068021,-0.00016272,0.00015002,-0.00025940,0.00011666,0.00023854,-0.0
 0011127,0.00067603,0.00106408,-0.00018769,0.00010394,0.01507911,-0.012
 47684,-0.00747263,0.07452521,-0.08936189,-0.10765562,0.00043088,-0.000
 47245,-0.00009138,-0.00239259,0.00172628,-0.00338298,-0.00029319,0.000
 54557,0.00003537,0.00205212,-0.00105954,0.00278195,-0.00151902,0.00002
 125,-0.00002983,0.00067274,-0.00020440,0.00024364,0.00008394,0.0002237
 8,0.00005082,-0.19618132,0.08115838,0.18457633,0.00143586,-0.00053044,
 0.00039067,-0.00248922,-0.00178313,0.00077354,0.00494350,0.00081879,0.
 00079380,0.00005155,-0.00085110,0.00016689,0.00008254,-0.00008890,0.00
 002240,0.00005042,-0.00012533,0.00027549,-0.00002891,0.00019279,-0.000
 23391,0.00562426,0.00017237,-0.00488114,-0.04313026,0.00111218,0.01882
 157,0.00039625,-0.00045613,-0.00019827,-0.00028638,-0.00009263,-0.0002
 5734,-0.00023824,0.00035664,0.00033890,-0.00038828,0.00001239,-0.00053
 276,-0.00162130,-0.00002762,0.00046367,0.00074628,-0.00030224,-0.00054
 308,0.00003950,0.00014305,0.00002393,-0.21052703,-0.05796072,0.0485030
 4,0.53407804,0.00113213,0.00032238,0.00066015,-0.00110713,0.00025492,-
 0.00000299,0.00271359,-0.00306352,-0.00426555,-0.00021432,-0.00122115,
 0.00020698,0.00014133,-0.00022578,0.00006772,-0.00010218,-0.00005814,0
 .00006333,0.00003942,0.00017685,-0.00009003,0.00645616,-0.00222993,-0.
 00455006,0.02047452,0.01215748,-0.00208436,0.00013034,-0.00021396,0.00
 001613,0.00011964,0.00011926,0.00036367,-0.00005961,0.00011597,0.00005
 029,0.00081808,0.00102455,-0.00058716,-0.00035830,0.00009678,-0.000196
 60,0.00020798,-0.00013877,0.00013588,-0.00000674,0.00000149,0.00000877
 ,-0.08661498,-0.12618466,0.01759480,-0.04871126,0.60707672,-0.00065418
 ,-0.00032590,-0.00054668,0.00127261,0.00054285,0.00041228,-0.00029002,
 -0.00216315,0.00124643,-0.00011573,0.00070459,-0.00017872,-0.00012230,
 0.00017665,-0.00004787,0.00014178,0.00003746,0.00001683,0.00000348,-0.
 00014489,0.00006682,-0.00033829,0.00070663,-0.00055384,0.02415881,0.00
 518937,-0.01618674,-0.00021278,0.00022287,-0.00005621,-0.00016633,0.00
 060832,-0.00072640,0.00023087,-0.00004603,0.00008690,0.00098225,-0.000
 85955,0.00156641,0.00039814,0.00003200,-0.00012142,-0.00012244,0.00003
 138,0.00004503,-0.00000837,-0.00002606,0.00000075,0.04007486,0.0041652
 3,-0.07734103,0.01005060,0.03179709,0.59282010,0.00002032,0.00010440,0
 .00009383,0.00019681,0.00043274,-0.00013750,-0.00105054,0.00099210,0.0
 0115972,-0.00000794,-0.00008414,0.00003916,-0.00000298,0.00000830,-0.0
 0000449,-0.00001888,0.00001001,-0.00004200,-0.00002450,0.00000465,0.00
 000464,-0.00042681,-0.00130511,0.00008824,-0.00204112,-0.00402636,-0.0
 0006730,-0.00004637,0.00004228,0.00003152,0.00003601,-0.00006545,0.000
 01260,0.00006584,-0.00009916,-0.00002212,-0.00039870,-0.00018769,-0.00
 004735,0.00017829,0.00002444,-0.00000566,-0.00009192,0.00003281,0.0000
 0256,-0.00000916,-0.00002500,-0.00000737,-0.02979144,0.02088039,0.0225
 1060,-0.10557439,0.09015070,0.06072703,0.12900254,0.00001943,0.0000678
 4,0.00009158,0.00015085,0.00048590,-0.00025830,-0.00057901,0.00054680,
 0.00033702,0.00024892,-0.00007197,0.00004960,-0.00002412,0.00002522,-0
 .00002269,-0.00002086,0.00001824,-0.00002726,-0.00002085,0.00000728,-0
 .00001772,-0.00053845,-0.00107556,-0.00025769,-0.00295365,-0.00043719,
 0.00100583,-0.00004539,0.00001954,-0.00001898,0.00003066,-0.00002347,-
 0.00001313,0.00012535,-0.00010581,0.00003904,-0.00015348,-0.00009660,0
 .00002095,-0.00020859,-0.00009013,0.00016729,0.00007162,-0.00000018,-0
 .00010946,0.00001267,0.00003222,0.00000307,-0.01274782,0.01373714,0.01
 136410,0.10146148,-0.20306083,-0.10788086,-0.09923627,0.21006043,0.000
 00987,-0.00001518,-0.00007724,0.00010148,-0.00006541,0.00008163,0.0004
 3068,-0.00034035,-0.00022253,0.00008963,0.00005498,0.00001503,0.000020
 77,-0.00002767,0.00001144,-0.00000242,-0.00001155,0.00002398,0.0000157
 4,0.00000904,-0.00000209,0.00003724,0.00001267,0.00045689,-0.00006817,
 0.00155325,0.00094373,0.00003308,-0.00002997,0.00003588,0.00000689,0.0
 0000797,0.00001390,-0.00004187,0.00001809,-0.00006660,0.00007196,0.000
 05714,0.00000312,-0.00014988,-0.00002732,0.00005051,0.00008205,-0.0000
 2557,-0.00004459,0.00000351,0.00001562,0.00000840,0.01005276,-0.004965
 17,-0.00586800,0.06498490,-0.10243870,-0.12604921,-0.07789631,0.111795
 21,0.13076302,0.00020667,0.00034959,0.00033426,-0.00018664,0.00056694,
 -0.00011761,-0.00179008,0.00031528,0.00092818,0.00032154,-0.00036271,0
 .00011568,-0.00001066,-0.00000495,-0.00002676,-0.00005896,0.00002814,-
 0.00008124,-0.00001253,0.00000155,0.00000280,0.00021977,0.00006684,0.0
 0061882,0.00513161,-0.00404139,-0.00572517,-0.00004240,0.00004325,0.00
 001520,0.00015112,0.00024618,-0.00023123,0.00010995,-0.00002124,-0.000
 00688,0.00006113,-0.00030540,0.00037674,0.00002525,-0.00009263,0.00008
 317,-0.00004207,0.00003252,-0.00001799,0.00000887,0.00000253,0.0000038
 5,-0.03425323,-0.01494386,-0.01606667,-0.11939698,-0.02965358,-0.10716
 826,0.01078305,0.00312789,0.01243297,0.14069072,-0.00029121,-0.0000642
 6,-0.00016204,0.00030415,-0.00006106,-0.00012601,-0.00041278,0.0000337
 2,0.00047512,-0.00010871,0.00025357,-0.00005593,-0.00002716,0.00005135
 ,0.00000792,0.00002838,0.00001514,-0.00002364,-0.00000198,-0.00005304,
 0.00003118,-0.00013626,0.00026760,0.00085803,0.00216839,-0.00126666,-0
 .00130769,-0.00000337,0.00004386,0.00005486,0.00004988,0.00008203,-0.0
 0010391,-0.00005081,-0.00001682,-0.00010341,0.00002013,-0.00007057,0.0
 0010199,0.00023810,0.00001966,-0.00008602,-0.00009764,0.00004458,0.000
 06828,-0.00000257,-0.00002164,-0.00000341,-0.01741913,-0.00484661,-0.0
 0814637,-0.03096053,-0.06889821,-0.05151505,-0.01263919,-0.00424153,-0
 .01989178,0.04316796,0.07213805,-0.00045769,-0.00004801,-0.00031974,0.
 00084322,0.00024553,-0.00037588,0.00021036,0.00025632,-0.00014536,0.00
 006074,0.00041263,-0.00008356,0.00003371,-0.00004682,0.00001614,-0.000
 01458,-0.00000032,0.00000639,0.00004756,-0.00000491,0.00004868,-0.0013
 1824,-0.00132754,0.00045424,-0.00016261,0.00004042,0.00145832,-0.00001
 122,0.00000512,0.00005663,0.00005084,-0.00005055,0.00008053,0.00004756
 ,-0.00014141,-0.00017082,-0.00004078,0.00006766,-0.00011892,0.00003037
 ,-0.00000905,0.00001728,-0.00002385,0.00001679,0.00004349,-0.00000495,
 0.00000793,0.00000237,0.00745424,0.00316710,0.01683748,-0.11211449,-0.
 05214789,-0.23127051,-0.00813073,-0.00215140,-0.01209601,0.12075277,0.
 05807812,0.24011030,0.00045436,0.00044372,0.00079959,-0.00104695,0.000
 63358,-0.00053690,-0.00202176,0.00027178,-0.00050313,0.00009800,-0.000
 71775,0.00017848,0.00000934,0.00007378,-0.00004094,-0.00009562,0.00006
 551,-0.00018185,-0.00013340,0.00001308,-0.00005785,0.00070154,0.000496
 03,-0.00008108,0.00612355,-0.00364426,-0.00193872,0.00001792,-0.000002
 66,0.00010056,0.00022061,-0.00004425,0.00019517,0.00000822,0.00001425,
 0.00002768,-0.00006667,0.00008183,-0.00008710,0.00010235,-0.00008504,-
 0.00003965,-0.00004375,0.00006144,0.00000342,0.00001272,-0.00001645,-0
 .00000227,-0.00697563,-0.03260408,0.02600411,-0.06201634,0.04187915,-0
 .03066867,-0.00123818,0.01043368,-0.01009651,-0.00082902,0.01477940,-0
 .00865326,0.06712162,-0.00038511,-0.00007428,-0.00037265,0.00067781,-0
 .00002146,0.00016654,-0.00063040,0.00036517,0.00056194,0.00006529,0.00
 048964,-0.00001294,-0.00008377,0.00007916,0.00000876,0.00004983,-0.000
 00056,0.00001101,-0.00005243,-0.00006423,0.00002240,-0.00083471,-0.000
 05025,0.00000695,0.00236886,-0.00146766,-0.00278753,-0.00007616,0.0000
 8754,-0.00005094,0.00014909,-0.00000358,0.00009352,0.00007878,-0.00005
 116,0.00002146,-0.00001601,-0.00003639,0.00001137,0.00011552,-0.000034
 87,0.00006585,-0.00005807,0.00002592,-0.00006747,-0.00000463,-0.000005
 61,-0.00000288,-0.01226490,-0.01177227,0.01082023,0.03804484,-0.214163
 51,0.11929348,0.00468185,-0.01615383,0.01411253,-0.00010567,0.00750757
 ,-0.00611300,-0.03231205,0.23518863,-0.00015516,-0.00026516,-0.0003136
 3,0.00021814,-0.00075476,0.00051331,0.00130850,-0.00035103,-0.00016148
 ,-0.00033458,0.00031654,-0.00013559,0.00009593,-0.00006349,0.00005145,
 0.00004563,-0.00004500,0.00008483,0.00003948,-0.00000306,0.00004018,0.
 00024920,0.00087228,-0.00006937,-0.00316297,0.00241132,0.00176114,0.00
 003516,-0.00000663,-0.00003959,-0.00014003,-0.00003110,-0.00005083,-0.
 00018254,0.00009823,-0.00005741,-0.00000070,0.00007205,-0.00005853,0.0
 0015541,0.00012214,-0.00016165,-0.00004924,-0.00002119,0.00010411,-0.0
 0002124,-0.00002577,-0.00000562,0.00940717,0.00794821,-0.00446370,-0.0
 2789938,0.11738604,-0.14218173,0.00203481,-0.01406491,0.01228362,-0.00
 586188,0.02161679,-0.01465798,0.02433740,-0.13455663,0.14897202,-0.000
 40149,-0.00030669,-0.00025060,-0.01713249,-0.00995140,0.00705323,0.001
 15364,-0.00136481,0.00070683,0.00085667,0.00072712,0.00015282,-0.00009
 514,0.00007400,-0.00027372,0.00011794,-0.00003976,0.00010904,-0.000009
 19,-0.00005942,0.00002175,-0.28339404,-0.10607424,0.06102310,-0.002224
 49,-0.00191256,0.00124480,0.00041798,0.00057997,-0.00182313,-0.0002190
 0,0.00016364,0.00005479,-0.00004596,0.00244477,0.00194716,0.00009328,0
 .00011559,-0.00001563,-0.00047588,0.00004143,0.00079993,-0.00015036,-0
 .00024407,-0.00061294,-0.00001106,0.00001879,-0.00002872,-0.00135715,0
 .00011244,-0.00016638,-0.00175088,0.00256505,0.00182694,0.00044008,0.0
 0084594,-0.00011839,-0.00108713,0.00139493,0.00140104,-0.00040290,0.00
 059203,-0.00011912,0.30567755,0.00094453,0.00074936,0.00115906,0.01879
 524,0.01143653,-0.00782997,-0.00056406,-0.00517323,-0.00416762,-0.0000
 7338,-0.00130395,0.00014015,-0.00019404,0.00006454,0.00007831,-0.00020
 420,0.00012374,-0.00033053,-0.00012085,0.00005482,-0.00004676,-0.10538
 707,-0.10577226,0.02076379,-0.02820792,-0.00375700,0.00941155,0.000357
 05,0.00058848,0.00125713,-0.00153303,-0.00051283,0.00015299,0.00186708
 ,-0.00192324,-0.00199822,0.00022829,0.00012946,0.00018294,0.00028991,-
 0.00028099,-0.00042855,0.00011893,0.00027785,0.00036060,0.00003452,0.0
 0002041,0.00002789,0.00173048,0.00126364,0.00029642,-0.00042452,-0.001
 88795,-0.00054644,0.00030371,0.00035649,0.00020217,0.00158276,-0.00091
 673,-0.00025672,0.00017931,0.00015602,-0.00065486,0.11027726,0.1063068
 4,-0.00070555,-0.00091467,-0.00094801,0.01080110,0.00368959,0.00155481
 ,0.00160456,-0.00237556,0.00223272,0.00052270,0.00076623,0.00013954,0.
 00016318,0.00012970,-0.00009890,0.00010918,-0.00008172,0.00034683,0.00
 001771,-0.00006367,0.00005157,0.06516665,0.02270780,-0.05013924,-0.006
 96461,-0.00453154,0.00493061,-0.00223695,0.00147117,-0.00434608,-0.000
 51675,0.00001979,0.00001863,0.00492246,-0.00216547,0.00527968,-0.00005
 672,-0.00024957,-0.00014955,-0.00044952,0.00020174,0.00053114,-0.00021
 379,-0.00032457,-0.00032642,-0.00010260,0.00011108,-0.00005389,-0.0007
 1610,0.00242089,-0.00137493,0.00105096,-0.00198752,-0.00100120,-0.0003
 4387,-0.00005129,-0.00026485,-0.00036075,0.00023296,0.00010696,0.00124
 152,-0.00123199,-0.00145353,-0.07293282,-0.01777335,0.04496410\\0.0000
 0273,-0.00000964,0.00001390,-0.00000666,0.00000685,-0.00000432,0.00002
 469,-0.00000861,0.00001044,-0.00000224,-0.00000099,0.00000321,0.000000
 20,0.00000157,0.00000237,-0.00000488,0.00000015,-0.00000421,-0.0000040
 8,0.00000465,-0.00000588,-0.00000673,0.00001242,0.00001631,0.00002102,
 -0.00003734,-0.00000798,0.00000419,-0.00000155,0.00000051,0.00000178,-
 0.00000165,0.00000404,0.00000531,-0.00000277,0.00000258,-0.00000975,0.
 00000976,-0.00001410,0.00000284,-0.00000132,-0.00000198,-0.00000940,0.
 00000402,-0.00000311,0.00000572,-0.00000781,0.00000587,-0.00003597,0.0
 0005687,0.00000154,0.00003579,-0.00002663,-0.00000613,-0.00000084,0.00
 000579,-0.00000818,0.00000073,-0.00000935,-0.00000511,0.00000363,-0.00
 001143,0.00000428,-0.00002809,0.00001699,-0.00000405\\\@
 The archive entry for this job was punched.


            ARSENIC

 FOR SMELTER FUMES HAVE I BEEN NAMED,
    I AM AN EVIL POISONOUS SMOKE...
 BUT WHEN FROM POISON I AM FREED,
    THROUGH ART AND SLEIGHT OF HAND,
 THEN CAN I CURE BOTH MAN AND BEAST,
    FROM DIRE DISEASE OFTTIMES DIRECT THEM;
 BUT PREPARE ME CORRECTLY, AND TAKE GREAT CARE
    THAT YOU FAITHFULLY KEEP WATCHFUL GUARD OVER ME;
 FOR ELSE I AM POISON, AND POISON REMAIN,
    THAT PIERCES THE HEART OF MANY A ONE.

 ATTRIBUTED TO THE PROBABLY MYTHICAL 15TH
 CENTURY MONK, BASILIUS VALENTINUS
 Job cpu time:       0 days  0 hours 23 minutes 24.1 seconds.
 Elapsed time:       0 days  0 hours  1 minutes 30.6 seconds.
 File lengths (MBytes):  RWF=     84 Int=      0 D2E=      0 Chk=      4 Scr=      1
 Normal termination of Gaussian 16 at Tue Jun 21 10:41:24 2022.
