Job Start Time: Tue Jun 21 10:22:20 MDT 2022
SLURM Job ID: 40867
SLURM Job Name: DATS_14_endo_iii
 Entering Gaussian System, Link 0=/opt/apps/Gaussian/G16C/g16/g16
 Initial command:
 /opt/apps/Gaussian/G16C/g16/l1.exe "/tmp/Gau-3052385.inp" -scrdir="/tmp/"
 Entering Link 1 = /opt/apps/Gaussian/G16C/g16/l1.exe PID=   3052386.
  
 Copyright (c) 1988-2019, Gaussian, Inc.  All Rights Reserved.
  
 This is part of the Gaussian(R) 16 program.  It is based on
 the Gaussian(R) 09 system (copyright 2009, Gaussian, Inc.),
 the Gaussian(R) 03 system (copyright 2003, Gaussian, Inc.),
 the Gaussian(R) 98 system (copyright 1998, Gaussian, Inc.),
 the Gaussian(R) 94 system (copyright 1995, Gaussian, Inc.),
 the Gaussian 92(TM) system (copyright 1992, Gaussian, Inc.),
 the Gaussian 90(TM) system (copyright 1990, Gaussian, Inc.),
 the Gaussian 88(TM) system (copyright 1988, Gaussian, Inc.),
 the Gaussian 86(TM) system (copyright 1986, Carnegie Mellon
 University), and the Gaussian 82(TM) system (copyright 1983,
 Carnegie Mellon University). Gaussian is a federally registered
 trademark of Gaussian, Inc.
  
 This software contains proprietary and confidential information,
 including trade secrets, belonging to Gaussian, Inc.
  
 This software is provided under written license and may be
 used, copied, transmitted, or stored only in accord with that
 written license.
  
 The following legend is applicable only to US Government
 contracts under FAR:
  
                    RESTRICTED RIGHTS LEGEND
  
 Use, reproduction and disclosure by the US Government is
 subject to restrictions as set forth in subparagraphs (a)
 and (c) of the Commercial Computer Software - Restricted
 Rights clause in FAR 52.227-19.
  
 Gaussian, Inc.
 340 Quinnipiac St., Bldg. 40, Wallingford CT 06492
  
  
 ---------------------------------------------------------------
 Warning -- This program may not be used in any manner that
 competes with the business of Gaussian, Inc. or will provide
 assistance to any competitor of Gaussian, Inc.  The licensee
 of this program is prohibited from giving any competitor of
 Gaussian, Inc. access to this program.  By using this program,
 the user acknowledges that Gaussian, Inc. is engaged in the
 business of creating and licensing software in the field of
 computational chemistry and represents and warrants to the
 licensee that it is not a competitor of Gaussian, Inc. and that
 it will not use this program in any manner prohibited above.
 ---------------------------------------------------------------
  

 Cite this work as:
 Gaussian 16, Revision C.01,
 M. J. Frisch, G. W. Trucks, H. B. Schlegel, G. E. Scuseria, 
 M. A. Robb, J. R. Cheeseman, G. Scalmani, V. Barone, 
 G. A. Petersson, H. Nakatsuji, X. Li, M. Caricato, A. V. Marenich, 
 J. Bloino, B. G. Janesko, R. Gomperts, B. Mennucci, H. P. Hratchian, 
 J. V. Ortiz, A. F. Izmaylov, J. L. Sonnenberg, D. Williams-Young, 
 F. Ding, F. Lipparini, F. Egidi, J. Goings, B. Peng, A. Petrone, 
 T. Henderson, D. Ranasinghe, V. G. Zakrzewski, J. Gao, N. Rega, 
 G. Zheng, W. Liang, M. Hada, M. Ehara, K. Toyota, R. Fukuda, 
 J. Hasegawa, M. Ishida, T. Nakajima, Y. Honda, O. Kitao, H. Nakai, 
 T. Vreven, K. Throssell, J. A. Montgomery, Jr., J. E. Peralta, 
 F. Ogliaro, M. J. Bearpark, J. J. Heyd, E. N. Brothers, K. N. Kudin, 
 V. N. Staroverov, T. A. Keith, R. Kobayashi, J. Normand, 
 K. Raghavachari, A. P. Rendell, J. C. Burant, S. S. Iyengar, 
 J. Tomasi, M. Cossi, J. M. Millam, M. Klene, C. Adamo, R. Cammi, 
 J. W. Ochterski, R. L. Martin, K. Morokuma, O. Farkas, 
 J. B. Foresman, and D. J. Fox, Gaussian, Inc., Wallingford CT, 2019.
 
 ******************************************
 Gaussian 16:  AS64L-G16RevC.01  3-Jul-2019
                21-Jun-2022 
 ******************************************
 %nprocshared=16
 Will use up to   16 processors via shared memory.
 -------------------------------------------------
 # opt=(calcfc,ts,noeigentest) freq 6-31g(d) m062x
 -------------------------------------------------
 1/5=1,10=4,11=1,18=20,26=3,38=1/1,3;
 2/9=110,12=2,17=6,18=5,40=1/2;
 3/5=1,6=6,7=1,11=2,25=1,30=1,71=2,74=-55,140=1/1,2,3;
 4//1;
 5/5=2,38=5/2;
 8/6=4,10=90,11=11/1;
 11/6=1,8=1,9=11,15=111,16=1/1,2,10;
 10/6=1,13=1/2;
 6/7=2,8=2,9=2,10=2,28=1/1;
 7/10=1,25=1/1,2,3,16;
 1/5=1,10=4,11=1,18=20,26=3/3(2);
 2/9=110/2;
 99//99;
 2/9=110/2;
 3/5=1,6=6,7=1,11=2,25=1,30=1,71=1,74=-55/1,2,3;
 4/5=5,16=3,69=1/1;
 5/5=2,38=5/2;
 7//1,2,3,16;
 1/5=1,11=1,18=20,26=3/3(-5);
 2/9=110/2;
 6/7=2,8=2,9=2,10=2,19=2,28=1/1;
 99/9=1/99;
 -------------------
 Title Card Required
 -------------------
 Symbolic Z-matrix:
 Charge =  0 Multiplicity = 1
 C                    -1.46442  -0.56807  -1.32635 
 C                     0.09333  -1.72764  -0.63331 
 C                    -0.6618   -0.69789   1.96113 
 C                    -2.10543   0.14941  -0.32654 
 H                    -0.79352  -0.00613  -1.97025 
 H                    -1.97319  -1.40925  -1.78957 
 H                    -3.02228  -0.19298   0.14161 
 C                     0.87261  -0.81866   0.0633 
 C                     0.5031   -0.35359   1.37092 
 H                     0.48015  -2.07894  -1.58449 
 H                    -0.94845  -0.2551    2.90938 
 H                     1.11468   0.41255   1.83475 
 H                    -0.51082  -2.43206  -0.07673 
 H                    -1.30902  -1.4761    1.57811 
 O                     1.91672  -0.30717  -0.61036 
 C                     2.5086    0.90066  -0.1528 
 H                     3.06613   0.73688   0.77628 
 H                     3.20547   1.19806  -0.9361 
 H                     1.74024   1.66695  -0.01562 
 C                    -1.52803   1.4075    0.06487 
 O                    -2.01005   2.12728   0.93898 
 H                    -0.61474   1.72882  -0.47428 
 
 Add virtual bond connecting atoms C2         and C1         Dist= 3.90D+00.

 GradGradGradGradGradGradGradGradGradGradGradGradGradGradGradGradGradGrad
 Berny optimization.
 Initialization pass.
                           ----------------------------
                           !    Initial Parameters    !
                           ! (Angstroms and Degrees)  !
 --------------------------                            --------------------------
 ! Name  Definition              Value          Derivative Info.                !
 --------------------------------------------------------------------------------
 ! R1    R(1,2)                  2.0619         calculate D2E/DX2 analytically  !
 ! R2    R(1,4)                  1.3876         calculate D2E/DX2 analytically  !
 ! R3    R(1,5)                  1.0865         calculate D2E/DX2 analytically  !
 ! R4    R(1,6)                  1.0867         calculate D2E/DX2 analytically  !
 ! R5    R(2,8)                  1.3852         calculate D2E/DX2 analytically  !
 ! R6    R(2,10)                 1.0853         calculate D2E/DX2 analytically  !
 ! R7    R(2,13)                 1.0821         calculate D2E/DX2 analytically  !
 ! R8    R(3,9)                  1.3505         calculate D2E/DX2 analytically  !
 ! R9    R(3,11)                 1.0851         calculate D2E/DX2 analytically  !
 ! R10   R(3,14)                 1.0822         calculate D2E/DX2 analytically  !
 ! R11   R(4,7)                  1.0849         calculate D2E/DX2 analytically  !
 ! R12   R(4,20)                 1.4385         calculate D2E/DX2 analytically  !
 ! R13   R(8,9)                  1.4362         calculate D2E/DX2 analytically  !
 ! R14   R(8,15)                 1.3437         calculate D2E/DX2 analytically  !
 ! R15   R(9,12)                 1.0845         calculate D2E/DX2 analytically  !
 ! R16   R(15,16)                1.4208         calculate D2E/DX2 analytically  !
 ! R17   R(16,17)                1.0958         calculate D2E/DX2 analytically  !
 ! R18   R(16,18)                1.0898         calculate D2E/DX2 analytically  !
 ! R19   R(16,19)                1.0938         calculate D2E/DX2 analytically  !
 ! R20   R(20,21)                1.2306         calculate D2E/DX2 analytically  !
 ! R21   R(20,22)                1.1082         calculate D2E/DX2 analytically  !
 ! A1    A(2,1,4)              113.4295         calculate D2E/DX2 analytically  !
 ! A2    A(2,1,5)               91.3497         calculate D2E/DX2 analytically  !
 ! A3    A(2,1,6)               93.5351         calculate D2E/DX2 analytically  !
 ! A4    A(4,1,5)              116.4141         calculate D2E/DX2 analytically  !
 ! A5    A(4,1,6)              119.4123         calculate D2E/DX2 analytically  !
 ! A6    A(5,1,6)              115.9008         calculate D2E/DX2 analytically  !
 ! A7    A(1,2,8)              103.0036         calculate D2E/DX2 analytically  !
 ! A8    A(1,2,10)              99.0173         calculate D2E/DX2 analytically  !
 ! A9    A(1,2,13)              96.7289         calculate D2E/DX2 analytically  !
 ! A10   A(8,2,10)             116.9147         calculate D2E/DX2 analytically  !
 ! A11   A(8,2,13)             118.8543         calculate D2E/DX2 analytically  !
 ! A12   A(10,2,13)            116.0454         calculate D2E/DX2 analytically  !
 ! A13   A(9,3,11)             120.3807         calculate D2E/DX2 analytically  !
 ! A14   A(9,3,14)             122.9906         calculate D2E/DX2 analytically  !
 ! A15   A(11,3,14)            116.4069         calculate D2E/DX2 analytically  !
 ! A16   A(1,4,7)              122.5587         calculate D2E/DX2 analytically  !
 ! A17   A(1,4,20)             117.5707         calculate D2E/DX2 analytically  !
 ! A18   A(7,4,20)             119.8549         calculate D2E/DX2 analytically  !
 ! A19   A(2,8,9)              121.7106         calculate D2E/DX2 analytically  !
 ! A20   A(2,8,15)             115.7722         calculate D2E/DX2 analytically  !
 ! A21   A(9,8,15)             122.2151         calculate D2E/DX2 analytically  !
 ! A22   A(3,9,8)              122.4973         calculate D2E/DX2 analytically  !
 ! A23   A(3,9,12)             118.6603         calculate D2E/DX2 analytically  !
 ! A24   A(8,9,12)             118.2339         calculate D2E/DX2 analytically  !
 ! A25   A(8,15,16)            119.0684         calculate D2E/DX2 analytically  !
 ! A26   A(15,16,17)           110.9735         calculate D2E/DX2 analytically  !
 ! A27   A(15,16,18)           105.4809         calculate D2E/DX2 analytically  !
 ! A28   A(15,16,19)           110.0796         calculate D2E/DX2 analytically  !
 ! A29   A(17,16,18)           108.9558         calculate D2E/DX2 analytically  !
 ! A30   A(17,16,19)           110.8408         calculate D2E/DX2 analytically  !
 ! A31   A(18,16,19)           110.375          calculate D2E/DX2 analytically  !
 ! A32   A(4,20,21)            123.1996         calculate D2E/DX2 analytically  !
 ! A33   A(4,20,22)            116.8726         calculate D2E/DX2 analytically  !
 ! A34   A(21,20,22)           119.9195         calculate D2E/DX2 analytically  !
 ! D1    D(4,1,2,8)            -53.5423         calculate D2E/DX2 analytically  !
 ! D2    D(4,1,2,10)          -174.0091         calculate D2E/DX2 analytically  !
 ! D3    D(4,1,2,13)            68.191          calculate D2E/DX2 analytically  !
 ! D4    D(5,1,2,8)             66.139          calculate D2E/DX2 analytically  !
 ! D5    D(5,1,2,10)           -54.3278         calculate D2E/DX2 analytically  !
 ! D6    D(5,1,2,13)          -172.1277         calculate D2E/DX2 analytically  !
 ! D7    D(6,1,2,8)           -177.8066         calculate D2E/DX2 analytically  !
 ! D8    D(6,1,2,10)            61.7266         calculate D2E/DX2 analytically  !
 ! D9    D(6,1,2,13)           -56.0733         calculate D2E/DX2 analytically  !
 ! D10   D(2,1,4,7)            -97.5761         calculate D2E/DX2 analytically  !
 ! D11   D(2,1,4,20)            83.8673         calculate D2E/DX2 analytically  !
 ! D12   D(5,1,4,7)            158.3062         calculate D2E/DX2 analytically  !
 ! D13   D(5,1,4,20)           -20.2503         calculate D2E/DX2 analytically  !
 ! D14   D(6,1,4,7)             11.1744         calculate D2E/DX2 analytically  !
 ! D15   D(6,1,4,20)          -167.3822         calculate D2E/DX2 analytically  !
 ! D16   D(1,2,8,9)             76.8388         calculate D2E/DX2 analytically  !
 ! D17   D(1,2,8,15)           -96.9793         calculate D2E/DX2 analytically  !
 ! D18   D(10,2,8,9)          -175.8457         calculate D2E/DX2 analytically  !
 ! D19   D(10,2,8,15)           10.3362         calculate D2E/DX2 analytically  !
 ! D20   D(13,2,8,9)           -28.501          calculate D2E/DX2 analytically  !
 ! D21   D(13,2,8,15)          157.6809         calculate D2E/DX2 analytically  !
 ! D22   D(11,3,9,8)          -174.3303         calculate D2E/DX2 analytically  !
 ! D23   D(11,3,9,12)           -3.4377         calculate D2E/DX2 analytically  !
 ! D24   D(14,3,9,8)            11.2779         calculate D2E/DX2 analytically  !
 ! D25   D(14,3,9,12)         -177.8294         calculate D2E/DX2 analytically  !
 ! D26   D(1,4,20,21)          180.0            calculate D2E/DX2 analytically  !
 ! D27   D(1,4,20,22)            1.0468         calculate D2E/DX2 analytically  !
 ! D28   D(7,4,20,21)            1.4027         calculate D2E/DX2 analytically  !
 ! D29   D(7,4,20,22)         -177.5505         calculate D2E/DX2 analytically  !
 ! D30   D(2,8,9,3)             -4.6293         calculate D2E/DX2 analytically  !
 ! D31   D(2,8,9,12)          -175.5589         calculate D2E/DX2 analytically  !
 ! D32   D(15,8,9,3)           168.7891         calculate D2E/DX2 analytically  !
 ! D33   D(15,8,9,12)           -2.1406         calculate D2E/DX2 analytically  !
 ! D34   D(2,8,15,16)          160.7172         calculate D2E/DX2 analytically  !
 ! D35   D(9,8,15,16)          -13.0667         calculate D2E/DX2 analytically  !
 ! D36   D(8,15,16,17)          71.3844         calculate D2E/DX2 analytically  !
 ! D37   D(8,15,16,18)        -170.7659         calculate D2E/DX2 analytically  !
 ! D38   D(8,15,16,19)         -51.6949         calculate D2E/DX2 analytically  !
 --------------------------------------------------------------------------------
 Trust Radius=3.00D-01 FncErr=1.00D-07 GrdErr=1.00D-06 EigMax=2.50D+02 EigMin=1.00D-04
 Number of steps in this run=    103 maximum allowed number of steps=    132.
 Search for a saddle point of order  1.
 GradGradGradGradGradGradGradGradGradGradGradGradGradGradGradGradGradGrad

                          Input orientation:                          
 ---------------------------------------------------------------------
 Center     Atomic      Atomic             Coordinates (Angstroms)
 Number     Number       Type             X           Y           Z
 ---------------------------------------------------------------------
      1          6           0       -1.464415   -0.568069   -1.326353
      2          6           0        0.093334   -1.727641   -0.633314
      3          6           0       -0.661802   -0.697890    1.961129
      4          6           0       -2.105435    0.149406   -0.326537
      5          1           0       -0.793518   -0.006127   -1.970248
      6          1           0       -1.973191   -1.409247   -1.789571
      7          1           0       -3.022283   -0.192977    0.141608
      8          6           0        0.872608   -0.818663    0.063303
      9          6           0        0.503101   -0.353587    1.370921
     10          1           0        0.480154   -2.078938   -1.584489
     11          1           0       -0.948452   -0.255096    2.909377
     12          1           0        1.114683    0.412547    1.834752
     13          1           0       -0.510818   -2.432057   -0.076729
     14          1           0       -1.309017   -1.476100    1.578107
     15          8           0        1.916719   -0.307165   -0.610363
     16          6           0        2.508600    0.900663   -0.152804
     17          1           0        3.066130    0.736876    0.776283
     18          1           0        3.205472    1.198063   -0.936099
     19          1           0        1.740240    1.666946   -0.015622
     20          6           0       -1.528032    1.407502    0.064869
     21          8           0       -2.010049    2.127276    0.938984
     22          1           0       -0.614741    1.728824   -0.474279
 ---------------------------------------------------------------------
                    Distance matrix (angstroms):
                    1          2          3          4          5
     1  C    0.000000
     2  C    2.061915   0.000000
     3  C    3.386529   2.891669   0.000000
     4  C    1.387555   2.907233   2.834679   0.000000
     5  H    1.086500   2.353191   3.993947   2.108815   0.000000
     6  H    1.086740   2.389316   4.036523   2.141811   1.842015
     7  H    2.173144   3.558478   3.022824   1.084895   3.076076
     8  C    2.730498   1.385202   2.443511   3.155610   2.751640
     9  C    3.345506   2.464324   1.350514   3.152590   3.600744
    10  H    2.476027   1.085253   3.972753   3.637751   2.463249
    11  H    4.278502   3.975471   1.085085   3.460256   4.888428
    12  H    4.195943   3.422705   2.098795   3.887103   4.277212
    13  H    2.438311   1.082122   2.680111   3.044529   3.090383
    14  H    3.047057   2.630636   1.082222   2.627588   3.875227
    15  O    3.465946   2.311496   3.662514   4.057923   3.047178
    16  C    4.395366   3.601719   4.132255   4.678022   3.876771
    17  H    5.162344   4.110757   4.166520   5.320378   4.795036
    18  H    5.007930   4.282152   5.190797   5.447658   4.302494
    19  H    4.121058   3.823227   3.907659   4.145939   3.611048
    20  C    2.417111   3.597973   2.962909   1.438540   2.584484
    21  O    3.562914   4.664411   3.293040   2.350024   3.807229
    22  H    2.593009   3.531829   3.438367   2.176823   2.297812
                    6          7          8          9         10
     6  H    0.000000
     7  H    2.511844   0.000000
     8  C    3.446811   3.945604   0.000000
     9  C    4.151524   3.737023   1.436209   0.000000
    10  H    2.551362   4.336280   2.111287   3.422252   0.000000
    11  H    4.945934   3.459072   3.425493   2.117440   5.055902
    12  H    5.098001   4.510863   2.170832   1.084497   4.278006
    13  H    2.473561   3.371736   2.129910   2.728325   1.838494
    14  H    3.433198   2.577831   2.736118   2.141666   3.683281
    15  O    4.211474   4.997223   1.343735   2.434329   2.480286
    16  C    5.301051   5.645653   2.383119   2.813700   3.878445
    17  H    6.048488   6.191624   2.782010   2.848126   4.493253
    18  H    5.860463   6.471582   3.241642   3.877211   4.311207
    19  H    5.138037   5.115238   2.633869   2.745099   4.252153
    20  C    3.401645   2.190938   3.273971   2.988764   4.348386
    21  O    4.466919   2.654054   4.213679   3.557693   5.501024
    22  H    3.663723   3.141479   2.998482   2.998461   4.114658
                   11         12         13         14         15
    11  H    0.000000
    12  H    2.420143   0.000000
    13  H    3.721224   3.793123   0.000000
    14  H    1.842047   3.083371   2.071101   0.000000
    15  O    4.538776   2.672047   3.269995   4.069543   0.000000
    16  C    4.760666   2.476215   4.497743   4.818636   1.420750
    17  H    4.653060   2.243589   4.854310   4.968108   2.081815
    18  H    5.844180   3.558939   5.265653   5.818332   2.008158
    19  H    4.413494   2.321362   4.676839   4.660116   2.069294
    20  C    3.345351   3.332621   3.974542   3.263896   3.906703
    21  O    3.268812   3.675139   4.905801   3.726157   4.873037
    22  H    3.936550   3.170980   4.181121   3.868571   3.251471
                   16         17         18         19         20
    16  C    0.000000
    17  H    1.095841   0.000000
    18  H    1.089784   1.778865   0.000000
    19  H    1.093794   1.802811   1.792773   0.000000
    20  C    4.074146   4.697039   4.842712   3.279541   0.000000
    21  O    4.807783   5.265670   5.619701   3.897159   1.230647
    22  H    3.247223   4.012067   3.884458   2.400027   1.108164
                   21         22
    21  O    0.000000
    22  H    2.025577   0.000000
 Stoichiometry    C8H12O2
 Framework group  C1[X(C8H12O2)]
 Deg. of freedom    60
 Full point group                 C1      NOp   1
 Largest Abelian subgroup         C1      NOp   1
 Largest concise Abelian subgroup C1      NOp   1
                         Standard orientation:                         
 ---------------------------------------------------------------------
 Center     Atomic      Atomic             Coordinates (Angstroms)
 Number     Number       Type             X           Y           Z
 ---------------------------------------------------------------------
      1          6           0        0.925405    1.570106   -0.932384
      2          6           0       -0.759731    1.753570    0.241562
      3          6           0        0.568163   -0.156880    1.958719
      4          6           0        1.851534    0.666751   -0.430841
      5          1           0        0.331253    1.234066   -1.777690
      6          1           0        1.145779    2.633774   -0.899975
      7          1           0        2.711677    0.976183    0.153454
      8          6           0       -1.191678    0.444079    0.373617
      9          6           0       -0.546226   -0.477357    1.266390
     10          1           0       -1.345754    2.401617   -0.402165
     11          1           0        1.079952   -0.907027    2.552657
     12          1           0       -0.883560   -1.508040    1.271839
     13          1           0       -0.276286    2.231418    1.083543
     14          1           0        0.947706    0.854145    2.029281
     15          8           0       -2.160548    0.060104   -0.474603
     16          6           0       -2.371940   -1.326824   -0.698828
     17          1           0       -2.821487   -1.802231    0.180242
     18          1           0       -3.074519   -1.383341   -1.529982
     19          1           0       -1.428424   -1.812438   -0.964048
     20          6           0        1.657363   -0.725253   -0.737469
     21          8           0        2.414355   -1.613325   -0.346593
     22          1           0        0.785877   -0.981521   -1.372187
 ---------------------------------------------------------------------
 Rotational constants (GHZ):           1.6848437           0.9964612           0.8942268
 Standard basis: 6-31G(d) (6D, 7F)
 There are   174 symmetry adapted cartesian basis functions of A   symmetry.
 There are   174 symmetry adapted basis functions of A   symmetry.
   174 basis functions,   328 primitive gaussians,   174 cartesian basis functions
    38 alpha electrons       38 beta electrons
       nuclear repulsion energy       534.2187250171 Hartrees.
 NAtoms=   22 NActive=   22 NUniq=   22 SFac= 1.00D+00 NAtFMM=   60 NAOKFM=F Big=F
 Integral buffers will be    131072 words long.
 Raffenetti 2 integral format.
 Two-electron integral symmetry is turned on.
 One-electron integrals computed using PRISM.
 NBasis=   174 RedAO= T EigKep=  2.02D-03  NBF=   174
 NBsUse=   174 1.00D-06 EigRej= -1.00D+00 NBFU=   174
 ExpMin= 1.61D-01 ExpMax= 5.48D+03 ExpMxC= 8.25D+02 IAcc=3 IRadAn=         5 AccDes= 0.00D+00
 Harris functional with IExCor= 1009 and IRadAn=       5 diagonalized for initial guess.
 HarFok:  IExCor= 1009 AccDes= 0.00D+00 IRadAn=         5 IDoV= 1 UseB2=F ITyADJ=14
 ICtDFT=  3500011 ScaDFX=  1.000000  1.000000  1.000000  1.000000
 FoFCou: FMM=F IPFlag=           0 FMFlag=      100000 FMFlg1=           0
         NFxFlg=           0 DoJE=T BraDBF=F KetDBF=T FulRan=T
         wScrn=  0.000000 ICntrl=       500 IOpCl=  0 I1Cent=   200000004 NGrid=           0
         NMat0=    1 NMatS0=      1 NMatT0=    0 NMatD0=    1 NMtDS0=    0 NMtDT0=    0
 Petite list used in FoFCou.
 Requested convergence on RMS density matrix=1.00D-08 within 128 cycles.
 Requested convergence on MAX density matrix=1.00D-06.
 Requested convergence on             energy=1.00D-06.
 No special actions if energy rises.
 Integral accuracy reduced to 1.0D-05 until final iterations.
 Initial convergence to 1.0D-05 achieved.  Increase integral accuracy.
 SCF Done:  E(RM062X) =  -462.171584602     A.U. after   17 cycles
            NFock= 17  Conv=0.57D-08     -V/T= 2.0083
 DoSCS=F DFT=T ScalE2(SS,OS)=  1.000000  1.000000
 Range of M.O.s used for correlation:     1   174
 NBasis=   174 NAE=    38 NBE=    38 NFC=     0 NFV=     0
 NROrb=    174 NOA=    38 NOB=    38 NVA=   136 NVB=   136
 Symmetrizing basis deriv contribution to polar:
 IMax=3 JMax=2 DiffMx= 0.00D+00
 G2DrvN: will do    23 centers at a time, making    1 passes.
 Calling FoFCou, ICntrl=  3107 FMM=F I1Cent=   0 AccDes= 0.00D+00.
 End of G2Drv F.D. properties file   721 does not exist.
 End of G2Drv F.D. properties file   722 does not exist.
 End of G2Drv F.D. properties file   788 does not exist.
          IDoAtm=1111111111111111111111
          Differentiating once with respect to nuclear coordinates.
 CalDSu exits because no D1Ps are significant.
          There are    69 degrees of freedom in the 1st order CPHF.  IDoFFX=6 NUNeed=     0.
     63 vectors produced by pass  0 Test12= 7.49D-15 1.45D-09 XBig12= 8.47D-02 1.29D-01.
 AX will form    63 AO Fock derivatives at one time.
     63 vectors produced by pass  1 Test12= 7.49D-15 1.45D-09 XBig12= 8.17D-03 1.82D-02.
     63 vectors produced by pass  2 Test12= 7.49D-15 1.45D-09 XBig12= 1.62D-04 2.37D-03.
     63 vectors produced by pass  3 Test12= 7.49D-15 1.45D-09 XBig12= 1.16D-06 1.64D-04.
     63 vectors produced by pass  4 Test12= 7.49D-15 1.45D-09 XBig12= 4.93D-09 8.17D-06.
     63 vectors produced by pass  5 Test12= 7.49D-15 1.45D-09 XBig12= 1.28D-11 3.06D-07.
     31 vectors produced by pass  6 Test12= 7.49D-15 1.45D-09 XBig12= 3.09D-14 1.71D-08.
 InvSVY:  IOpt=1 It=  1 EMax= 4.44D-16
 Solved reduced A of dimension   409 with    69 vectors.
 End of Minotr F.D. properties file   721 does not exist.
 End of Minotr F.D. properties file   722 does not exist.
 End of Minotr F.D. properties file   788 does not exist.

 **********************************************************************

            Population analysis using the SCF Density.

 **********************************************************************

 Orbital symmetries:
       Occupied  (A) (A) (A) (A) (A) (A) (A) (A) (A) (A) (A) (A)
                 (A) (A) (A) (A) (A) (A) (A) (A) (A) (A) (A) (A)
                 (A) (A) (A) (A) (A) (A) (A) (A) (A) (A) (A) (A)
                 (A) (A)
       Virtual   (A) (A) (A) (A) (A) (A) (A) (A) (A) (A) (A) (A)
                 (A) (A) (A) (A) (A) (A) (A) (A) (A) (A) (A) (A)
                 (A) (A) (A) (A) (A) (A) (A) (A) (A) (A) (A) (A)
                 (A) (A) (A) (A) (A) (A) (A) (A) (A) (A) (A) (A)
                 (A) (A) (A) (A) (A) (A) (A) (A) (A) (A) (A) (A)
                 (A) (A) (A) (A) (A) (A) (A) (A) (A) (A) (A) (A)
                 (A) (A) (A) (A) (A) (A) (A) (A) (A) (A) (A) (A)
                 (A) (A) (A) (A) (A) (A) (A) (A) (A) (A) (A) (A)
                 (A) (A) (A) (A) (A) (A) (A) (A) (A) (A) (A) (A)
                 (A) (A) (A) (A) (A) (A) (A) (A) (A) (A) (A) (A)
                 (A) (A) (A) (A) (A) (A) (A) (A) (A) (A) (A) (A)
                 (A) (A) (A) (A)
 The electronic state is 1-A.
 Alpha  occ. eigenvalues --  -19.68643 -19.59470 -10.62520 -10.61190 -10.60475
 Alpha  occ. eigenvalues --  -10.57042 -10.56757 -10.56516 -10.55586 -10.52947
 Alpha  occ. eigenvalues --   -1.20812  -1.11668  -0.92771  -0.87173  -0.85497
 Alpha  occ. eigenvalues --   -0.78988  -0.73186  -0.70705  -0.63397  -0.62890
 Alpha  occ. eigenvalues --   -0.60017  -0.57091  -0.56190  -0.52657  -0.51599
 Alpha  occ. eigenvalues --   -0.50111  -0.48981  -0.47607  -0.46055  -0.45589
 Alpha  occ. eigenvalues --   -0.44686  -0.43367  -0.42595  -0.40118  -0.36729
 Alpha  occ. eigenvalues --   -0.33068  -0.29488  -0.23435
 Alpha virt. eigenvalues --   -0.03637   0.04944   0.09767   0.11884   0.13184
 Alpha virt. eigenvalues --    0.14344   0.16561   0.17326   0.18047   0.18651
 Alpha virt. eigenvalues --    0.19792   0.20183   0.21752   0.23245   0.25092
 Alpha virt. eigenvalues --    0.27234   0.28305   0.32024   0.33268   0.33875
 Alpha virt. eigenvalues --    0.37678   0.39230   0.43021   0.43993   0.51705
 Alpha virt. eigenvalues --    0.53790   0.56490   0.57367   0.59707   0.60549
 Alpha virt. eigenvalues --    0.61527   0.62014   0.64261   0.64555   0.65886
 Alpha virt. eigenvalues --    0.67829   0.70603   0.71390   0.73078   0.76631
 Alpha virt. eigenvalues --    0.78667   0.79612   0.83456   0.86091   0.88622
 Alpha virt. eigenvalues --    0.89829   0.90060   0.90934   0.92020   0.92317
 Alpha virt. eigenvalues --    0.92718   0.95191   0.96972   0.98852   1.00515
 Alpha virt. eigenvalues --    1.01205   1.01256   1.04593   1.06393   1.07988
 Alpha virt. eigenvalues --    1.09158   1.10346   1.11430   1.14338   1.15679
 Alpha virt. eigenvalues --    1.18627   1.23284   1.26739   1.27919   1.29831
 Alpha virt. eigenvalues --    1.36362   1.38666   1.40920   1.44396   1.46507
 Alpha virt. eigenvalues --    1.47851   1.53451   1.56148   1.60134   1.62500
 Alpha virt. eigenvalues --    1.64320   1.71253   1.73198   1.76559   1.81680
 Alpha virt. eigenvalues --    1.84518   1.85777   1.87950   1.92520   1.92825
 Alpha virt. eigenvalues --    1.97248   1.98519   2.00185   2.04290   2.05327
 Alpha virt. eigenvalues --    2.08422   2.10951   2.14547   2.16329   2.16522
 Alpha virt. eigenvalues --    2.19040   2.19308   2.21651   2.26270   2.28277
 Alpha virt. eigenvalues --    2.30507   2.31636   2.36465   2.37743   2.40624
 Alpha virt. eigenvalues --    2.48733   2.50524   2.51847   2.56779   2.58679
 Alpha virt. eigenvalues --    2.61273   2.65974   2.67319   2.70661   2.77303
 Alpha virt. eigenvalues --    2.87925   2.91901   3.00868   3.09083   3.12220
 Alpha virt. eigenvalues --    3.13078   3.96794   4.09786   4.16074   4.27028
 Alpha virt. eigenvalues --    4.28357   4.31149   4.36042   4.46267   4.52237
 Alpha virt. eigenvalues --    4.62483
          Condensed to atoms (all electrons):
               1          2          3          4          5          6
     1  C    5.204228   0.053451  -0.005905   0.450306   0.391221   0.374064
     2  C    0.053451   5.350136  -0.018241  -0.041142  -0.033236  -0.014484
     3  C   -0.005905  -0.018241   5.068267   0.025903   0.000282   0.000208
     4  C    0.450306  -0.041142   0.025903   5.319819  -0.047501  -0.023864
     5  H    0.391221  -0.033236   0.000282  -0.047501   0.532275  -0.029756
     6  H    0.374064  -0.014484   0.000208  -0.023864  -0.029756   0.509625
     7  H   -0.043618   0.000257  -0.001117   0.373887   0.004033  -0.003524
     8  C   -0.016882   0.573997  -0.028718  -0.027823  -0.010677   0.001414
     9  C   -0.008924  -0.081558   0.582343   0.000671   0.000224   0.000106
    10  H   -0.007412   0.360492   0.000110   0.001601  -0.001269  -0.001428
    11  H    0.000132   0.000243   0.374183  -0.000533  -0.000003  -0.000002
    12  H    0.000003   0.005251  -0.043944   0.000169  -0.000001   0.000002
    13  H   -0.015123   0.374962   0.001694  -0.005291   0.001779  -0.002716
    14  H   -0.001075   0.006120   0.377451  -0.000551  -0.000003   0.000031
    15  O   -0.001497  -0.080600   0.004199   0.000170   0.003754   0.000038
    16  C    0.000110   0.005229  -0.000115   0.000259   0.000060   0.000003
    17  H    0.000004  -0.000209  -0.000043   0.000013   0.000026   0.000000
    18  H   -0.000002  -0.000132   0.000001  -0.000003  -0.000015  -0.000000
    19  H   -0.000002   0.000564  -0.000216  -0.000327  -0.000285  -0.000003
    20  C   -0.011719  -0.002336   0.002448   0.376021  -0.006716   0.002487
    21  O    0.004650   0.000079  -0.006481  -0.077670   0.000110  -0.000075
    22  H    0.013728  -0.001088  -0.000945  -0.136015   0.009104  -0.000106
               7          8          9         10         11         12
     1  C   -0.043618  -0.016882  -0.008924  -0.007412   0.000132   0.000003
     2  C    0.000257   0.573997  -0.081558   0.360492   0.000243   0.005251
     3  C   -0.001117  -0.028718   0.582343   0.000110   0.374183  -0.043944
     4  C    0.373887  -0.027823   0.000671   0.001601  -0.000533   0.000169
     5  H    0.004033  -0.010677   0.000224  -0.001269  -0.000003  -0.000001
     6  H   -0.003524   0.001414   0.000106  -0.001428  -0.000002   0.000002
     7  H    0.524411  -0.000105   0.000294  -0.000016   0.000048  -0.000005
     8  C   -0.000105   4.475452   0.462167  -0.024988   0.003179  -0.042750
     9  C    0.000294   0.462167   4.972602   0.005939  -0.022722   0.373075
    10  H   -0.000016  -0.024988   0.005939   0.501450  -0.000003  -0.000126
    11  H    0.000048   0.003179  -0.022722  -0.000003   0.485673  -0.005613
    12  H   -0.000005  -0.042750   0.373075  -0.000126  -0.005613   0.533579
    13  H    0.000222  -0.024318  -0.005775  -0.027233   0.000053   0.000027
    14  H    0.000340  -0.012545  -0.036370  -0.000034  -0.031775   0.004385
    15  O   -0.000003   0.297147  -0.053223   0.000364  -0.000047  -0.007484
    16  C   -0.000001  -0.046272  -0.006764   0.000021  -0.000006   0.006187
    17  H    0.000000  -0.003590   0.000222   0.000029   0.000004   0.000606
    18  H    0.000000   0.003206   0.000514  -0.000037  -0.000000   0.000058
    19  H    0.000002  -0.002382   0.002318   0.000019   0.000013   0.000368
    20  C   -0.025442  -0.001456  -0.006817  -0.000028  -0.000226   0.000058
    21  O   -0.000575   0.000350  -0.001407   0.000000   0.000553   0.000063
    22  H    0.004462   0.002003  -0.002204   0.000009   0.000050  -0.000313
              13         14         15         16         17         18
     1  C   -0.015123  -0.001075  -0.001497   0.000110   0.000004  -0.000002
     2  C    0.374962   0.006120  -0.080600   0.005229  -0.000209  -0.000132
     3  C    0.001694   0.377451   0.004199  -0.000115  -0.000043   0.000001
     4  C   -0.005291  -0.000551   0.000170   0.000259   0.000013  -0.000003
     5  H    0.001779  -0.000003   0.003754   0.000060   0.000026  -0.000015
     6  H   -0.002716   0.000031   0.000038   0.000003   0.000000  -0.000000
     7  H    0.000222   0.000340  -0.000003  -0.000001   0.000000   0.000000
     8  C   -0.024318  -0.012545   0.297147  -0.046272  -0.003590   0.003206
     9  C   -0.005775  -0.036370  -0.053223  -0.006764   0.000222   0.000514
    10  H   -0.027233  -0.000034   0.000364   0.000021   0.000029  -0.000037
    11  H    0.000053  -0.031775  -0.000047  -0.000006   0.000004  -0.000000
    12  H    0.000027   0.004385  -0.007484   0.006187   0.000606   0.000058
    13  H    0.507092   0.002551   0.002763  -0.000155   0.000014   0.000003
    14  H    0.002551   0.514934   0.000003   0.000012  -0.000004   0.000001
    15  O    0.002763   0.000003   8.224984   0.219984  -0.036025  -0.032632
    16  C   -0.000155   0.000012   0.219984   4.940033   0.377064   0.390710
    17  H    0.000014  -0.000004  -0.036025   0.377064   0.560467  -0.030797
    18  H    0.000003   0.000001  -0.032632   0.390710  -0.030797   0.498124
    19  H   -0.000016  -0.000004  -0.037669   0.370934  -0.040891  -0.025122
    20  C    0.000072  -0.000582   0.000111  -0.000775   0.000031   0.000003
    21  O    0.000005   0.000019   0.000000  -0.000009  -0.000002   0.000000
    22  H    0.000026   0.000065   0.000472  -0.000666   0.000082   0.000011
              19         20         21         22
     1  C   -0.000002  -0.011719   0.004650   0.013728
     2  C    0.000564  -0.002336   0.000079  -0.001088
     3  C   -0.000216   0.002448  -0.006481  -0.000945
     4  C   -0.000327   0.376021  -0.077670  -0.136015
     5  H   -0.000285  -0.006716   0.000110   0.009104
     6  H   -0.000003   0.002487  -0.000075  -0.000106
     7  H    0.000002  -0.025442  -0.000575   0.004462
     8  C   -0.002382  -0.001456   0.000350   0.002003
     9  C    0.002318  -0.006817  -0.001407  -0.002204
    10  H    0.000019  -0.000028   0.000000   0.000009
    11  H    0.000013  -0.000226   0.000553   0.000050
    12  H    0.000368   0.000058   0.000063  -0.000313
    13  H   -0.000016   0.000072   0.000005   0.000026
    14  H   -0.000004  -0.000582   0.000019   0.000065
    15  O   -0.037669   0.000111   0.000000   0.000472
    16  C    0.370934  -0.000775  -0.000009  -0.000666
    17  H   -0.040891   0.000031  -0.000002   0.000082
    18  H   -0.025122   0.000003   0.000000   0.000011
    19  H    0.550657   0.000356   0.000033   0.002849
    20  C    0.000356   4.547476   0.526315   0.360753
    21  O    0.000033   0.526315   8.093250  -0.054930
    22  H    0.002849   0.360753  -0.054930   0.710692
 Mulliken charges:
               1
     1  C   -0.379738
     2  C   -0.457756
     3  C   -0.331363
     4  C   -0.188099
     5  H    0.186597
     6  H    0.187982
     7  H    0.166450
     8  C    0.423590
     9  C   -0.174711
    10  H    0.192540
    11  H    0.196799
    12  H    0.176404
    13  H    0.189364
    14  H    0.177031
    15  O   -0.504809
    16  C   -0.255842
    17  H    0.173000
    18  H    0.196110
    19  H    0.178803
    20  C    0.239967
    21  O   -0.484280
    22  H    0.091962
 Sum of Mulliken charges =  -0.00000
 Mulliken charges with hydrogens summed into heavy atoms:
               1
     1  C   -0.005159
     2  C   -0.075852
     3  C    0.042466
     4  C   -0.021650
     8  C    0.423590
     9  C    0.001693
    15  O   -0.504809
    16  C    0.292070
    20  C    0.331928
    21  O   -0.484280
 APT charges:
               1
     1  C   -0.959896
     2  C   -0.840867
     3  C   -0.760656
     4  C   -0.518484
     5  H    0.318857
     6  H    0.623921
     7  H    0.572154
     8  C   -0.036238
     9  C   -0.561670
    10  H    0.552260
    11  H    0.607409
    12  H    0.444145
    13  H    0.470909
    14  H    0.390855
    15  O   -0.239989
    16  C   -1.159454
    17  H    0.493241
    18  H    0.702484
    19  H    0.183884
    20  C   -0.555687
    21  O    0.068476
    22  H    0.204347
 Sum of APT charges =  -0.00000
 APT charges with hydrogens summed into heavy atoms:
               1
     1  C   -0.017119
     2  C    0.182302
     3  C    0.237608
     4  C    0.053670
     8  C   -0.036238
     9  C   -0.117525
    15  O   -0.239989
    16  C    0.220154
    20  C   -0.351340
    21  O    0.068476
 Electronic spatial extent (au):  <R**2>=           1521.7182
 Charge=              0.0000 electrons
 Dipole moment (field-independent basis, Debye):
    X=             -3.2959    Y=              1.5983    Z=              0.6206  Tot=              3.7152
 Quadrupole moment (field-independent basis, Debye-Ang):
   XX=            -68.3561   YY=            -58.6080   ZZ=            -57.7521
   XY=             11.6364   XZ=              4.2953   YZ=             -0.2330
 Traceless Quadrupole moment (field-independent basis, Debye-Ang):
   XX=             -6.7840   YY=              2.9641   ZZ=              3.8199
   XY=             11.6364   XZ=              4.2953   YZ=             -0.2330
 Octapole moment (field-independent basis, Debye-Ang**2):
  XXX=            -29.0943  YYY=              9.2043  ZZZ=             -2.5177  XYY=            -18.0801
  XXY=              5.1905  XXZ=              1.3945  XZZ=              1.8636  YZZ=             -5.8628
  YYZ=              0.8578  XYZ=             -2.3681
 Hexadecapole moment (field-independent basis, Debye-Ang**3):
 XXXX=          -1053.1128 YYYY=           -541.1197 ZZZZ=           -402.5734 XXXY=             67.6656
 XXXZ=             32.7019 YYYX=             23.0039 YYYZ=             -6.3557 ZZZX=             26.5402
 ZZZY=              0.6177 XXYY=           -275.7471 XXZZ=           -229.2924 YYZZ=           -151.0891
 XXYZ=              4.7785 YYXZ=             13.4633 ZZXY=             -2.6757
 N-N= 5.342187250171D+02 E-N=-2.144407957800D+03  KE= 4.583543376931D+02
  Exact polarizability:       0.000       0.000       0.000       0.000       0.000       0.000
 Approx polarizability:     155.666      -7.547     130.284       5.003     -13.912     106.419
 Calling FoFJK, ICntrl=    100127 FMM=F ISym2X=0 I1Cent= 0 IOpClX= 0 NMat=1 NMatS=1 NMatT=0.
 ***** Axes restored to original set *****
 -------------------------------------------------------------------
 Center     Atomic                   Forces (Hartrees/Bohr)
 Number     Number              X              Y              Z
 -------------------------------------------------------------------
      1        6          -0.014599002    0.012612710    0.004667434
      2        6           0.013880246   -0.000864828    0.006884066
      3        6           0.001184919   -0.001731613    0.001071192
      4        6           0.007501049   -0.014487589   -0.016578643
      5        1           0.001743265   -0.002495906   -0.002167437
      6        1           0.001643384   -0.000049622   -0.000815113
      7        1           0.001721280    0.001318938    0.002573634
      8        6          -0.006022544   -0.020008943    0.002801102
      9        6           0.000850351    0.001725381   -0.003249930
     10        1          -0.000347614    0.000139711   -0.000266090
     11        1          -0.000676169    0.001214428   -0.001249289
     12        1          -0.000035349   -0.000146138    0.001370479
     13        1          -0.001095118    0.000837722   -0.000479805
     14        1           0.000044117    0.000093565   -0.000403308
     15        8           0.005900976    0.006823489   -0.004890198
     16        6          -0.000439217   -0.004662228   -0.001566396
     17        1          -0.001044516    0.001430136    0.000177815
     18        1          -0.000539828    0.000985305    0.000155316
     19        1           0.001976861    0.002490707    0.001478048
     20        6          -0.026742563    0.019905919    0.027812683
     21        8           0.011231993   -0.002739040   -0.014799282
     22        1           0.003863480   -0.002392104   -0.002526279
 -------------------------------------------------------------------
 Cartesian Forces:  Max     0.027812683 RMS     0.007869921
 FormGI is forming the generalized inverse of G from B-inverse, IUseBI=4.

 GradGradGradGradGradGradGradGradGradGradGradGradGradGradGradGradGradGrad
 Berny optimization.
 Internal  Forces:  Max     0.021101227 RMS     0.005341702
 Search for a saddle point.
 Step number   1 out of a maximum of  103
 All quantities printed in internal units (Hartrees-Bohrs-Radians)
 Swapping is turned off.
 Second derivative matrix not updated -- analytic derivatives used.
 ITU=  0
     Eigenvalues ---   -0.02582  -0.00038   0.00401   0.00760   0.00930
     Eigenvalues ---    0.01378   0.01870   0.02106   0.02361   0.02542
     Eigenvalues ---    0.03057   0.03270   0.03699   0.03961   0.04012
     Eigenvalues ---    0.05188   0.05435   0.05899   0.06949   0.07732
     Eigenvalues ---    0.08052   0.08907   0.09114   0.09853   0.10213
     Eigenvalues ---    0.10946   0.11535   0.13683   0.13872   0.14091
     Eigenvalues ---    0.14877   0.16809   0.18441   0.19132   0.19638
     Eigenvalues ---    0.22289   0.23098   0.29201   0.31598   0.32233
     Eigenvalues ---    0.34235   0.34815   0.35890   0.36277   0.36465
     Eigenvalues ---    0.36737   0.37202   0.37310   0.37394   0.37591
     Eigenvalues ---    0.37907   0.38837   0.39736   0.40813   0.49561
     Eigenvalues ---    0.54320   0.60846   0.61499   0.66427   0.81063
 Eigenvectors required to have negative eigenvalues:
                          R1        D20       D24       D12       D15
   1                    0.68569   0.25592  -0.23336   0.22636  -0.21530
                          D21       A2        D16       D31       R2
   1                    0.17801  -0.15705   0.15461  -0.14815  -0.11856
 RFO step:  Lambda0=2.585359716D-03 Lambda=-1.21718273D-02.
 Linear search not attempted -- option 19 set.
 Iteration  1 RMS(Cart)=  0.25141154 RMS(Int)=  0.04094623
 Iteration  2 RMS(Cart)=  0.13421622 RMS(Int)=  0.00457299
 Iteration  3 RMS(Cart)=  0.00838504 RMS(Int)=  0.00081485
 Iteration  4 RMS(Cart)=  0.00002801 RMS(Int)=  0.00081473
 Iteration  5 RMS(Cart)=  0.00000001 RMS(Int)=  0.00081473
 Variable       Old X    -DE/DX   Delta X   Delta X   Delta X     New X
                                 (Linear)    (Quad)   (Total)
    R1        3.89645   0.01748   0.00000  -0.03044  -0.03044   3.86601
    R2        2.62210  -0.00059   0.00000   0.00060   0.00060   2.62270
    R3        2.05319   0.00107   0.00000   0.00301   0.00301   2.05620
    R4        2.05364  -0.00038   0.00000   0.00009   0.00009   2.05373
    R5        2.61765  -0.00922   0.00000  -0.00231  -0.00231   2.61534
    R6        2.05083   0.00006   0.00000   0.00207   0.00207   2.05290
    R7        2.04491  -0.00018   0.00000  -0.00052  -0.00052   2.04440
    R8        2.55210  -0.00062   0.00000   0.01478   0.01478   2.56688
    R9        2.05051  -0.00042   0.00000  -0.00026  -0.00026   2.05025
   R10        2.04510   0.00005   0.00000  -0.00251  -0.00251   2.04260
   R11        2.05015  -0.00076   0.00000   0.00398   0.00398   2.05414
   R12        2.71845   0.01110   0.00000   0.03507   0.03507   2.75352
   R13        2.71404  -0.00222   0.00000  -0.02969  -0.02969   2.68435
   R14        2.53929   0.00957   0.00000   0.02607   0.02607   2.56536
   R15        2.04940   0.00046   0.00000   0.00094   0.00094   2.05034
   R16        2.68483   0.00027   0.00000  -0.01134  -0.01134   2.67349
   R17        2.07084  -0.00059   0.00000  -0.00054  -0.00054   2.07030
   R18        2.05939  -0.00019   0.00000   0.00005   0.00005   2.05944
   R19        2.06697   0.00054   0.00000   0.00469   0.00469   2.07166
   R20        2.32559  -0.01651   0.00000  -0.02864  -0.02864   2.29694
   R21        2.09413   0.00372   0.00000   0.01816   0.01816   2.11229
    A1        1.97972   0.02110   0.00000   0.03143   0.02914   2.00886
    A2        1.59435  -0.00584   0.00000   0.07370   0.07018   1.66453
    A3        1.63250  -0.01137   0.00000  -0.05857  -0.05853   1.57397
    A4        2.03181   0.00061   0.00000   0.05074   0.04721   2.07902
    A5        2.08414  -0.00284   0.00000  -0.04630  -0.04580   2.03834
    A6        2.02285  -0.00046   0.00000  -0.03106  -0.02959   1.99326
    A7        1.79775   0.01463   0.00000  -0.02592  -0.02576   1.77199
    A8        1.72818  -0.00544   0.00000   0.04006   0.03994   1.76812
    A9        1.68824  -0.00584   0.00000  -0.01168  -0.01134   1.67690
   A10        2.04055  -0.00238   0.00000  -0.02589  -0.02559   2.01496
   A11        2.07440  -0.00101   0.00000   0.03173   0.03159   2.10599
   A12        2.02537   0.00136   0.00000  -0.00645  -0.00641   2.01897
   A13        2.10104   0.00017   0.00000   0.00356   0.00349   2.10453
   A14        2.14659  -0.00034   0.00000  -0.00188  -0.00194   2.14465
   A15        2.03168   0.00031   0.00000  -0.00348  -0.00355   2.02814
   A16        2.13905  -0.00345   0.00000  -0.03943  -0.04178   2.09728
   A17        2.05200   0.01202   0.00000   0.10058   0.09832   2.15031
   A18        2.09186  -0.00865   0.00000  -0.06399  -0.06622   2.02564
   A19        2.12425  -0.00052   0.00000   0.00668   0.00574   2.12999
   A20        2.02061   0.00176   0.00000  -0.01648  -0.01734   2.00327
   A21        2.13306  -0.00138   0.00000   0.00219   0.00123   2.13429
   A22        2.13798  -0.00224   0.00000  -0.02260  -0.02284   2.11514
   A23        2.07101   0.00004   0.00000   0.00070   0.00049   2.07150
   A24        2.06357   0.00214   0.00000   0.01658   0.01632   2.07989
   A25        2.07814   0.00185   0.00000  -0.00468  -0.00468   2.07345
   A26        1.93685   0.00058   0.00000   0.01229   0.01222   1.94907
   A27        1.84099   0.00040   0.00000   0.00670   0.00663   1.84761
   A28        1.92125   0.00451   0.00000   0.01543   0.01537   1.93662
   A29        1.90164  -0.00022   0.00000   0.00142   0.00133   1.90297
   A30        1.93454  -0.00306   0.00000  -0.02027  -0.02033   1.91420
   A31        1.92641  -0.00210   0.00000  -0.01446  -0.01451   1.91189
   A32        2.15024   0.01548   0.00000   0.03741   0.03726   2.18750
   A33        2.03981  -0.01116   0.00000  -0.05251  -0.05266   1.98716
   A34        2.09299  -0.00433   0.00000   0.01459   0.01444   2.10743
    D1       -0.93449  -0.00241   0.00000  -0.37216  -0.37319  -1.30768
    D2       -3.03703  -0.00256   0.00000  -0.35051  -0.35124   2.89491
    D3        1.19016  -0.00138   0.00000  -0.34971  -0.35045   0.83971
    D4        1.15434   0.00107   0.00000  -0.26877  -0.26786   0.88649
    D5       -0.94820   0.00092   0.00000  -0.24712  -0.24591  -1.19411
    D6       -3.00420   0.00210   0.00000  -0.24632  -0.24512   3.03388
    D7       -3.10331  -0.00050   0.00000  -0.29733  -0.29781   2.88206
    D8        1.07733  -0.00065   0.00000  -0.27568  -0.27586   0.80147
    D9       -0.97866   0.00053   0.00000  -0.27488  -0.27507  -1.25373
   D10       -1.70302   0.00341   0.00000   0.13615   0.13666  -1.56636
   D11        1.46376   0.00689   0.00000   0.26777   0.26866   1.73242
   D12        2.76297  -0.00271   0.00000  -0.00485  -0.00591   2.75706
   D13       -0.35343   0.00076   0.00000   0.12678   0.12609  -0.22735
   D14        0.19503   0.00224   0.00000   0.05220   0.05220   0.24723
   D15       -2.92137   0.00571   0.00000   0.18383   0.18419  -2.73718
   D16        1.34109  -0.00023   0.00000  -0.10758  -0.10771   1.23338
   D17       -1.69261   0.00124   0.00000  -0.03004  -0.03045  -1.72306
   D18       -3.06909   0.00117   0.00000  -0.08588  -0.08563   3.12847
   D19        0.18040   0.00263   0.00000  -0.00834  -0.00837   0.17203
   D20       -0.49744  -0.00206   0.00000  -0.08943  -0.08913  -0.58656
   D21        2.75205  -0.00060   0.00000  -0.01190  -0.01187   2.74018
   D22       -3.04264   0.00169   0.00000   0.08896   0.08886  -2.95378
   D23       -0.06000   0.00151   0.00000   0.05100   0.05110  -0.00889
   D24        0.19684  -0.00012   0.00000   0.11175   0.11164   0.30848
   D25       -3.10371  -0.00031   0.00000   0.07379   0.07389  -3.02982
   D26        3.14159  -0.00428   0.00000  -0.28189  -0.28145   2.86015
   D27        0.01827  -0.00318   0.00000  -0.24997  -0.24953  -0.23126
   D28        0.02448  -0.00096   0.00000  -0.15426  -0.15469  -0.13021
   D29       -3.09884   0.00013   0.00000  -0.12234  -0.12278   3.06157
   D30       -0.08080   0.00033   0.00000   0.07764   0.07780  -0.00300
   D31       -3.06408   0.00069   0.00000   0.11680   0.11712  -2.94696
   D32        2.94593  -0.00103   0.00000  -0.00603  -0.00636   2.93957
   D33       -0.03736  -0.00067   0.00000   0.03313   0.03297  -0.00439
   D34        2.80504   0.00062   0.00000  -0.09613  -0.09588   2.70917
   D35       -0.22806   0.00203   0.00000  -0.01846  -0.01871  -0.24677
   D36        1.24589  -0.00019   0.00000  -0.01299  -0.01302   1.23287
   D37       -2.98043   0.00008   0.00000  -0.00108  -0.00105  -2.98148
   D38       -0.90225   0.00016   0.00000  -0.00637  -0.00637  -0.90862
         Item               Value     Threshold  Converged?
 Maximum Force            0.021101     0.000450     NO 
 RMS     Force            0.005342     0.000300     NO 
 Maximum Displacement     1.709816     0.001800     NO 
 RMS     Displacement     0.362896     0.001200     NO 
 Predicted change in Energy=-8.723386D-03
 GradGradGradGradGradGradGradGradGradGradGradGradGradGradGradGradGradGrad

                          Input orientation:                          
 ---------------------------------------------------------------------
 Center     Atomic      Atomic             Coordinates (Angstroms)
 Number     Number       Type             X           Y           Z
 ---------------------------------------------------------------------
      1          6           0       -1.312634   -0.407689   -1.268832
      2          6           0        0.096052   -1.729302   -0.594838
      3          6           0       -0.610093   -0.475919    1.874863
      4          6           0       -2.193735    0.057241   -0.302556
      5          1           0       -0.599337    0.284305   -1.711890
      6          1           0       -1.692142   -1.158007   -1.957380
      7          1           0       -3.119872   -0.476673   -0.105631
      8          6           0        0.962899   -0.888625    0.081351
      9          6           0        0.607611   -0.269510    1.309471
     10          1           0        0.472822   -2.134219   -1.529847
     11          1           0       -0.938999    0.128903    2.713384
     12          1           0        1.240161    0.516975    1.707631
     13          1           0       -0.592293   -2.363888   -0.052734
     14          1           0       -1.251847   -1.301456    1.601047
     15          8           0        2.068029   -0.527702   -0.619585
     16          6           0        2.722591    0.681105   -0.285145
     17          1           0        3.234544    0.610169    0.680835
     18          1           0        3.462443    0.845716   -1.068220
     19          1           0        2.015028    1.518277   -0.267295
     20          6           0       -2.046851    1.348653    0.356090
     21          8           0       -2.914845    1.918085    0.988347
     22          1           0       -1.050243    1.828106    0.193860
 ---------------------------------------------------------------------
                    Distance matrix (angstroms):
                    1          2          3          4          5
     1  C    0.000000
     2  C    2.045807   0.000000
     3  C    3.221961   2.858152   0.000000
     4  C    1.387872   2.918954   2.744692   0.000000
     5  H    1.088094   2.405407   3.666450   2.140067   0.000000
     6  H    1.086785   2.319599   4.040069   2.113496   1.826130
     7  H    2.150327   3.485767   3.197084   1.087002   3.084194
     8  C    2.689301   1.383977   2.421015   3.317587   2.651803
     9  C    3.217775   2.453381   1.358335   3.248528   3.300312
    10  H    2.497376   1.086349   3.938872   3.663232   2.651777
    11  H    4.035539   3.933012   1.084945   3.267322   4.441010
    12  H    4.028783   3.414104   2.106477   4.005477   3.889860
    13  H    2.413400   1.081848   2.698217   2.913571   3.125024
    14  H    3.006446   2.611856   1.080895   2.521292   3.730410
    15  O    3.444532   2.309361   3.660231   4.313386   2.994549
    16  C    4.293734   3.578362   4.136559   4.955782   3.637067
    17  H    5.051145   4.117110   4.169716   5.544277   4.531000
    18  H    4.940913   4.264668   5.195575   5.761968   4.150608
    19  H    3.973129   3.786360   3.931529   4.455284   3.231787
    20  C    2.502835   3.869122   2.774889   1.457098   2.739467
    21  O    3.615406   4.987525   3.439338   2.376799   3.914346
    22  H    2.684604   3.819842   2.885833   2.165633   2.493697
                    6          7          8          9         10
     6  H    0.000000
     7  H    2.435489   0.000000
     8  C    3.358308   4.107759   0.000000
     9  C    4.092751   3.992438   1.420497   0.000000
    10  H    2.413057   4.205152   2.094669   3.399564   0.000000
    11  H    4.902999   3.615214   3.402965   2.126430   5.011982
    12  H    4.983600   4.825468   2.167341   1.084993   4.254280
    13  H    2.508285   3.154843   2.147791   2.771605   1.835505
    14  H    3.588431   2.661303   2.717536   2.146512   3.670214
    15  O    4.040528   5.213547   1.357530   2.433257   2.440115
    16  C    5.066416   5.958779   2.386396   2.814180   3.812715
    17  H    5.861643   6.494487   2.786779   2.840739   4.477264
    18  H    5.601362   6.782489   3.252256   3.879073   4.246286
    19  H    4.874627   5.511185   2.649850   2.768248   4.160909
    20  C    3.429476   2.167112   3.760251   3.251701   4.694242
    21  O    4.431101   2.640774   4.872080   4.158893   5.851389
    22  H    3.735872   3.112084   3.383197   2.897078   4.581584
                   11         12         13         14         15
    11  H    0.000000
    12  H    2.431229   0.000000
    13  H    3.739736   3.841373   0.000000
    14  H    1.838775   3.086771   2.073347   0.000000
    15  O    4.536742   2.681911   3.281800   4.068351   0.000000
    16  C    4.764802   2.489115   4.507156   4.825394   1.414750
    17  H    4.667048   2.245120   4.901819   4.962742   2.084850
    18  H    5.846968   3.570988   5.270071   5.827509   2.007969
    19  H    4.420529   2.345923   4.681385   4.702560   2.076763
    20  C    2.876102   3.650041   4.008222   3.033978   4.626542
    21  O    3.175042   4.443484   4.981305   3.675106   5.778958
    22  H    3.040997   3.042452   4.224138   3.437292   3.991885
                   16         17         18         19         20
    16  C    0.000000
    17  H    1.095556   0.000000
    18  H    1.089809   1.779498   0.000000
    19  H    1.096275   1.791878   1.785729   0.000000
    20  C    4.858434   5.342655   5.712611   4.112937   0.000000
    21  O    5.910379   6.294458   6.785959   5.102954   1.215490
    22  H    3.972321   4.481062   4.787721   3.115212   1.117776
                   21         22
    21  O    0.000000
    22  H    2.028804   0.000000
 Stoichiometry    C8H12O2
 Framework group  C1[X(C8H12O2)]
 Deg. of freedom    60
 Full point group                 C1      NOp   1
 Largest Abelian subgroup         C1      NOp   1
 Largest concise Abelian subgroup C1      NOp   1
                         Standard orientation:                         
 ---------------------------------------------------------------------
 Center     Atomic      Atomic             Coordinates (Angstroms)
 Number     Number       Type             X           Y           Z
 ---------------------------------------------------------------------
      1          6           0        0.700041    1.517571   -0.735697
      2          6           0       -0.880726    1.579730    0.561469
      3          6           0        0.539982   -0.653906    1.639194
      4          6           0        1.822456    0.851032   -0.264423
      5          1           0        0.137060    1.087974   -1.561800
      6          1           0        0.741965    2.603529   -0.742084
      7          1           0        2.588944    1.392360    0.284241
      8          6           0       -1.362323    0.285282    0.472799
      9          6           0       -0.653041   -0.821218    1.011677
     10          1           0       -1.503514    2.342008    0.101881
     11          1           0        1.155381   -1.510782    1.892482
     12          1           0       -0.973544   -1.827227    0.761812
     13          1           0       -0.309345    1.898029    1.423214
     14          1           0        0.879392    0.303437    2.008831
     15          8           0       -2.429418    0.130473   -0.351962
     16          6           0       -2.667151   -1.139734   -0.927786
     17          1           0       -3.010577   -1.864463   -0.181414
     18          1           0       -3.454737   -0.989453   -1.665897
     19          1           0       -1.766791   -1.519885   -1.424431
     20          6           0        2.142510   -0.524646   -0.622488
     21          8           0        3.225045   -1.056533   -0.472056
     22          1           0        1.300259   -1.071706   -1.113161
 ---------------------------------------------------------------------
 Rotational constants (GHZ):           2.0367836           0.8092156           0.7470958
 Standard basis: 6-31G(d) (6D, 7F)
 There are   174 symmetry adapted cartesian basis functions of A   symmetry.
 There are   174 symmetry adapted basis functions of A   symmetry.
   174 basis functions,   328 primitive gaussians,   174 cartesian basis functions
    38 alpha electrons       38 beta electrons
       nuclear repulsion energy       525.1787426293 Hartrees.
 NAtoms=   22 NActive=   22 NUniq=   22 SFac= 1.00D+00 NAtFMM=   60 NAOKFM=F Big=F
 Integral buffers will be    131072 words long.
 Raffenetti 2 integral format.
 Two-electron integral symmetry is turned on.
 One-electron integrals computed using PRISM.
 NBasis=   174 RedAO= T EigKep=  2.11D-03  NBF=   174
 NBsUse=   174 1.00D-06 EigRej= -1.00D+00 NBFU=   174
 Initial guess from the checkpoint file:  "/tmp/Gau-3052386.chk"
 B after Tr=     0.000000    0.000000   -0.000000
         Rot=    0.994248   -0.099971    0.007057   -0.037774 Ang= -12.30 deg.
 ExpMin= 1.61D-01 ExpMax= 5.48D+03 ExpMxC= 8.25D+02 IAcc=3 IRadAn=         5 AccDes= 0.00D+00
 Harris functional with IExCor= 1009 and IRadAn=       5 diagonalized for initial guess.
 HarFok:  IExCor= 1009 AccDes= 0.00D+00 IRadAn=         5 IDoV= 1 UseB2=F ITyADJ=14
 ICtDFT=  3500011 ScaDFX=  1.000000  1.000000  1.000000  1.000000
 FoFCou: FMM=F IPFlag=           0 FMFlag=      100000 FMFlg1=           0
         NFxFlg=           0 DoJE=T BraDBF=F KetDBF=T FulRan=T
         wScrn=  0.000000 ICntrl=       500 IOpCl=  0 I1Cent=   200000004 NGrid=           0
         NMat0=    1 NMatS0=      1 NMatT0=    0 NMatD0=    1 NMtDS0=    0 NMtDT0=    0
 Petite list used in FoFCou.
 Requested convergence on RMS density matrix=1.00D-08 within 128 cycles.
 Requested convergence on MAX density matrix=1.00D-06.
 Requested convergence on             energy=1.00D-06.
 No special actions if energy rises.
 Integral accuracy reduced to 1.0D-05 until final iterations.
 Initial convergence to 1.0D-05 achieved.  Increase integral accuracy.
 SCF Done:  E(RM062X) =  -462.175801586     A.U. after   17 cycles
            NFock= 17  Conv=0.50D-08     -V/T= 2.0084
 Calling FoFJK, ICntrl=      2127 FMM=F ISym2X=0 I1Cent= 0 IOpClX= 0 NMat=1 NMatS=1 NMatT=0.
 ***** Axes restored to original set *****
 -------------------------------------------------------------------
 Center     Atomic                   Forces (Hartrees/Bohr)
 Number     Number              X              Y              Z
 -------------------------------------------------------------------
      1        6          -0.007279565    0.004981061   -0.001322586
      2        6           0.005524285   -0.003099031   -0.000685229
      3        6          -0.000649173    0.000458349    0.001866752
      4        6           0.004299864   -0.001752570    0.001831862
      5        1           0.000839339   -0.000676166    0.000890026
      6        1           0.000699370    0.000884630   -0.001485144
      7        1           0.000847124   -0.001462052    0.002002382
      8        6           0.001681362   -0.005721845   -0.002013806
      9        6          -0.004480582    0.003158569    0.001424311
     10        1          -0.001086449   -0.000410984   -0.000047631
     11        1           0.000396900   -0.000928674    0.000893483
     12        1          -0.000085507   -0.000034978    0.000146750
     13        1          -0.000065395    0.000925055    0.000887153
     14        1          -0.000277218   -0.000525048    0.000206869
     15        8          -0.001164638    0.000974204   -0.000491967
     16        6           0.000436586    0.000209050    0.000334450
     17        1          -0.000189717    0.000093122    0.000049643
     18        1           0.000055073    0.000020343    0.000055303
     19        1           0.000434018    0.000382658    0.000423484
     20        6           0.001517766    0.002872414   -0.007267877
     21        8          -0.000019955   -0.000472755    0.003091701
     22        1          -0.001433487    0.000124646   -0.000789928
 -------------------------------------------------------------------
 Cartesian Forces:  Max     0.007279565 RMS     0.002194109

 GradGradGradGradGradGradGradGradGradGradGradGradGradGradGradGradGradGrad
 Berny optimization.
 FormGI is forming the generalized inverse of G from B-inverse, IUseBI=4.
 Internal  Forces:  Max     0.006125781 RMS     0.002187038
 Search for a saddle point.
 Step number   2 out of a maximum of  103
 All quantities printed in internal units (Hartrees-Bohrs-Radians)
 Swapping is turned off.
 Update second derivatives using D2CorX and points    1    2
 ITU=  0  0
     Eigenvalues ---   -0.02432   0.00063   0.00399   0.00740   0.01151
     Eigenvalues ---    0.01496   0.01836   0.02116   0.02366   0.02542
     Eigenvalues ---    0.03057   0.03452   0.03724   0.03958   0.04015
     Eigenvalues ---    0.05191   0.05426   0.05888   0.07036   0.07759
     Eigenvalues ---    0.08067   0.08906   0.09115   0.09853   0.10621
     Eigenvalues ---    0.10965   0.11546   0.13679   0.13861   0.14096
     Eigenvalues ---    0.14853   0.16830   0.18454   0.19134   0.19636
     Eigenvalues ---    0.22264   0.23127   0.29259   0.31596   0.32214
     Eigenvalues ---    0.34234   0.34814   0.35890   0.36277   0.36458
     Eigenvalues ---    0.36737   0.37201   0.37310   0.37395   0.37589
     Eigenvalues ---    0.37906   0.38835   0.39721   0.40798   0.49548
     Eigenvalues ---    0.54315   0.60838   0.61475   0.66359   0.81068
 Eigenvectors required to have negative eigenvalues:
                          R1        D20       D24       D12       D15
   1                    0.69046   0.25677  -0.23049   0.22170  -0.21330
                          D21       A2        D16       D31       A8
   1                    0.18055  -0.15357   0.15143  -0.14673  -0.12068
 RFO step:  Lambda0=1.152268857D-03 Lambda=-6.11215889D-03.
 Linear search not attempted -- option 19 set.
 Iteration  1 RMS(Cart)=  0.14145459 RMS(Int)=  0.01158514
 Iteration  2 RMS(Cart)=  0.01523328 RMS(Int)=  0.00038047
 Iteration  3 RMS(Cart)=  0.00022664 RMS(Int)=  0.00036072
 Iteration  4 RMS(Cart)=  0.00000006 RMS(Int)=  0.00036072
 Variable       Old X    -DE/DX   Delta X   Delta X   Delta X     New X
                                 (Linear)    (Quad)   (Total)
    R1        3.86601   0.00428   0.00000  -0.06339  -0.06339   3.80263
    R2        2.62270  -0.00433   0.00000   0.01010   0.01010   2.63279
    R3        2.05620  -0.00024   0.00000   0.00104   0.00104   2.05723
    R4        2.05373   0.00009   0.00000  -0.00041  -0.00041   2.05332
    R5        2.61534  -0.00216   0.00000   0.01401   0.01401   2.62935
    R6        2.05290  -0.00018   0.00000  -0.00059  -0.00059   2.05231
    R7        2.04440  -0.00006   0.00000   0.00087   0.00087   2.04526
    R8        2.56688   0.00186   0.00000   0.01284   0.01284   2.57972
    R9        2.05025   0.00005   0.00000   0.00058   0.00058   2.05083
   R10        2.04260   0.00051   0.00000  -0.00003  -0.00003   2.04257
   R11        2.05414   0.00036   0.00000  -0.00183  -0.00183   2.05231
   R12        2.75352  -0.00000   0.00000   0.00259   0.00259   2.75611
   R13        2.68435   0.00613   0.00000  -0.00842  -0.00842   2.67593
   R14        2.56536  -0.00009   0.00000  -0.00357  -0.00357   2.56179
   R15        2.05034  -0.00002   0.00000  -0.00071  -0.00071   2.04963
   R16        2.67349   0.00115   0.00000   0.00104   0.00104   2.67453
   R17        2.07030  -0.00005   0.00000   0.00034   0.00034   2.07064
   R18        2.05944   0.00000   0.00000  -0.00038  -0.00038   2.05906
   R19        2.07166   0.00002   0.00000   0.00015   0.00015   2.07181
   R20        2.29694   0.00140   0.00000   0.00104   0.00104   2.29798
   R21        2.11229  -0.00111   0.00000  -0.00236  -0.00236   2.10993
    A1        2.00886  -0.00508   0.00000  -0.03302  -0.03284   1.97601
    A2        1.66453   0.00349   0.00000   0.05353   0.05332   1.71785
    A3        1.57397  -0.00043   0.00000   0.00376   0.00411   1.57808
    A4        2.07902  -0.00162   0.00000  -0.03427  -0.03391   2.04511
    A5        2.03834   0.00373   0.00000   0.03826   0.03846   2.07679
    A6        1.99326  -0.00076   0.00000  -0.01796  -0.01832   1.97494
    A7        1.77199  -0.00225   0.00000   0.01102   0.01028   1.78227
    A8        1.76812  -0.00095   0.00000   0.04712   0.04617   1.81429
    A9        1.67690   0.00202   0.00000  -0.01365  -0.01371   1.66319
   A10        2.01496   0.00413   0.00000   0.03247   0.03131   2.04627
   A11        2.10599  -0.00341   0.00000  -0.04668  -0.04674   2.05925
   A12        2.01897  -0.00016   0.00000  -0.01076  -0.01068   2.00829
   A13        2.10453   0.00005   0.00000  -0.00639  -0.00741   2.09712
   A14        2.14465   0.00007   0.00000   0.00590   0.00487   2.14952
   A15        2.02814  -0.00026   0.00000  -0.00810  -0.00914   2.01899
   A16        2.09728   0.00335   0.00000   0.03132   0.03066   2.12794
   A17        2.15031  -0.00570   0.00000  -0.05891  -0.05952   2.09079
   A18        2.02564   0.00229   0.00000   0.01944   0.01886   2.04451
   A19        2.12999  -0.00458   0.00000  -0.03207  -0.03266   2.09733
   A20        2.00327   0.00383   0.00000   0.01357   0.01284   2.01610
   A21        2.13429   0.00067   0.00000   0.00740   0.00666   2.14095
   A22        2.11514   0.00287   0.00000   0.00230   0.00212   2.11727
   A23        2.07150  -0.00134   0.00000  -0.01299  -0.01315   2.05835
   A24        2.07989  -0.00119   0.00000   0.00462   0.00441   2.08431
   A25        2.07345  -0.00020   0.00000  -0.00443  -0.00443   2.06902
   A26        1.94907  -0.00028   0.00000  -0.00336  -0.00336   1.94571
   A27        1.84761   0.00003   0.00000   0.00023   0.00023   1.84785
   A28        1.93662   0.00100   0.00000   0.00396   0.00396   1.94058
   A29        1.90297  -0.00004   0.00000   0.00309   0.00309   1.90605
   A30        1.91420  -0.00056   0.00000  -0.00442  -0.00442   1.90978
   A31        1.91189  -0.00014   0.00000   0.00079   0.00079   1.91268
   A32        2.18750   0.00029   0.00000   0.01640   0.01626   2.20377
   A33        1.98716  -0.00005   0.00000  -0.00676  -0.00690   1.98025
   A34        2.10743  -0.00018   0.00000  -0.00829  -0.00843   2.09900
    D1       -1.30768   0.00566   0.00000   0.09727   0.09770  -1.20997
    D2        2.89491   0.00231   0.00000   0.04224   0.04211   2.93702
    D3        0.83971   0.00212   0.00000   0.04670   0.04690   0.88661
    D4        0.88649   0.00368   0.00000   0.07593   0.07590   0.96239
    D5       -1.19411   0.00032   0.00000   0.02091   0.02031  -1.17380
    D6        3.03388   0.00013   0.00000   0.02536   0.02510   3.05898
    D7        2.88206   0.00303   0.00000   0.06073   0.06113   2.94319
    D8        0.80147  -0.00032   0.00000   0.00571   0.00553   0.80700
    D9       -1.25373  -0.00051   0.00000   0.01016   0.01033  -1.24341
   D10       -1.56636   0.00303   0.00000   0.07353   0.07378  -1.49259
   D11        1.73242   0.00334   0.00000   0.13554   0.13599   1.86840
   D12        2.75706   0.00351   0.00000   0.05211   0.05182   2.80888
   D13       -0.22735   0.00382   0.00000   0.11412   0.11403  -0.11331
   D14        0.24723   0.00153   0.00000   0.08057   0.08031   0.32754
   D15       -2.73718   0.00184   0.00000   0.14258   0.14252  -2.59466
   D16        1.23338   0.00128   0.00000  -0.10049  -0.10059   1.13280
   D17       -1.72306   0.00160   0.00000  -0.03663  -0.03698  -1.76004
   D18        3.12847   0.00045   0.00000  -0.02693  -0.02654   3.10193
   D19        0.17203   0.00076   0.00000   0.03694   0.03706   0.20909
   D20       -0.58656   0.00155   0.00000  -0.07433  -0.07422  -0.66079
   D21        2.74018   0.00186   0.00000  -0.01046  -0.01062   2.72956
   D22       -2.95378  -0.00210   0.00000   0.02214   0.02213  -2.93165
   D23       -0.00889  -0.00024   0.00000  -0.01279  -0.01261  -0.02151
   D24        0.30848  -0.00066   0.00000   0.11064   0.11046   0.41894
   D25       -3.02982   0.00120   0.00000   0.07571   0.07572  -2.95410
   D26        2.86015   0.00253   0.00000   0.08515   0.08536   2.94551
   D27       -0.23126   0.00108   0.00000   0.05452   0.05474  -0.17652
   D28       -0.13021   0.00270   0.00000   0.14344   0.14323   0.01302
   D29        3.06157   0.00125   0.00000   0.11282   0.11261  -3.10901
   D30       -0.00300   0.00220   0.00000   0.08141   0.08114   0.07814
   D31       -2.94696   0.00035   0.00000   0.11845   0.11833  -2.82863
   D32        2.93957   0.00213   0.00000   0.01295   0.01307   2.95264
   D33       -0.00439   0.00028   0.00000   0.04999   0.05025   0.04586
   D34        2.70917   0.00079   0.00000   0.03786   0.03723   2.74639
   D35       -0.24677   0.00173   0.00000   0.10655   0.10719  -0.13958
   D36        1.23287  -0.00000   0.00000  -0.04907  -0.04907   1.18380
   D37       -2.98148  -0.00019   0.00000  -0.04703  -0.04703  -3.02851
   D38       -0.90862   0.00020   0.00000  -0.04383  -0.04382  -0.95244
         Item               Value     Threshold  Converged?
 Maximum Force            0.006126     0.000450     NO 
 RMS     Force            0.002187     0.000300     NO 
 Maximum Displacement     0.633389     0.001800     NO 
 RMS     Displacement     0.141328     0.001200     NO 
 Predicted change in Energy=-3.045095D-03
 GradGradGradGradGradGradGradGradGradGradGradGradGradGradGradGradGradGrad

                          Input orientation:                          
 ---------------------------------------------------------------------
 Center     Atomic      Atomic             Coordinates (Angstroms)
 Number     Number       Type             X           Y           Z
 ---------------------------------------------------------------------
      1          6           0       -1.341915   -0.437885   -1.227336
      2          6           0        0.100660   -1.717594   -0.652419
      3          6           0       -0.679612   -0.527567    1.789676
      4          6           0       -2.118470    0.026340   -0.167853
      5          1           0       -0.714873    0.289369   -1.740229
      6          1           0       -1.755323   -1.190553   -1.893082
      7          1           0       -2.978379   -0.526242    0.199136
      8          6           0        0.968071   -0.884632    0.047400
      9          6           0        0.543830   -0.261043    1.245869
     10          1           0        0.462070   -2.140872   -1.584994
     11          1           0       -1.067721    0.094340    2.589912
     12          1           0        1.092930    0.594108    1.624820
     13          1           0       -0.557392   -2.360078   -0.081832
     14          1           0       -1.223417   -1.442607    1.601846
     15          8           0        2.073352   -0.490112   -0.631183
     16          6           0        2.734322    0.691461   -0.218773
     17          1           0        3.202658    0.567075    0.763992
     18          1           0        3.507805    0.875781   -0.963752
     19          1           0        2.043231    1.542025   -0.188259
     20          6           0       -1.961054    1.399076    0.298994
     21          8           0       -2.694580    1.984461    1.072307
     22          1           0       -1.076907    1.919692   -0.141314
 ---------------------------------------------------------------------
                    Distance matrix (angstroms):
                    1          2          3          4          5
     1  C    0.000000
     2  C    2.012264   0.000000
     3  C    3.090154   2.826450   0.000000
     4  C    1.393214   2.863677   2.491796   0.000000
     5  H    1.088642   2.424113   3.623377   2.124061   0.000000
     6  H    1.086569   2.293837   3.893509   2.142223   1.815508
     7  H    2.172703   3.409537   2.795380   1.086034   3.090277
     8  C    2.675925   1.391393   2.424435   3.225359   2.721433
     9  C    3.115133   2.433400   1.365128   3.028042   3.286954
    10  H    2.506481   1.086038   3.910831   3.655719   2.704693
    11  H    3.863914   3.893704   1.085253   2.951943   4.348869
    12  H    3.889509   3.393285   2.104100   3.721442   3.832046
    13  H    2.371177   1.082307   2.622133   2.852955   3.129641
    14  H    3.004626   2.628784   1.080881   2.467946   3.798398
    15  O    3.467301   2.323505   3.666166   4.248855   3.100286
    16  C    4.348371   3.595521   4.144254   4.898425   3.791233
    17  H    5.062458   4.104671   4.162006   5.429101   4.657821
    18  H    5.031400   4.293152   5.204346   5.745431   4.333337
    19  H    4.056962   3.822844   3.950862   4.429161   3.403659
    20  C    2.467274   3.856096   2.752486   1.458468   2.634928
    21  O    3.603584   4.949066   3.299242   2.388334   3.834440
    22  H    2.609184   3.857167   3.142553   2.161097   2.312044
                    6          7          8          9         10
     6  H    0.000000
     7  H    2.512877   0.000000
     8  C    3.357966   3.965594   0.000000
     9  C    4.000388   3.684011   1.416041   0.000000
    10  H    2.432048   4.198433   2.121058   3.399151   0.000000
    11  H    4.713914   3.122747   3.401059   2.128344   4.976573
    12  H    4.865511   4.456828   2.165760   1.084619   4.263919
    13  H    2.466466   3.050094   2.126190   2.716879   1.829440
    14  H    3.544147   2.426358   2.744132   2.155453   3.672110
    15  O    4.091669   5.119640   1.355642   2.432125   2.496196
    16  C    5.148028   5.855971   2.382133   2.801909   3.879665
    17  H    5.893290   6.302350   2.759408   2.826190   4.512376
    18  H    5.730088   6.737103   3.251419   3.867808   4.331586
    19  H    4.980202   5.444664   2.664614   2.748814   4.244369
    20  C    3.399073   2.179855   3.722687   3.150716   4.685315
    21  O    4.444822   2.673312   4.764152   3.944580   5.834729
    22  H    3.633532   3.116743   3.475885   3.050683   4.576116
                   11         12         13         14         15
    11  H    0.000000
    12  H    2.418591   0.000000
    13  H    3.663717   3.789913   0.000000
    14  H    1.833773   3.084510   2.029806   0.000000
    15  O    4.536891   2.688180   3.274046   4.094185   0.000000
    16  C    4.764535   2.470320   4.490660   4.851041   1.415301
    17  H    4.668361   2.278751   4.839589   4.932643   2.083144
    18  H    5.845906   3.551291   5.270142   5.860178   2.008462
    19  H    4.414980   2.255853   4.690520   4.773206   2.080065
    20  C    2.783646   3.425289   4.030699   3.211961   4.550900
    21  O    2.919307   4.072295   4.977412   3.766899   5.635474
    22  H    3.285056   3.095900   4.311596   3.790135   3.996405
                   16         17         18         19         20
    16  C    0.000000
    17  H    1.095737   0.000000
    18  H    1.089607   1.781436   0.000000
    19  H    1.096356   1.789296   1.786127   0.000000
    20  C    4.776542   5.250940   5.637090   4.036353   0.000000
    21  O    5.728151   6.073010   6.621502   4.922563   1.216038
    22  H    4.004998   4.578627   4.773441   3.143262   1.116525
                   21         22
    21  O    0.000000
    22  H    2.023348   0.000000
 Stoichiometry    C8H12O2
 Framework group  C1[X(C8H12O2)]
 Deg. of freedom    60
 Full point group                 C1      NOp   1
 Largest Abelian subgroup         C1      NOp   1
 Largest concise Abelian subgroup C1      NOp   1
                         Standard orientation:                         
 ---------------------------------------------------------------------
 Center     Atomic      Atomic             Coordinates (Angstroms)
 Number     Number       Type             X           Y           Z
 ---------------------------------------------------------------------
      1          6           0        0.710612    1.451268   -0.874110
      2          6           0       -0.894713    1.658490    0.321381
      3          6           0        0.623720   -0.313352    1.661164
      4          6           0        1.768223    0.781748   -0.262352
      5          1           0        0.223516    0.952495   -1.710235
      6          1           0        0.769485    2.529455   -0.995265
      7          1           0        2.495786    1.300263    0.355114
      8          6           0       -1.353379    0.348890    0.424071
      9          6           0       -0.558347   -0.635818    1.059246
[...]
 04811,0.00053905,0.00029445,-0.00013206,0.00002882,-0.00012056,0.00017
 347,-0.00004157,0.00002140,-0.00012352,0.00002225,-0.00002243,-0.01540
 313,-0.02083963,-0.00581270,-0.04564107,-0.09087371,-0.08526035,-0.001
 11412,-0.00082090,-0.00064960,-0.00227023,0.00237307,-0.00210462,0.044
 39034,0.09889401,0.08738874,-0.00715433,0.01302572,-0.00429134,-0.1456
 6611,-0.12276191,0.10685842,0.00402611,0.00085609,0.00221129,0.0014116
 3,-0.00087596,-0.00512145,-0.00096719,0.00064253,-0.00010723,0.0008272
 3,0.00013758,0.00019544,-0.00003785,-0.00027472,0.00037788,-0.01553622
 ,-0.01226215,0.00586713,-0.00528414,0.00171670,0.00273753,-0.00388329,
 -0.00504176,0.00217401,-0.00028927,0.00056145,-0.00055749,-0.00017485,
 0.00010767,0.00005947,0.16920820,0.00650799,-0.01119832,0.00337795,-0.
 13502111,-0.15489255,0.08219750,-0.00406867,-0.00003144,-0.00099787,-0
 .00056234,0.00134206,0.00446884,0.00072792,-0.00024770,0.00013840,-0.0
 0070434,0.00086722,-0.00059827,0.00014422,-0.00000498,-0.00007655,-0.0
 0402753,-0.00162333,0.01774080,0.00367119,-0.00079950,-0.00242993,0.00
 773975,0.00964127,-0.00570268,0.00054615,0.00026411,0.00041329,0.00015
 452,-0.00000150,0.00003229,0.12968204,0.15714868,-0.00277564,0.0058528
 5,-0.00148871,0.11038281,0.08923134,-0.13204213,0.00121814,-0.00296795
 ,-0.00098917,0.00052090,-0.00181123,-0.00227856,-0.00047025,-0.0001321
 2,-0.00008019,0.00012056,-0.00003334,-0.00028941,0.00000979,0.00003860
 ,0.00010003,-0.01147977,-0.00951566,0.01067100,-0.00038965,0.00164802,
 -0.00015798,0.01342735,0.01612375,-0.00851404,-0.00007630,-0.00002288,
 -0.00000960,-0.00015298,0.00037841,0.00002214,-0.11034840,-0.09387026,
 0.13742216,-0.00267995,0.00259602,0.00130370,0.00252435,-0.00104917,0.
 00225745,-0.11260108,-0.12853252,-0.01648615,-0.00188506,0.00413292,-0
 .00770737,0.00012649,-0.00008485,0.00025668,0.00026978,-0.00029286,0.0
 0014607,-0.00035892,0.00050306,-0.00052004,-0.00143659,-0.00175047,-0.
 00624479,-0.01363796,-0.02418843,-0.00414299,-0.00008844,0.00062110,-0
 .00036416,0.00736579,0.00917548,0.00202013,-0.00158105,-0.00323733,0.0
 0543030,0.00065938,0.00072606,0.00133803,0.12383607,0.00321776,-0.0027
 4408,-0.00171931,-0.00136297,0.00124144,-0.00319833,-0.13863402,-0.272
 04627,-0.06080948,0.00169101,-0.00317278,0.00710753,-0.00010971,0.0000
 1404,-0.00016350,-0.00041652,0.00046124,-0.00030232,0.00018545,0.00066
 205,-0.00036842,0.00090264,-0.00003831,0.00336792,0.00192169,-0.001122
 73,-0.00571325,0.00046825,0.00018916,0.00014468,-0.00835660,-0.0084624
 2,-0.00189904,-0.00200237,0.00339262,-0.00182561,0.00020147,-0.0000202
 9,-0.00136207,0.14147203,0.28116147,-0.00494806,0.00433657,0.00160803,
 0.00538238,-0.00017760,0.00153380,-0.00980162,-0.06004303,-0.05527578,
 -0.00331384,0.00520912,-0.01101877,0.00033772,-0.00021268,0.00035006,0
 .00033298,-0.00041260,0.00017356,0.00017027,0.00006530,0.00035455,-0.0
 0242699,-0.00257952,-0.00710630,-0.00198989,0.01164271,0.01247065,-0.0
 0047338,0.00027064,0.00010542,-0.01143755,-0.01895290,-0.00024663,0.00
 450101,-0.00306111,0.00274161,0.00147203,-0.00203716,-0.00203995,0.022
 34031,0.06689624,0.05590098,0.00860328,-0.00733669,0.00196945,-0.04891
 409,-0.02702434,0.01228647,0.00611256,0.00044354,0.00131951,-0.0045036
 0,0.01081474,0.00337023,0.00073979,0.00096975,-0.00111573,-0.00026834,
 0.00095888,-0.00064937,-0.00053370,0.00071911,-0.00082124,-0.22096335,
 -0.06209810,0.11232157,-0.01815114,-0.00905130,0.02534302,0.00012467,0
 .00178500,0.00072275,-0.00082957,0.00024833,-0.00022526,-0.00178046,0.
 00113112,-0.00150194,0.00295066,-0.00412224,-0.00093004,0.00006504,0.0
 0094003,-0.00067689,0.41561331,0.00744104,-0.00522444,-0.00002066,-0.0
 4561482,-0.01433334,0.01402651,-0.00414218,0.00111685,-0.00418440,-0.0
 0212604,0.00616728,0.00448180,-0.00136406,0.00033241,-0.00104878,0.000
 00611,0.00085132,-0.00064845,-0.00007225,0.00037054,-0.00031263,-0.084
 90931,-0.09190236,0.02017957,0.00852189,0.00803912,-0.00416313,0.00307
 121,-0.00085243,0.00276212,0.00082554,0.00000910,0.00009492,-0.0009775
 7,-0.00083402,0.00209057,-0.00490196,-0.00138453,-0.00329743,0.0007131
 2,0.00031173,-0.00009892,0.22947609,0.33040609,-0.00067465,0.00071814,
 -0.00118857,-0.00643244,-0.00158697,0.01885441,-0.00463303,-0.00608068
 ,-0.00311104,0.00252963,-0.00559648,0.00058440,0.00153877,-0.00040424,
 0.00073914,-0.00032662,-0.00049339,0.00058548,-0.00022819,-0.00004604,
 0.00009540,0.09127104,-0.00259295,-0.15062813,0.03874737,0.01399608,-0
 .02109843,-0.00135327,0.00225169,-0.00035649,0.00168218,0.00031082,-0.
 00035445,-0.00106474,0.00035699,0.00118961,-0.00224143,-0.00254792,-0.
 00102542,0.00011747,-0.00019450,0.00063581,-0.09519734,0.07620998,0.26
 399962,-0.00201199,0.00144900,-0.00003759,0.00250463,-0.00081709,0.005
 23454,-0.00127034,-0.00181337,-0.00115420,0.00131437,-0.00265996,-0.00
 088403,-0.00015543,0.00008013,-0.00001199,0.00015144,-0.00020760,0.000
 16163,0.00010511,-0.00012214,0.00007087,-0.03612827,-0.03196258,-0.005
 31914,0.00077965,0.00255550,-0.00136977,-0.00036742,0.00021366,-0.0006
 2867,0.00032985,0.00005113,-0.00008075,-0.00266348,-0.00227269,0.00107
 609,-0.00042275,-0.00053641,-0.00072050,-0.00017335,-0.00029915,0.0004
 2138,-0.11560933,-0.06161340,-0.01510482,0.59430739,-0.00162526,0.0007
 0201,-0.00098245,0.00383620,0.00381064,0.00028309,-0.00252161,-0.00170
 760,-0.00150455,0.00122004,-0.00370351,0.00040108,-0.00038082,0.000087
 78,0.00022780,-0.00016737,-0.00006708,0.00006694,0.00008094,-0.0003125
 0,0.00013695,-0.02165333,-0.02078834,0.00806912,0.00634910,0.00378505,
 -0.00300072,0.00015783,-0.00048703,0.00017912,0.00045858,-0.00000435,-
 0.00013756,0.00016786,-0.00052531,-0.00065430,-0.00083008,0.00168808,-
 0.00057180,-0.00030081,-0.00033740,0.00027879,-0.07843681,-0.17892364,
 -0.05585828,-0.03554846,0.53171362,-0.00085681,0.00058232,-0.00017101,
 0.00414846,0.00002414,-0.00171862,-0.00092686,-0.00052655,0.00005297,0
 .00067689,-0.00176236,-0.00038118,-0.00003703,0.00002648,0.00006180,-0
 .00001827,-0.00015151,0.00007328,0.00008627,-0.00012680,0.00009361,0.0
 0737685,0.01794286,0.00941934,0.00513340,0.00488106,-0.00278742,-0.000
 43252,0.00049041,-0.00007308,0.00011175,-0.00001914,-0.00003577,0.0027
 9581,0.00109096,-0.00134844,0.00090938,0.00014405,0.00067055,0.0000229
 3,-0.00012188,0.00034030,-0.03337024,-0.07292356,-0.11206399,-0.044068
 50,-0.02850348,0.60744176,0.00079926,-0.00044245,-0.00011441,-0.001282
 54,-0.00063012,0.00000871,-0.00050548,0.00011686,0.00027482,-0.0000811
 9,0.00015475,0.00061888,0.00001060,0.00000694,0.00000050,-0.00003812,0
 .00000769,-0.00000440,-0.00003109,0.00000300,-0.00001546,0.00389278,0.
 00257608,-0.00374668,0.00022180,-0.00003397,0.00013110,0.00001555,0.00
 020517,0.00005402,-0.00003238,0.00001558,-0.00003417,-0.00228165,0.000
 67711,0.00030332,0.00011072,-0.00027888,0.00004162,0.00013865,0.000049
 37,0.00005455,-0.01237302,-0.00739772,-0.01856184,-0.08799749,0.023226
 18,-0.08245539,0.09380577,0.00059777,-0.00045045,0.00000880,-0.0010124
 5,-0.00091589,-0.00002654,-0.00032064,-0.00035366,-0.00001938,0.000011
 54,0.00033879,0.00029500,0.00004487,-0.00000665,-0.00004606,-0.0000208
 9,0.00004547,-0.00003076,-0.00000553,0.00005051,-0.00001837,0.00392445
 ,0.00304035,-0.00331840,0.00020991,0.00088194,0.00134029,-0.00004376,0
 .00024674,-0.00000781,-0.00003087,0.00002900,-0.00000105,-0.00065821,-
 0.00011908,-0.00003353,0.00012920,-0.00028962,0.00009114,-0.00005836,-
 0.00001227,0.00009456,-0.02069934,-0.00190294,-0.03269311,0.02550771,-
 0.06822824,0.06084276,-0.01867349,0.07177845,0.00020593,-0.00000980,0.
 00014872,-0.00071230,-0.00041427,0.00019803,0.00057593,0.00068810,0.00
 021474,-0.00033385,0.00053512,-0.00005592,0.00006521,-0.00003637,-0.00
 001107,0.00003063,-0.00000547,0.00000213,-0.00002531,0.00002964,-0.000
 02069,0.00337654,0.00117591,-0.00161482,-0.00043714,-0.00138500,0.0001
 4393,0.00006060,0.00013642,0.00004997,-0.00002244,-0.00004082,0.000070
 38,0.00141289,0.00046111,0.00036596,0.00002028,-0.00011924,0.00002601,
 0.00005175,0.00014736,-0.00023651,-0.01113828,-0.01055136,-0.00821777,
 -0.08624517,0.05703669,-0.26621862,0.09894531,-0.05360382,0.28973186,0
 .00019366,-0.00016337,0.00003636,-0.00074570,-0.00043925,0.00060315,0.
 00009593,0.00005768,0.00013729,-0.00007996,0.00029181,0.00004139,-0.00
 001446,0.00001726,0.00001019,-0.00000127,0.00002107,-0.00001631,0.0000
 0261,0.00000222,-0.00000631,0.00123345,-0.00128063,-0.00257282,0.00024
 255,-0.00046365,-0.00011763,0.00003684,-0.00003256,-0.00000335,-0.0000
 1549,-0.00002019,0.00002765,-0.00011226,0.00022195,-0.00018757,-0.0001
 7864,-0.00015301,-0.00016148,-0.00001028,0.00002584,-0.00006752,-0.019
 87004,-0.01061022,0.00988913,-0.20338149,-0.02490035,0.13566199,0.0119
 2237,0.00236925,-0.00811734,0.22294579,0.00035607,-0.00023776,-0.00000
 889,-0.00131388,-0.00040516,0.00078458,-0.00006184,0.00048849,0.000200
 09,-0.00008055,0.00029907,0.00018144,-0.00003313,0.00000348,-0.0000394
 9,-0.00000314,0.00003423,-0.00001779,-0.00000531,0.00003156,-0.0000108
 4,-0.00083453,-0.00260993,-0.00307361,0.00007152,-0.00056374,-0.001053
 93,0.00005555,-0.00001008,-0.00001758,-0.00008065,0.00001514,-0.000022
 53,0.00051272,0.00042142,0.00037070,-0.00020791,-0.00021855,-0.0002016
 8,0.00016677,-0.00002995,-0.00000748,-0.03154079,-0.01352531,0.0179686
 5,-0.01775791,-0.05349477,0.02074969,-0.00541704,-0.00017960,0.0060398
 0,0.03746738,0.06371644,0.00017149,-0.00007937,-0.00000320,-0.00049632
 ,-0.00023085,0.00047663,-0.00007127,0.00038895,0.00024796,0.00000083,-
 0.00001597,0.00015219,-0.00001438,0.00001465,-0.00000415,0.00000386,0.
 00000003,0.00000560,-0.00001124,0.00000081,-0.00001254,-0.00189649,-0.
 00223801,-0.00042779,0.00023151,-0.00094893,-0.00068573,0.00004476,-0.
 00000208,-0.00000171,-0.00001171,-0.00001981,0.00001868,0.00023123,0.0
 0077925,0.00020517,-0.00012853,-0.00013061,-0.00011392,0.00010579,0.00
 002813,-0.00006212,-0.01501806,-0.00508681,0.01131343,0.14413463,0.028
 62521,-0.17954427,0.02215344,0.00255978,-0.01693740,-0.14802452,-0.023
 78934,0.18454064,0.00081472,-0.00061575,-0.00020680,-0.00135443,0.0002
 2263,-0.00096833,-0.00117867,-0.00004478,-0.00032331,-0.00001783,0.000
 06905,0.00065295,-0.00009351,0.00003092,-0.00007733,-0.00006945,0.0000
 9568,-0.00007905,0.00004673,0.00002663,0.00003680,0.00436236,0.0003098
 4,-0.00048886,0.00060622,0.00076187,0.00054379,0.00012321,-0.00006913,
 0.00012246,0.00004589,-0.00004327,0.00005005,-0.00051646,-0.00141025,0
 .00101927,-0.00006449,0.00008346,-0.00001057,-0.00006734,-0.00002703,0
 .00001794,0.01261707,-0.02407368,-0.00156927,-0.15000834,0.12945810,0.
 00469049,-0.00628168,0.00889641,0.00244671,-0.01220956,0.01885689,-0.0
 0141403,0.15331093,0.00104758,-0.00084647,0.00008507,-0.00217446,-0.00
 036444,-0.00041381,-0.00026924,0.00060620,0.00015838,-0.00026693,0.000
 87557,0.00064740,-0.00003498,0.00000634,-0.00014253,-0.00002775,0.0001
 3920,-0.00009844,-0.00005062,0.00010230,-0.00008491,0.00700188,0.00244
 316,-0.00351170,-0.00019383,-0.00025693,-0.00005434,0.00027382,-0.0000
 3086,0.00025990,-0.00007242,0.00000482,0.00000540,-0.00016924,-0.00017
 258,0.00111447,-0.00003728,-0.00003755,-0.00001829,0.00019983,0.000031
 47,0.00000747,0.00005087,-0.03506746,-0.00715313,0.12401367,-0.2161387
 4,-0.00395707,0.00584362,-0.00370881,0.00032935,-0.00222771,0.00649430
 ,0.00010172,-0.13245306,0.24648792,-0.00003699,-0.00002649,0.00018340,
 -0.00023535,-0.00010647,-0.00006221,0.00045119,-0.00026711,0.00001644,
 -0.00012085,0.00045640,-0.00019726,-0.00005554,-0.00000990,-0.00006414
 ,0.00005528,0.00003968,-0.00005056,0.00003611,0.00000587,0.00000777,0.
 00137606,0.00109735,-0.00071574,-0.00048257,0.00051062,0.00054798,0.00
 008571,-0.00006132,0.00007419,-0.00003251,0.00003374,-0.00000468,0.000
 32152,0.00091634,-0.00115041,-0.00005059,0.00004787,-0.00000622,-0.000
 09752,0.00000432,-0.00000812,0.00395711,-0.01724732,-0.00058061,0.0043
 3640,-0.00434789,-0.05391599,-0.01764018,0.02454707,0.00241143,0.01287
 700,-0.01804388,0.00083572,-0.00457773,0.01277294,0.05270086,0.0085671
 5,0.01543402,0.00465559,-0.00589091,0.00148451,-0.00232592,-0.00655118
 ,0.00259721,-0.00717688,-0.09786797,-0.05715192,0.01374055,-0.00246779
 ,0.00482561,0.00009553,0.00170135,-0.00158356,0.00484054,-0.00191233,-
 0.02640973,-0.00821242,0.00161496,0.00483562,-0.00005492,-0.00059463,0
 .00214468,-0.00058648,-0.00003306,0.00001444,0.00002762,0.00064374,-0.
 00007680,0.00094971,-0.00033288,-0.00017759,-0.00076194,0.00031749,-0.
 00036880,0.00054984,0.00041776,-0.00050391,0.00086921,-0.00277861,-0.0
 0249167,0.00187025,0.00011273,0.00207320,0.00056163,0.00013438,-0.0003
 2301,-0.00009154,0.00006428,-0.00025611,-0.00004108,-0.00044653,-0.000
 73753,-0.00026574,0.62978000,0.02159446,-0.01629614,-0.01727710,-0.010
 89484,-0.00050615,-0.00643101,0.01549747,-0.00619613,0.00905913,-0.053
 05809,-0.23144229,-0.03553720,-0.00235296,-0.00052281,0.00241238,-0.00
 267474,0.00208894,0.00072177,0.00039220,-0.00987714,-0.00522863,0.0085
 9582,0.00753749,-0.00751327,-0.00482044,0.00046431,0.00825332,0.000098
 17,0.00007301,0.00023479,-0.00085921,0.00159136,-0.00209834,-0.0012880
 9,0.00004693,-0.00091107,0.00078875,-0.00076973,0.00085046,-0.00119989
 ,0.00067244,-0.00168936,-0.01308330,-0.00721287,0.00606529,0.00319459,
 0.00541869,0.00243888,-0.00004816,-0.00046344,-0.00075690,-0.00034676,
 -0.00043494,0.00008035,-0.00015153,-0.00113993,-0.00055705,-0.05839013
 ,0.63787427,0.00684841,-0.03406900,-0.01878099,-0.00599272,0.00088804,
 -0.00435715,0.00413201,0.00063079,0.00018189,0.00908846,-0.01835048,-0
 .07522487,-0.00466239,-0.00040338,-0.00155407,0.00618235,-0.00445181,-
 0.00130272,0.00297304,0.01404740,0.00457089,0.00294338,0.00212258,-0.0
 0240903,-0.00268635,0.00053239,0.00303497,0.00011038,-0.00022087,0.000
 36111,-0.00183327,0.00209811,-0.00330407,-0.00028538,0.00000818,0.0002
 2886,0.00045719,-0.00053963,0.00058441,0.00004251,-0.00021540,-0.00088
 198,-0.00406678,-0.00194929,0.00192015,0.00151288,0.00079306,0.0007210
 6,-0.00022033,0.00008899,-0.00030983,-0.00017082,-0.00002724,0.0000152
 8,0.00026683,-0.00002448,-0.00003014,-0.33885057,0.21953339,0.52398653
 ,0.00850781,-0.00416793,-0.00308112,-0.00291167,-0.00017964,-0.0016653
 9,0.00175277,0.00164360,0.00286493,0.01174840,0.02620884,0.01211791,-0
 .00001720,-0.00125663,-0.00095620,-0.00134084,0.00106384,-0.00075106,0
 .00061799,0.00388668,-0.00025275,0.00177027,0.00196240,0.00061211,0.00
 067802,-0.00017640,-0.00027103,0.00002820,-0.00004482,0.00005045,-0.00
 028719,-0.00009700,-0.00026740,0.00008356,-0.00008548,0.00023095,0.000
 29481,-0.00027213,0.00005898,-0.00080333,0.00050805,-0.00064107,-0.001
 67049,-0.00076739,0.00053017,0.00082652,0.00002787,0.00026503,-0.00013
 090,0.00006509,-0.00013563,-0.00013347,0.00002996,0.00003798,0.0001339
 6,0.00012856,0.00000773,-0.34615583,0.18876833,0.27434929,0.35251350,-
 0.01265407,-0.00167078,0.00316373,0.00621946,0.00003011,0.00316812,-0.
 00102814,-0.00100665,-0.00247516,0.03802500,-0.03679242,-0.04773015,0.
 00105241,0.00010063,-0.00012403,0.00191439,-0.00105920,-0.00153576,-0.
 00000003,0.00369896,0.00232106,-0.00385430,-0.00509081,0.00054666,-0.0
 0026671,-0.00038082,-0.00055689,-0.00000026,0.00000514,-0.00004169,-0.
 00014236,-0.00029181,0.00016861,0.00038552,0.00010923,0.00018237,-0.00
 056081,0.00052963,-0.00037776,0.00051063,-0.00018569,0.00050649,0.0051
 4693,0.00317966,-0.00224811,-0.00142941,-0.00200633,-0.00097777,0.0000
 8197,0.00016182,0.00031515,0.00017321,0.00015804,-0.00003988,0.0000252
 6,0.00038583,0.00018342,0.19617448,-0.26255508,-0.21532483,-0.23400434
 ,0.28083128,-0.00781808,0.00338577,0.00700480,0.00544703,-0.00032019,0
 .00294406,-0.00414273,0.00065713,-0.00284339,0.01791275,-0.04302186,-0
 .01025629,0.00125767,0.00016472,0.00110789,-0.00056034,0.00033941,-0.0
 0034866,-0.00216335,-0.00019933,-0.00108650,-0.00330417,-0.00298141,0.
 00058606,0.00018504,0.00018456,-0.00121883,0.00004592,0.00000106,-0.00
 007825,0.00113908,-0.00117820,0.00224860,0.00029761,0.00001485,-0.0001
 2593,-0.00051750,0.00046970,-0.00043013,0.00032892,0.00001140,0.000903
 48,0.00417924,0.00204010,-0.00153256,-0.00137312,-0.00113076,-0.000782
 77,0.00015841,0.00000060,0.00028984,0.00015627,0.00006585,-0.00002257,
 -0.00017169,0.00015276,0.00004507,0.27662694,-0.20968560,-0.34470625,-
 0.32101443,0.26217366,0.35640594,-0.00212356,0.00157799,0.00068925,0.0
 0161582,0.00003292,0.00091560,0.00009026,0.00023443,0.00061190,-0.0010
 6336,-0.00588734,0.00791635,0.00054660,-0.00046929,-0.00070996,0.00012
 931,0.00018191,-0.00054303,0.00095009,-0.00147910,0.00079310,-0.000759
 39,-0.00179225,0.00065296,0.00024531,0.00007520,-0.00101278,-0.0000214
 5,0.00002357,-0.00003897,-0.00016429,-0.00003934,-0.00011327,0.0001665
 2,0.00004979,0.00024414,-0.00014709,0.00013218,-0.00015246,-0.00007996
 ,0.00012868,-0.00012295,0.00141935,0.00100726,-0.00078836,-0.00024201,
 -0.00069101,-0.00027523,-0.00001634,0.00009034,0.00006723,0.00001514,0
 .00007592,0.00001212,0.00024721,0.00015522,0.00009146,-0.17832214,-0.0
 8976164,0.04986187,-0.02550489,0.00423115,0.03333052,0.20301886,-0.000
 51580,-0.00012400,0.00137038,-0.00011907,0.00006721,-0.00002623,-0.001
 80715,0.00058262,-0.00074523,-0.02698191,-0.01341258,0.00973423,0.0008
 5512,0.00002829,-0.00105937,0.00021336,0.00042126,-0.00026011,-0.00095
 919,-0.00514391,-0.00249642,-0.00005709,-0.00007180,0.00068472,0.00081
 044,0.00034721,-0.00077425,0.00001803,-0.00000699,0.00000169,0.0000607
 5,-0.00010599,0.00014835,0.00024793,-0.00007049,0.00019928,-0.00009466
 ,0.00003853,-0.00003209,-0.00012232,0.00003453,-0.00003552,0.00070854,
 0.00037926,-0.00038185,-0.00002522,-0.00048103,-0.00014349,-0.00004251
 ,0.00005759,0.00002842,-0.00000996,0.00004762,0.00000277,0.00005173,0.
 00018664,0.00005179,-0.08111300,-0.11835081,0.03483349,0.01675854,0.02
 184926,-0.01114422,0.09212344,0.11372757,-0.00167452,0.00024249,0.0012
 6742,-0.00018880,-0.00001842,-0.00011410,0.00104231,0.00050174,0.00063
 402,0.00008370,-0.00655070,0.00894447,0.00015475,0.00064791,-0.0000360
 3,-0.00038187,0.00031210,0.00027784,0.00127321,-0.00207646,0.00163857,
 0.00039541,-0.00013571,-0.00014807,0.00014839,0.00007362,0.00008837,0.
 00002075,-0.00000597,0.00001124,0.00006253,-0.00000362,0.00005794,-0.0
 0020663,0.00007755,-0.00017701,0.00002391,0.00001942,-0.00003089,-0.00
 019903,0.00018552,-0.00024209,-0.00075819,-0.00035281,0.00023999,0.000
 04983,0.00059395,0.00016651,0.00004818,-0.00007014,-0.00003035,0.00000
 526,-0.00004652,0.00000409,0.00003970,-0.00017618,-0.00003677,0.053580
 08,0.03803580,-0.08274404,0.03791052,-0.00129726,-0.00810359,-0.091429
 50,-0.02995635,0.07833247\\0.00000239,0.00000394,-0.00000427,-0.000004
 39,-0.00000159,-0.00000281,-0.00000431,-0.00000063,-0.00000110,-0.0000
 0080,-0.00000300,0.00000305,0.00000166,0.00000300,0.00000117,0.0000001
 3,0.00000343,-0.00000257,-0.00000028,0.00000137,-0.00000137,-0.0000019
 9,0.00000372,0.00000010,0.00000146,0.00000101,-0.00000276,0.00000030,0
 .00000238,-0.00000259,-0.00000050,-0.00000395,0.00000047,0.00000013,-0
 .00000238,0.00000121,-0.00000156,0.00000070,-0.00000352,-0.00000118,-0
 .00000229,-0.00000199,0.00000077,-0.00000151,0.00000151,0.00000096,-0.
 00000138,0.00000262,0.00000021,-0.00000293,0.00000174,0.00000087,-0.00
 000006,0.00000250,0.00000023,-0.00000087,0.00000307,0.00000357,0.00000
 042,-0.00000196,0.00000048,-0.00000019,0.00000484,0.00000184,0.0000008
 2,0.00000263\\\@
 The archive entry for this job was punched.


 A CHEMICAL PHYSICIST MAKES PRECISE MEASUREMENTS ON IMPURE COMPOUNDS.
 A THEORETICAL PHYSICAL CHEMIST MAKES IMPRECISE
     MEASUREMENTS ON PURE COMPOUNDS.
 AN EXPERIMENTAL PHYSICAL CHEMIST MAKES IMPRECISE
     MEASUREMENTS ON IMPURE COMPOUNDS.
 Job cpu time:       0 days  0 hours 23 minutes 56.0 seconds.
 Elapsed time:       0 days  0 hours  1 minutes 32.9 seconds.
 File lengths (MBytes):  RWF=     84 Int=      0 D2E=      0 Chk=      4 Scr=      1
 Normal termination of Gaussian 16 at Tue Jun 21 10:28:24 2022.
