Job Start Time: Tue Jun 21 10:16:20 MDT 2022
SLURM Job ID: 40862
SLURM Job Name: DATS_14_exo_ii
 Entering Gaussian System, Link 0=/opt/apps/Gaussian/G16C/g16/g16
 Initial command:
 /opt/apps/Gaussian/G16C/g16/l1.exe "/tmp/Gau-337334.inp" -scrdir="/tmp/"
 Entering Link 1 = /opt/apps/Gaussian/G16C/g16/l1.exe PID=    337335.
  
 Copyright (c) 1988-2019, Gaussian, Inc.  All Rights Reserved.
  
 This is part of the Gaussian(R) 16 program.  It is based on
 the Gaussian(R) 09 system (copyright 2009, Gaussian, Inc.),
 the Gaussian(R) 03 system (copyright 2003, Gaussian, Inc.),
 the Gaussian(R) 98 system (copyright 1998, Gaussian, Inc.),
 the Gaussian(R) 94 system (copyright 1995, Gaussian, Inc.),
 the Gaussian 92(TM) system (copyright 1992, Gaussian, Inc.),
 the Gaussian 90(TM) system (copyright 1990, Gaussian, Inc.),
 the Gaussian 88(TM) system (copyright 1988, Gaussian, Inc.),
 the Gaussian 86(TM) system (copyright 1986, Carnegie Mellon
 University), and the Gaussian 82(TM) system (copyright 1983,
 Carnegie Mellon University). Gaussian is a federally registered
 trademark of Gaussian, Inc.
  
 This software contains proprietary and confidential information,
 including trade secrets, belonging to Gaussian, Inc.
  
 This software is provided under written license and may be
 used, copied, transmitted, or stored only in accord with that
 written license.
  
 The following legend is applicable only to US Government
 contracts under FAR:
  
                    RESTRICTED RIGHTS LEGEND
  
 Use, reproduction and disclosure by the US Government is
 subject to restrictions as set forth in subparagraphs (a)
 and (c) of the Commercial Computer Software - Restricted
 Rights clause in FAR 52.227-19.
  
 Gaussian, Inc.
 340 Quinnipiac St., Bldg. 40, Wallingford CT 06492
  
  
 ---------------------------------------------------------------
 Warning -- This program may not be used in any manner that
 competes with the business of Gaussian, Inc. or will provide
 assistance to any competitor of Gaussian, Inc.  The licensee
 of this program is prohibited from giving any competitor of
 Gaussian, Inc. access to this program.  By using this program,
 the user acknowledges that Gaussian, Inc. is engaged in the
 business of creating and licensing software in the field of
 computational chemistry and represents and warrants to the
 licensee that it is not a competitor of Gaussian, Inc. and that
 it will not use this program in any manner prohibited above.
 ---------------------------------------------------------------
  

 Cite this work as:
 Gaussian 16, Revision C.01,
 M. J. Frisch, G. W. Trucks, H. B. Schlegel, G. E. Scuseria, 
 M. A. Robb, J. R. Cheeseman, G. Scalmani, V. Barone, 
 G. A. Petersson, H. Nakatsuji, X. Li, M. Caricato, A. V. Marenich, 
 J. Bloino, B. G. Janesko, R. Gomperts, B. Mennucci, H. P. Hratchian, 
 J. V. Ortiz, A. F. Izmaylov, J. L. Sonnenberg, D. Williams-Young, 
 F. Ding, F. Lipparini, F. Egidi, J. Goings, B. Peng, A. Petrone, 
 T. Henderson, D. Ranasinghe, V. G. Zakrzewski, J. Gao, N. Rega, 
 G. Zheng, W. Liang, M. Hada, M. Ehara, K. Toyota, R. Fukuda, 
 J. Hasegawa, M. Ishida, T. Nakajima, Y. Honda, O. Kitao, H. Nakai, 
 T. Vreven, K. Throssell, J. A. Montgomery, Jr., J. E. Peralta, 
 F. Ogliaro, M. J. Bearpark, J. J. Heyd, E. N. Brothers, K. N. Kudin, 
 V. N. Staroverov, T. A. Keith, R. Kobayashi, J. Normand, 
 K. Raghavachari, A. P. Rendell, J. C. Burant, S. S. Iyengar, 
 J. Tomasi, M. Cossi, J. M. Millam, M. Klene, C. Adamo, R. Cammi, 
 J. W. Ochterski, R. L. Martin, K. Morokuma, O. Farkas, 
 J. B. Foresman, and D. J. Fox, Gaussian, Inc., Wallingford CT, 2019.
 
 ******************************************
 Gaussian 16:  AS64L-G16RevC.01  3-Jul-2019
                21-Jun-2022 
 ******************************************
 %chk=DATS_14_exo_ii.chk
 %nprocshared=16
 Will use up to   16 processors via shared memory.
 -------------------------------------------------
 # opt=(calcfc,ts,noeigentest) freq 6-31g(d) m062x
 -------------------------------------------------
 1/5=1,10=4,11=1,18=20,26=3,38=1/1,3;
 2/9=110,12=2,17=6,18=5,40=1/2;
 3/5=1,6=6,7=1,11=2,25=1,30=1,71=2,74=-55,140=1/1,2,3;
 4//1;
 5/5=2,38=5/2;
 8/6=4,10=90,11=11/1;
 11/6=1,8=1,9=11,15=111,16=1/1,2,10;
 10/6=1,13=1/2;
 6/7=2,8=2,9=2,10=2,28=1/1;
 7/10=1,25=1/1,2,3,16;
 1/5=1,10=4,11=1,18=20,26=3/3(2);
 2/9=110/2;
 99//99;
 2/9=110/2;
 3/5=1,6=6,7=1,11=2,25=1,30=1,71=1,74=-55/1,2,3;
 4/5=5,16=3,69=1/1;
 5/5=2,38=5/2;
 7//1,2,3,16;
 1/5=1,11=1,18=20,26=3/3(-5);
 2/9=110/2;
 6/7=2,8=2,9=2,10=2,19=2,28=1/1;
 99/9=1/99;
 -------------------
 Title Card Required
 -------------------
 Symbolic Z-matrix:
 Charge =  0 Multiplicity = 1
 C                    -1.46442  -0.56807  -1.32635 
 C                     0.09333  -1.72764  -0.63331 
 C                    -0.6618   -0.69789   1.96113 
 C                    -2.10543   0.14941  -0.32654 
 H                    -0.79352  -0.00613  -1.97025 
 H                    -1.97319  -1.40925  -1.78957 
 H                    -1.71979   1.0879    0.05752 
 C                     0.87261  -0.81866   0.0633 
 C                     0.5031   -0.35359   1.37092 
 H                     0.48015  -2.07894  -1.58449 
 H                    -0.94845  -0.2551    2.90938 
 H                     1.11468   0.41255   1.83475 
 H                    -0.51082  -2.43206  -0.07673 
 H                    -1.30902  -1.4761    1.57811 
 O                     1.91672  -0.30717  -0.61036 
 C                     2.22272  -0.81754  -1.90048 
 H                     1.47263  -0.50292  -2.63482 
 H                     3.1842   -0.3788   -2.16634 
 H                     2.29865  -1.90811  -1.86459 
 C                    -3.30992  -0.40981   0.22655 
 O                    -3.84642  -1.42518  -0.21581 
 H                    -3.76577   0.12869   1.08109 
 
 Add virtual bond connecting atoms C2         and C1         Dist= 3.90D+00.

 GradGradGradGradGradGradGradGradGradGradGradGradGradGradGradGradGradGrad
 Berny optimization.
 Initialization pass.
                           ----------------------------
                           !    Initial Parameters    !
                           ! (Angstroms and Degrees)  !
 --------------------------                            --------------------------
 ! Name  Definition              Value          Derivative Info.                !
 --------------------------------------------------------------------------------
 ! R1    R(1,2)                  2.0619         calculate D2E/DX2 analytically  !
 ! R2    R(1,4)                  1.3876         calculate D2E/DX2 analytically  !
 ! R3    R(1,5)                  1.0865         calculate D2E/DX2 analytically  !
 ! R4    R(1,6)                  1.0867         calculate D2E/DX2 analytically  !
 ! R5    R(2,8)                  1.3852         calculate D2E/DX2 analytically  !
 ! R6    R(2,10)                 1.0853         calculate D2E/DX2 analytically  !
 ! R7    R(2,13)                 1.0821         calculate D2E/DX2 analytically  !
 ! R8    R(3,9)                  1.3505         calculate D2E/DX2 analytically  !
 ! R9    R(3,11)                 1.0851         calculate D2E/DX2 analytically  !
 ! R10   R(3,14)                 1.0822         calculate D2E/DX2 analytically  !
 ! R11   R(4,7)                  1.0849         calculate D2E/DX2 analytically  !
 ! R12   R(4,20)                 1.4385         calculate D2E/DX2 analytically  !
 ! R13   R(8,9)                  1.4362         calculate D2E/DX2 analytically  !
 ! R14   R(8,15)                 1.3437         calculate D2E/DX2 analytically  !
 ! R15   R(9,12)                 1.0845         calculate D2E/DX2 analytically  !
 ! R16   R(15,16)                1.4208         calculate D2E/DX2 analytically  !
 ! R17   R(16,17)                1.0958         calculate D2E/DX2 analytically  !
 ! R18   R(16,18)                1.0898         calculate D2E/DX2 analytically  !
 ! R19   R(16,19)                1.0938         calculate D2E/DX2 analytically  !
 ! R20   R(20,21)                1.2306         calculate D2E/DX2 analytically  !
 ! R21   R(20,22)                1.1082         calculate D2E/DX2 analytically  !
 ! A1    A(2,1,4)              113.4295         calculate D2E/DX2 analytically  !
 ! A2    A(2,1,5)               91.3497         calculate D2E/DX2 analytically  !
 ! A3    A(2,1,6)               93.5351         calculate D2E/DX2 analytically  !
 ! A4    A(4,1,5)              116.4141         calculate D2E/DX2 analytically  !
 ! A5    A(4,1,6)              119.4123         calculate D2E/DX2 analytically  !
 ! A6    A(5,1,6)              115.9008         calculate D2E/DX2 analytically  !
 ! A7    A(1,2,8)              103.0036         calculate D2E/DX2 analytically  !
 ! A8    A(1,2,10)              99.0173         calculate D2E/DX2 analytically  !
 ! A9    A(1,2,13)              96.7289         calculate D2E/DX2 analytically  !
 ! A10   A(8,2,10)             116.9147         calculate D2E/DX2 analytically  !
 ! A11   A(8,2,13)             118.8543         calculate D2E/DX2 analytically  !
 ! A12   A(10,2,13)            116.0454         calculate D2E/DX2 analytically  !
 ! A13   A(9,3,11)             120.3807         calculate D2E/DX2 analytically  !
 ! A14   A(9,3,14)             122.9906         calculate D2E/DX2 analytically  !
 ! A15   A(11,3,14)            116.4069         calculate D2E/DX2 analytically  !
 ! A16   A(1,4,7)              122.5587         calculate D2E/DX2 analytically  !
 ! A17   A(1,4,20)             117.5707         calculate D2E/DX2 analytically  !
 ! A18   A(7,4,20)             119.8549         calculate D2E/DX2 analytically  !
 ! A19   A(2,8,9)              121.7106         calculate D2E/DX2 analytically  !
 ! A20   A(2,8,15)             115.7722         calculate D2E/DX2 analytically  !
 ! A21   A(9,8,15)             122.2151         calculate D2E/DX2 analytically  !
 ! A22   A(3,9,8)              122.4973         calculate D2E/DX2 analytically  !
 ! A23   A(3,9,12)             118.6603         calculate D2E/DX2 analytically  !
 ! A24   A(8,9,12)             118.2339         calculate D2E/DX2 analytically  !
 ! A25   A(8,15,16)            119.0684         calculate D2E/DX2 analytically  !
 ! A26   A(15,16,17)           110.9735         calculate D2E/DX2 analytically  !
 ! A27   A(15,16,18)           105.4809         calculate D2E/DX2 analytically  !
 ! A28   A(15,16,19)           110.0796         calculate D2E/DX2 analytically  !
 ! A29   A(17,16,18)           108.9558         calculate D2E/DX2 analytically  !
 ! A30   A(17,16,19)           110.8408         calculate D2E/DX2 analytically  !
 ! A31   A(18,16,19)           110.375          calculate D2E/DX2 analytically  !
 ! A32   A(4,20,21)            123.1996         calculate D2E/DX2 analytically  !
 ! A33   A(4,20,22)            116.8726         calculate D2E/DX2 analytically  !
 ! A34   A(21,20,22)           119.9195         calculate D2E/DX2 analytically  !
 ! D1    D(4,1,2,8)            -53.5423         calculate D2E/DX2 analytically  !
 ! D2    D(4,1,2,10)          -174.0091         calculate D2E/DX2 analytically  !
 ! D3    D(4,1,2,13)            68.191          calculate D2E/DX2 analytically  !
 ! D4    D(5,1,2,8)             66.139          calculate D2E/DX2 analytically  !
 ! D5    D(5,1,2,10)           -54.3278         calculate D2E/DX2 analytically  !
 ! D6    D(5,1,2,13)          -172.1277         calculate D2E/DX2 analytically  !
 ! D7    D(6,1,2,8)           -177.8066         calculate D2E/DX2 analytically  !
 ! D8    D(6,1,2,10)            61.7266         calculate D2E/DX2 analytically  !
 ! D9    D(6,1,2,13)           -56.0733         calculate D2E/DX2 analytically  !
 ! D10   D(2,1,4,7)             81.4457         calculate D2E/DX2 analytically  !
 ! D11   D(2,1,4,20)           -97.1109         calculate D2E/DX2 analytically  !
 ! D12   D(5,1,4,7)            -22.6719         calculate D2E/DX2 analytically  !
 ! D13   D(5,1,4,20)           158.7715         calculate D2E/DX2 analytically  !
 ! D14   D(6,1,4,7)           -169.8038         calculate D2E/DX2 analytically  !
 ! D15   D(6,1,4,20)            11.6396         calculate D2E/DX2 analytically  !
 ! D16   D(1,2,8,9)             76.8388         calculate D2E/DX2 analytically  !
 ! D17   D(1,2,8,15)           -96.9793         calculate D2E/DX2 analytically  !
 ! D18   D(10,2,8,9)          -175.8457         calculate D2E/DX2 analytically  !
 ! D19   D(10,2,8,15)           10.3362         calculate D2E/DX2 analytically  !
 ! D20   D(13,2,8,9)           -28.501          calculate D2E/DX2 analytically  !
 ! D21   D(13,2,8,15)          157.6809         calculate D2E/DX2 analytically  !
 ! D22   D(11,3,9,8)          -174.3303         calculate D2E/DX2 analytically  !
 ! D23   D(11,3,9,12)           -3.4377         calculate D2E/DX2 analytically  !
 ! D24   D(14,3,9,8)            11.2779         calculate D2E/DX2 analytically  !
 ! D25   D(14,3,9,12)         -177.8294         calculate D2E/DX2 analytically  !
 ! D26   D(1,4,20,21)           -6.0149         calculate D2E/DX2 analytically  !
 ! D27   D(1,4,20,22)          175.0319         calculate D2E/DX2 analytically  !
 ! D28   D(7,4,20,21)          175.3879         calculate D2E/DX2 analytically  !
 ! D29   D(7,4,20,22)           -3.5653         calculate D2E/DX2 analytically  !
 ! D30   D(2,8,9,3)             -4.6293         calculate D2E/DX2 analytically  !
 ! D31   D(2,8,9,12)          -175.5589         calculate D2E/DX2 analytically  !
 ! D32   D(15,8,9,3)           168.7891         calculate D2E/DX2 analytically  !
 ! D33   D(15,8,9,12)           -2.1406         calculate D2E/DX2 analytically  !
 ! D34   D(2,8,15,16)           -6.2161         calculate D2E/DX2 analytically  !
 ! D35   D(9,8,15,16)          180.0            calculate D2E/DX2 analytically  !
 ! D36   D(8,15,16,17)          71.3844         calculate D2E/DX2 analytically  !
 ! D37   D(8,15,16,18)        -170.7659         calculate D2E/DX2 analytically  !
 ! D38   D(8,15,16,19)         -51.6949         calculate D2E/DX2 analytically  !
 --------------------------------------------------------------------------------
 Trust Radius=3.00D-01 FncErr=1.00D-07 GrdErr=1.00D-06 EigMax=2.50D+02 EigMin=1.00D-04
 Number of steps in this run=    103 maximum allowed number of steps=    132.
 Search for a saddle point of order  1.
 GradGradGradGradGradGradGradGradGradGradGradGradGradGradGradGradGradGrad

                          Input orientation:                          
 ---------------------------------------------------------------------
 Center     Atomic      Atomic             Coordinates (Angstroms)
 Number     Number       Type             X           Y           Z
 ---------------------------------------------------------------------
      1          6           0       -1.464415   -0.568069   -1.326353
      2          6           0        0.093334   -1.727641   -0.633314
      3          6           0       -0.661802   -0.697890    1.961129
      4          6           0       -2.105435    0.149406   -0.326537
      5          1           0       -0.793518   -0.006127   -1.970248
      6          1           0       -1.973191   -1.409247   -1.789571
      7          1           0       -1.719790    1.087903    0.057518
      8          6           0        0.872608   -0.818663    0.063303
      9          6           0        0.503101   -0.353587    1.370921
     10          1           0        0.480154   -2.078938   -1.584489
     11          1           0       -0.948452   -0.255096    2.909377
     12          1           0        1.114683    0.412547    1.834752
     13          1           0       -0.510818   -2.432057   -0.076729
     14          1           0       -1.309017   -1.476100    1.578107
     15          8           0        1.916719   -0.307165   -0.610363
     16          6           0        2.222716   -0.817542   -1.900484
     17          1           0        1.472629   -0.502915   -2.634818
     18          1           0        3.184202   -0.378798   -2.166337
     19          1           0        2.298652   -1.908107   -1.864591
     20          6           0       -3.309917   -0.409806    0.226548
     21          8           0       -3.846423   -1.425177   -0.215805
     22          1           0       -3.765770    0.128695    1.081091
 ---------------------------------------------------------------------
                    Distance matrix (angstroms):
                    1          2          3          4          5
     1  C    0.000000
     2  C    2.061915   0.000000
     3  C    3.386529   2.891669   0.000000
     4  C    1.387555   2.907233   2.834679   0.000000
     5  H    1.086500   2.353191   3.993947   2.108815   0.000000
     6  H    1.086740   2.389316   4.036523   2.141811   1.842015
     7  H    2.173144   3.419350   2.816404   1.084895   2.483287
     8  C    2.730498   1.385202   2.443511   3.155610   2.751640
     9  C    3.345506   2.464324   1.350514   3.152590   3.600744
    10  H    2.476027   1.085253   3.972753   3.637751   2.463249
    11  H    4.278502   3.975471   1.085085   3.460256   4.888428
    12  H    4.195943   3.422705   2.098795   3.887103   4.277212
    13  H    2.438311   1.082122   2.680111   3.044529   3.090383
    14  H    3.047057   2.630636   1.082222   2.627588   3.875227
    15  O    3.465946   2.311496   3.662514   4.057923   3.047178
    16  C    3.739893   2.639748   4.821496   4.705868   3.124249
    17  H    3.215984   2.721843   5.071148   4.307694   2.413270
    18  H    4.727688   3.704457   5.650623   5.625311   3.999948
    19  H    4.030642   2.532201   4.986487   5.098525   3.631832
    20  C    2.417111   3.749422   3.178722   1.438540   3.364689
    21  O    2.764401   3.973347   3.925532   2.350024   3.796314
    22  H    3.402573   4.612792   3.330514   2.176823   4.261822
                    6          7          8          9         10
     6  H    0.000000
     7  H    3.116361   0.000000
     8  C    3.446811   3.218004   0.000000
     9  C    4.151524   2.957053   1.436209   0.000000
    10  H    2.551362   4.191040   2.111287   3.422252   0.000000
    11  H    4.945934   3.245260   3.425493   2.117440   5.055902
    12  H    5.098001   3.413049   2.170832   1.084497   4.278006
    13  H    2.473561   3.724211   2.129910   2.728325   1.838494
    14  H    3.433198   3.009159   2.736118   2.141666   3.683281
    15  O    4.211474   3.951769   1.343735   2.434329   2.480286
    16  C    4.238874   4.796649   2.383119   3.724839   2.174281
    17  H    3.661906   4.468882   2.782010   4.124104   2.138234
    18  H    5.272805   5.580849   3.241642   4.438596   3.246675
    19  H    4.301527   5.368282   2.633869   4.013611   1.847857
    20  C    2.617337   2.190938   4.205631   3.981439   4.520010
    21  O    2.446628   3.303459   4.766027   4.752301   4.584754
    22  H    3.717432   2.480689   4.842306   4.305793   5.477849
                   11         12         13         14         15
    11  H    0.000000
    12  H    2.420143   0.000000
    13  H    3.721224   3.793123   0.000000
    14  H    1.842047   3.083371   2.071101   0.000000
    15  O    4.538776   2.672047   3.269995   4.069543   0.000000
    16  C    5.788559   4.085688   3.661277   5.000744   1.420750
    17  H    6.054845   4.576380   3.768218   5.141340   2.081815
    18  H    6.546526   4.573604   4.715454   5.950962   2.008158
    19  H    6.005573   4.524639   3.371068   5.005405   2.069294
    20  C    3.577432   4.779087   3.466472   2.639563   5.294212
    21  O    4.419739   5.674028   3.487035   3.107916   5.883828
    22  H    3.380415   4.946453   4.300315   2.976244   5.944886
                   16         17         18         19         20
    16  C    0.000000
    17  H    1.095841   0.000000
    18  H    1.089784   1.778865   0.000000
    19  H    1.093794   1.802811   1.792773   0.000000
    20  C    5.941426   5.573942   6.921014   6.170398   0.000000
    21  O    6.327860   5.915615   7.370832   6.380726   1.230647
    22  H    6.756265   6.453505   7.688006   7.042927   1.108164
                   21         22
    21  O    0.000000
    22  H    2.025577   0.000000
 Stoichiometry    C8H12O2
 Framework group  C1[X(C8H12O2)]
 Deg. of freedom    60
 Full point group                 C1      NOp   1
 Largest Abelian subgroup         C1      NOp   1
 Largest concise Abelian subgroup C1      NOp   1
                         Standard orientation:                         
 ---------------------------------------------------------------------
 Center     Atomic      Atomic             Coordinates (Angstroms)
 Number     Number       Type             X           Y           Z
 ---------------------------------------------------------------------
      1          6           0       -0.663252   -1.262786   -0.356991
      2          6           0        0.707605   -0.458420    0.956491
      3          6           0       -0.575266    2.053998    0.321078
      4          6           0       -1.498361   -0.315359   -0.931695
      5          1           0        0.131098   -1.652846   -0.987344
      6          1           0       -1.065980   -1.952149    0.380297
      7          1           0       -1.198806    0.287825   -1.782243
      8          6           0        1.325579    0.523388    0.199560
      9          6           0        0.689612    1.783212   -0.067058
     10          1           0        1.285521   -1.352365    1.167793
     11          1           0       -1.054277    2.980841    0.022885
     12          1           0        1.192369    2.482378   -0.726251
     13          1           0       -0.003630   -0.161821    1.716203
     14          1           0       -1.130005    1.423392    1.003577
     15          8           0        2.490772    0.174122   -0.371372
     16          6           0        3.060775   -1.089409   -0.059734
     17          1           0        2.484457   -1.902725   -0.514974
     18          1           0        4.058584   -1.074363   -0.497659
     19          1           0        3.122805   -1.216160    1.024919
     20          6           0       -2.794966   -0.123534   -0.338890
     21          8           0       -3.229945   -0.826846    0.572503
     22          1           0       -3.419107    0.693251   -0.752820
 ---------------------------------------------------------------------
 Rotational constants (GHZ):           2.3129147           0.7893379           0.6588873
 Standard basis: 6-31G(d) (6D, 7F)
 There are   174 symmetry adapted cartesian basis functions of A   symmetry.
 There are   174 symmetry adapted basis functions of A   symmetry.
   174 basis functions,   328 primitive gaussians,   174 cartesian basis functions
    38 alpha electrons       38 beta electrons
       nuclear repulsion energy       522.8325263252 Hartrees.
 NAtoms=   22 NActive=   22 NUniq=   22 SFac= 1.00D+00 NAtFMM=   60 NAOKFM=F Big=F
 Integral buffers will be    131072 words long.
 Raffenetti 2 integral format.
 Two-electron integral symmetry is turned on.
 One-electron integrals computed using PRISM.
 NBasis=   174 RedAO= T EigKep=  1.93D-03  NBF=   174
 NBsUse=   174 1.00D-06 EigRej= -1.00D+00 NBFU=   174
 ExpMin= 1.61D-01 ExpMax= 5.48D+03 ExpMxC= 8.25D+02 IAcc=3 IRadAn=         5 AccDes= 0.00D+00
 Harris functional with IExCor= 1009 and IRadAn=       5 diagonalized for initial guess.
 HarFok:  IExCor= 1009 AccDes= 0.00D+00 IRadAn=         5 IDoV= 1 UseB2=F ITyADJ=14
 ICtDFT=  3500011 ScaDFX=  1.000000  1.000000  1.000000  1.000000
 FoFCou: FMM=F IPFlag=           0 FMFlag=      100000 FMFlg1=           0
         NFxFlg=           0 DoJE=T BraDBF=F KetDBF=T FulRan=T
         wScrn=  0.000000 ICntrl=       500 IOpCl=  0 I1Cent=   200000004 NGrid=           0
         NMat0=    1 NMatS0=      1 NMatT0=    0 NMatD0=    1 NMtDS0=    0 NMtDT0=    0
 Petite list used in FoFCou.
 Requested convergence on RMS density matrix=1.00D-08 within 128 cycles.
 Requested convergence on MAX density matrix=1.00D-06.
 Requested convergence on             energy=1.00D-06.
 No special actions if energy rises.
 Integral accuracy reduced to 1.0D-05 until final iterations.
 Initial convergence to 1.0D-05 achieved.  Increase integral accuracy.
 SCF Done:  E(RM062X) =  -462.167998188     A.U. after   16 cycles
            NFock= 16  Conv=0.99D-08     -V/T= 2.0084
 DoSCS=F DFT=T ScalE2(SS,OS)=  1.000000  1.000000
 Range of M.O.s used for correlation:     1   174
 NBasis=   174 NAE=    38 NBE=    38 NFC=     0 NFV=     0
 NROrb=    174 NOA=    38 NOB=    38 NVA=   136 NVB=   136
 Symmetrizing basis deriv contribution to polar:
 IMax=3 JMax=2 DiffMx= 0.00D+00
 G2DrvN: will do    23 centers at a time, making    1 passes.
 Calling FoFCou, ICntrl=  3107 FMM=F I1Cent=   0 AccDes= 0.00D+00.
 End of G2Drv F.D. properties file   721 does not exist.
 End of G2Drv F.D. properties file   722 does not exist.
 End of G2Drv F.D. properties file   788 does not exist.
          IDoAtm=1111111111111111111111
          Differentiating once with respect to nuclear coordinates.
 CalDSu exits because no D1Ps are significant.
          There are    69 degrees of freedom in the 1st order CPHF.  IDoFFX=6 NUNeed=     0.
     63 vectors produced by pass  0 Test12= 7.49D-15 1.45D-09 XBig12= 8.04D-02 1.12D-01.
 AX will form    63 AO Fock derivatives at one time.
     63 vectors produced by pass  1 Test12= 7.49D-15 1.45D-09 XBig12= 7.19D-03 2.02D-02.
     63 vectors produced by pass  2 Test12= 7.49D-15 1.45D-09 XBig12= 1.08D-04 2.70D-03.
     63 vectors produced by pass  3 Test12= 7.49D-15 1.45D-09 XBig12= 6.48D-07 1.42D-04.
     63 vectors produced by pass  4 Test12= 7.49D-15 1.45D-09 XBig12= 2.96D-09 5.75D-06.
     63 vectors produced by pass  5 Test12= 7.49D-15 1.45D-09 XBig12= 8.38D-12 3.12D-07.
     30 vectors produced by pass  6 Test12= 7.49D-15 1.45D-09 XBig12= 2.29D-14 1.62D-08.
 InvSVY:  IOpt=1 It=  1 EMax= 4.44D-16
 Solved reduced A of dimension   408 with    69 vectors.
 End of Minotr F.D. properties file   721 does not exist.
 End of Minotr F.D. properties file   722 does not exist.
 End of Minotr F.D. properties file   788 does not exist.

 **********************************************************************

            Population analysis using the SCF Density.

 **********************************************************************

 Orbital symmetries:
       Occupied  (A) (A) (A) (A) (A) (A) (A) (A) (A) (A) (A) (A)
                 (A) (A) (A) (A) (A) (A) (A) (A) (A) (A) (A) (A)
                 (A) (A) (A) (A) (A) (A) (A) (A) (A) (A) (A) (A)
                 (A) (A)
       Virtual   (A) (A) (A) (A) (A) (A) (A) (A) (A) (A) (A) (A)
                 (A) (A) (A) (A) (A) (A) (A) (A) (A) (A) (A) (A)
                 (A) (A) (A) (A) (A) (A) (A) (A) (A) (A) (A) (A)
                 (A) (A) (A) (A) (A) (A) (A) (A) (A) (A) (A) (A)
                 (A) (A) (A) (A) (A) (A) (A) (A) (A) (A) (A) (A)
                 (A) (A) (A) (A) (A) (A) (A) (A) (A) (A) (A) (A)
                 (A) (A) (A) (A) (A) (A) (A) (A) (A) (A) (A) (A)
                 (A) (A) (A) (A) (A) (A) (A) (A) (A) (A) (A) (A)
                 (A) (A) (A) (A) (A) (A) (A) (A) (A) (A) (A) (A)
                 (A) (A) (A) (A) (A) (A) (A) (A) (A) (A) (A) (A)
                 (A) (A) (A) (A) (A) (A) (A) (A) (A) (A) (A) (A)
                 (A) (A) (A) (A)
 The electronic state is 1-A.
 Alpha  occ. eigenvalues --  -19.68990 -19.59661 -10.62972 -10.61747 -10.60158
 Alpha  occ. eigenvalues --  -10.56984 -10.56710 -10.56329 -10.55584 -10.52707
 Alpha  occ. eigenvalues --   -1.21222  -1.11846  -0.92773  -0.86541  -0.84044
 Alpha  occ. eigenvalues --   -0.82056  -0.72444  -0.71235  -0.63624  -0.61121
 Alpha  occ. eigenvalues --   -0.59375  -0.57787  -0.56433  -0.55431  -0.51966
 Alpha  occ. eigenvalues --   -0.49233  -0.48825  -0.47558  -0.46064  -0.44969
 Alpha  occ. eigenvalues --   -0.44445  -0.42847  -0.42550  -0.40323  -0.37249
 Alpha  occ. eigenvalues --   -0.32710  -0.29537  -0.23663
 Alpha virt. eigenvalues --   -0.02972   0.03214   0.10998   0.12306   0.13617
 Alpha virt. eigenvalues --    0.15660   0.16289   0.17303   0.17804   0.18635
 Alpha virt. eigenvalues --    0.19004   0.21503   0.22554   0.23015   0.24154
 Alpha virt. eigenvalues --    0.26729   0.27605   0.32166   0.33640   0.34072
 Alpha virt. eigenvalues --    0.38455   0.39519   0.42099   0.44490   0.51080
 Alpha virt. eigenvalues --    0.55909   0.56821   0.58215   0.59405   0.60159
 Alpha virt. eigenvalues --    0.61552   0.62474   0.64250   0.65167   0.66447
 Alpha virt. eigenvalues --    0.67653   0.68855   0.70933   0.74707   0.77535
 Alpha virt. eigenvalues --    0.78719   0.79295   0.80783   0.84505   0.88098
 Alpha virt. eigenvalues --    0.89252   0.89880   0.91774   0.92043   0.92395
 Alpha virt. eigenvalues --    0.94042   0.94891   0.96187   0.98673   0.99794
 Alpha virt. eigenvalues --    1.00752   1.01766   1.02681   1.03406   1.06189
 Alpha virt. eigenvalues --    1.09031   1.11103   1.12428   1.14038   1.16964
 Alpha virt. eigenvalues --    1.21247   1.22327   1.24619   1.30267   1.31840
 Alpha virt. eigenvalues --    1.33052   1.38206   1.40832   1.42516   1.45325
 Alpha virt. eigenvalues --    1.49819   1.54466   1.54600   1.60603   1.63481
 Alpha virt. eigenvalues --    1.65179   1.70918   1.73415   1.76265   1.79912
 Alpha virt. eigenvalues --    1.81269   1.84742   1.90716   1.91368   1.92683
 Alpha virt. eigenvalues --    1.96256   1.97248   1.98655   2.04525   2.05475
 Alpha virt. eigenvalues --    2.08050   2.10665   2.13473   2.15285   2.15766
 Alpha virt. eigenvalues --    2.17540   2.20555   2.21296   2.26414   2.29201
 Alpha virt. eigenvalues --    2.30837   2.32064   2.36300   2.38182   2.41567
 Alpha virt. eigenvalues --    2.42826   2.53507   2.56890   2.59016   2.59915
 Alpha virt. eigenvalues --    2.62324   2.63242   2.67130   2.69316   2.75135
 Alpha virt. eigenvalues --    2.82250   2.90295   2.98325   3.10599   3.10903
 Alpha virt. eigenvalues --    3.15013   3.95623   4.09711   4.15145   4.22185
 Alpha virt. eigenvalues --    4.26429   4.30462   4.35284   4.41999   4.53833
 Alpha virt. eigenvalues --    4.61444
          Condensed to atoms (all electrons):
               1          2          3          4          5          6
     1  C    5.141520   0.063511  -0.005280   0.502381   0.376176   0.379750
     2  C    0.063511   5.415927  -0.018240  -0.033352  -0.029614  -0.013721
     3  C   -0.005280  -0.018240   5.095705   0.027342   0.000365   0.000150
     4  C    0.502381  -0.033352   0.027342   5.318369  -0.035792  -0.039787
     5  H    0.376176  -0.029614   0.000365  -0.035792   0.557888  -0.030154
     6  H    0.379750  -0.013721   0.000150  -0.039787  -0.030154   0.474950
     7  H   -0.043108  -0.000631   0.000778   0.362195  -0.003598   0.003893
     8  C   -0.017817   0.538119  -0.032068  -0.025250  -0.009585   0.001195
     9  C   -0.009335  -0.081363   0.593720  -0.004669  -0.000122   0.000168
    10  H   -0.008703   0.373457   0.000303   0.001446  -0.002650  -0.000978
    11  H    0.000169   0.000166   0.376946  -0.000242  -0.000004  -0.000002
    12  H   -0.000034   0.006668  -0.048320  -0.000073  -0.000006   0.000002
    13  H   -0.014272   0.371325   0.001699  -0.008282   0.001908  -0.002717
    14  H   -0.002875   0.007605   0.371432  -0.009126  -0.000016   0.000118
    15  O   -0.000535  -0.083827   0.002886   0.000121   0.003087   0.000021
    16  C   -0.001566  -0.020934  -0.000125   0.000108  -0.000549   0.000029
    17  H    0.000310   0.001731   0.000011  -0.000036   0.000483  -0.000136
    18  H    0.000002   0.001354   0.000002   0.000001   0.000002  -0.000000
    19  H    0.000345  -0.001731  -0.000010   0.000027   0.000338   0.000026
    20  C   -0.023516  -0.001992  -0.000766   0.366224   0.003995  -0.008089
    21  O   -0.002651  -0.000149  -0.001421  -0.102610   0.000540   0.015666
    22  H    0.009847  -0.000066  -0.000036  -0.121075  -0.000096   0.000768
               7          8          9         10         11         12
     1  C   -0.043108  -0.017817  -0.009335  -0.008703   0.000169  -0.000034
     2  C   -0.000631   0.538119  -0.081363   0.373457   0.000166   0.006668
     3  C    0.000778  -0.032068   0.593720   0.000303   0.376946  -0.048320
     4  C    0.362195  -0.025250  -0.004669   0.001446  -0.000242  -0.000073
     5  H   -0.003598  -0.009585  -0.000122  -0.002650  -0.000004  -0.000006
     6  H    0.003893   0.001195   0.000168  -0.000978  -0.000002   0.000002
     7  H    0.545720  -0.000151   0.000952  -0.000018  -0.000058   0.000182
     8  C   -0.000151   4.458561   0.507327  -0.034862   0.003502  -0.034215
     9  C    0.000952   0.507327   4.870696   0.004558  -0.026932   0.365329
    10  H   -0.000018  -0.034862   0.004558   0.523252  -0.000004  -0.000121
    11  H   -0.000058   0.003502  -0.026932  -0.000004   0.500541  -0.005909
    12  H    0.000182  -0.034215   0.365329  -0.000121  -0.005909   0.533576
    13  H   -0.000032  -0.020419  -0.006390  -0.028284   0.000058  -0.000066
    14  H   -0.000013  -0.012841  -0.030300  -0.000009  -0.031508   0.004250
    15  O    0.000020   0.289607  -0.044720  -0.012857  -0.000037  -0.000548
    16  C   -0.000002  -0.044481   0.003655   0.004030   0.000002  -0.000145
    17  H   -0.000002  -0.004193  -0.000165  -0.002503   0.000000   0.000015
    18  H   -0.000000   0.002871  -0.000051   0.000391  -0.000000  -0.000016
    19  H    0.000000  -0.000457  -0.000048   0.001577   0.000000   0.000025
    20  C   -0.024826  -0.000429   0.000480  -0.000002  -0.000032  -0.000001
    21  O    0.002989   0.000031   0.000015  -0.000006   0.000002  -0.000000
    22  H    0.001216   0.000002   0.000143   0.000000   0.000131   0.000001
              13         14         15         16         17         18
     1  C   -0.014272  -0.002875  -0.000535  -0.001566   0.000310   0.000002
     2  C    0.371325   0.007605  -0.083827  -0.020934   0.001731   0.001354
     3  C    0.001699   0.371432   0.002886  -0.000125   0.000011   0.000002
     4  C   -0.008282  -0.009126   0.000121   0.000108  -0.000036   0.000001
     5  H    0.001908  -0.000016   0.003087  -0.000549   0.000483   0.000002
     6  H   -0.002717   0.000118   0.000021   0.000029  -0.000136  -0.000000
     7  H   -0.000032  -0.000013   0.000020  -0.000002  -0.000002  -0.000000
     8  C   -0.020419  -0.012841   0.289607  -0.044481  -0.004193   0.002871
     9  C   -0.006390  -0.030300  -0.044720   0.003655  -0.000165  -0.000051
    10  H   -0.028284  -0.000009  -0.012857   0.004030  -0.002503   0.000391
    11  H    0.000058  -0.031508  -0.000037   0.000002   0.000000  -0.000000
    12  H   -0.000066   0.004250  -0.000548  -0.000145   0.000015  -0.000016
    13  H    0.492067   0.003987   0.003502   0.000198  -0.000016  -0.000010
    14  H    0.003987   0.497134   0.000005  -0.000005   0.000001   0.000000
    15  O    0.003502   0.000005   8.226836   0.232394  -0.036223  -0.032442
    16  C    0.000198  -0.000005   0.232394   4.946375   0.378083   0.388922
    17  H   -0.000016   0.000001  -0.036223   0.378083   0.561434  -0.030911
    18  H   -0.000010   0.000000  -0.032442   0.388922  -0.030911   0.495924
    19  H   -0.000036  -0.000004  -0.037478   0.367902  -0.043493  -0.024137
    20  C    0.000787   0.004594   0.000001  -0.000001   0.000000  -0.000000
    21  O    0.001166   0.002090  -0.000000  -0.000000  -0.000000  -0.000000
    22  H    0.000051  -0.000007  -0.000000  -0.000000  -0.000000  -0.000000
              19         20         21         22
     1  C    0.000345  -0.023516  -0.002651   0.009847
     2  C   -0.001731  -0.001992  -0.000149  -0.000066
     3  C   -0.000010  -0.000766  -0.001421  -0.000036
     4  C    0.000027   0.366224  -0.102610  -0.121075
     5  H    0.000338   0.003995   0.000540  -0.000096
     6  H    0.000026  -0.008089   0.015666   0.000768
     7  H    0.000000  -0.024826   0.002989   0.001216
     8  C   -0.000457  -0.000429   0.000031   0.000002
     9  C   -0.000048   0.000480   0.000015   0.000143
    10  H    0.001577  -0.000002  -0.000006   0.000000
    11  H    0.000000  -0.000032   0.000002   0.000131
    12  H    0.000025  -0.000001  -0.000000   0.000001
    13  H   -0.000036   0.000787   0.001166   0.000051
    14  H   -0.000004   0.004594   0.002090  -0.000007
    15  O   -0.037478   0.000001  -0.000000  -0.000000
    16  C    0.367902  -0.000001  -0.000000  -0.000000
    17  H   -0.043493   0.000000  -0.000000  -0.000000
    18  H   -0.024137  -0.000000  -0.000000  -0.000000
    19  H    0.560291   0.000000  -0.000000  -0.000000
    20  C    0.000000   4.555890   0.544356   0.370269
    21  O   -0.000000   0.544356   8.081626  -0.060094
    22  H   -0.000000   0.370269  -0.060094   0.692974
 Mulliken charges:
               1
     1  C   -0.344319
     2  C   -0.494242
     3  C   -0.365073
     4  C   -0.197921
     5  H    0.167403
     6  H    0.218848
     7  H    0.154494
     8  C    0.435553
     9  C   -0.142948
    10  H    0.181981
    11  H    0.183211
    12  H    0.179405
    13  H    0.203774
    14  H    0.195487
    15  O   -0.509814
    16  C   -0.253890
    17  H    0.175611
    18  H    0.198100
    19  H    0.176863
    20  C    0.213057
    21  O   -0.481550
    22  H    0.105971
 Sum of Mulliken charges =  -0.00000
 Mulliken charges with hydrogens summed into heavy atoms:
               1
     1  C    0.041932
     2  C   -0.108487
     3  C    0.013624
     4  C   -0.043427
     8  C    0.435553
     9  C    0.036457
    15  O   -0.509814
    16  C    0.296683
    20  C    0.319028
    21  O   -0.481550
 APT charges:
               1
     1  C   -0.937814
     2  C   -0.857283
     3  C   -0.789728
     4  C   -0.379174
     5  H    0.373062
     6  H    0.502422
     7  H    0.348989
     8  C    0.044279
     9  C   -0.547743
    10  H    0.501574
    11  H    0.670869
    12  H    0.575972
    13  H    0.397587
    14  H    0.253568
    15  O   -0.230876
    16  C   -1.246348
    17  H    0.266367
    18  H    0.808303
    19  H    0.368730
    20  C   -0.550313
    21  O   -0.058513
    22  H    0.486069
 Sum of APT charges =  -0.00000
 APT charges with hydrogens summed into heavy atoms:
               1
     1  C   -0.062330
     2  C    0.041879
     3  C    0.134709
     4  C   -0.030186
     8  C    0.044279
     9  C    0.028229
    15  O   -0.230876
    16  C    0.197053
    20  C   -0.064243
    21  O   -0.058513
 Electronic spatial extent (au):  <R**2>=           1761.2260
 Charge=              0.0000 electrons
 Dipole moment (field-independent basis, Debye):
    X=              4.4473    Y=              0.5801    Z=             -0.6458  Tot=              4.5313
 Quadrupole moment (field-independent basis, Debye-Ang):
   XX=            -68.5563   YY=            -55.9768   ZZ=            -61.1442
   XY=            -11.5141   XZ=              4.3115   YZ=             -0.8913
 Traceless Quadrupole moment (field-independent basis, Debye-Ang):
   XX=             -6.6639   YY=              5.9157   ZZ=              0.7482
   XY=            -11.5141   XZ=              4.3115   YZ=             -0.8913
 Octapole moment (field-independent basis, Debye-Ang**2):
  XXX=             65.8655  YYY=              2.9758  ZZZ=              1.4104  XYY=              7.3998
  XXY=              4.0064  XXZ=            -14.1868  XZZ=              2.2975  YZZ=             -1.1503
  YYZ=             -3.3907  XYZ=             -3.3450
 Hexadecapole moment (field-independent basis, Debye-Ang**3):
 XXXX=          -1597.0108 YYYY=           -516.9132 ZZZZ=           -195.2248 XXXY=           -106.1649
 XXXZ=             43.0876 YYYX=             -9.5168 YYYZ=            -17.7912 ZZZX=            -13.5716
 ZZZY=             -7.6640 XXYY=           -340.0717 XXZZ=           -295.3655 YYZZ=           -127.2165
 XXYZ=              9.4434 YYXZ=             -8.1229 ZZXY=             -5.3302
 N-N= 5.228325263252D+02 E-N=-2.121570160456D+03  KE= 4.583383429141D+02
  Exact polarizability:       0.000       0.000       0.000       0.000       0.000       0.000
 Approx polarizability:     180.020       7.693     129.007      -1.591     -11.144      91.810
 Calling FoFJK, ICntrl=    100127 FMM=F ISym2X=0 I1Cent= 0 IOpClX= 0 NMat=1 NMatS=1 NMatT=0.
 ***** Axes restored to original set *****
 -------------------------------------------------------------------
 Center     Atomic                   Forces (Hartrees/Bohr)
 Number     Number              X              Y              Z
 -------------------------------------------------------------------
      1        6           0.000356023    0.022198816   -0.001909655
      2        6          -0.000418591   -0.006062396    0.012062583
      3        6          -0.000290466   -0.000927066   -0.002126393
      4        6           0.005262710   -0.009067217   -0.005396097
      5        1           0.000205861   -0.002188949   -0.002032112
      6        1          -0.001967216    0.000982665    0.002900992
      7        1          -0.001149095   -0.000089726   -0.002156016
      8        6          -0.010774173   -0.033525839   -0.020751529
      9        6           0.007107312    0.008724085   -0.004796048
     10        1          -0.010757220   -0.003832668    0.005301096
     11        1           0.000502247    0.000092182   -0.000109041
     12        1           0.003487968    0.000674212   -0.001316441
     13        1          -0.003674690    0.000910599   -0.001736039
     14        1          -0.000178325   -0.000735737    0.000211801
     15        8           0.013253381    0.021885389    0.011461103
     16        6           0.005038955    0.007069161    0.006780164
     17        1           0.000091721   -0.002692098    0.000270456
     18        1           0.000107101   -0.000066753    0.000661354
     19        1           0.003730164    0.000888026   -0.003210408
     20        6          -0.012742573   -0.011677189   -0.004396133
     21        8           0.003673006    0.006787030    0.010094024
     22        1          -0.000864101    0.000653471    0.000192340
 -------------------------------------------------------------------
 Cartesian Forces:  Max     0.033525839 RMS     0.008056535
 FormGI is forming the generalized inverse of G from B-inverse, IUseBI=4.

 GradGradGradGradGradGradGradGradGradGradGradGradGradGradGradGradGradGrad
 Berny optimization.
 Internal  Forces:  Max     0.065631707 RMS     0.010408882
 Search for a saddle point.
 Step number   1 out of a maximum of  103
 All quantities printed in internal units (Hartrees-Bohrs-Radians)
 Swapping is turned off.
 Second derivative matrix not updated -- analytic derivatives used.
 ITU=  0
     Eigenvalues ---   -0.02522  -0.00117   0.00208   0.00585   0.01037
     Eigenvalues ---    0.01357   0.01580   0.02106   0.02469   0.02674
     Eigenvalues ---    0.03047   0.03541   0.03692   0.04013   0.04163
     Eigenvalues ---    0.05078   0.05491   0.06347   0.06932   0.08099
     Eigenvalues ---    0.08253   0.09014   0.09325   0.10421   0.10893
     Eigenvalues ---    0.11067   0.11504   0.13449   0.13711   0.13876
     Eigenvalues ---    0.14379   0.18325   0.19070   0.19205   0.19496
     Eigenvalues ---    0.22122   0.25059   0.27947   0.30107   0.32110
     Eigenvalues ---    0.34222   0.34717   0.35768   0.35946   0.36339
     Eigenvalues ---    0.36812   0.37252   0.37283   0.37339   0.37807
     Eigenvalues ---    0.38377   0.39206   0.39812   0.41976   0.45363
     Eigenvalues ---    0.51385   0.53677   0.61913   0.81568   1.05218
 Eigenvectors required to have negative eigenvalues:
                          R1        D20       D24       D13       D14
   1                    0.74078   0.22415  -0.20706   0.20433  -0.19550
                          A2        D21       D31       D25       R2
   1                   -0.16890   0.16237  -0.13623  -0.11757  -0.11696
 RFO step:  Lambda0=3.683932160D-03 Lambda=-2.36952758D-02.
 Linear search not attempted -- option 19 set.
 Maximum step size (   0.300) exceeded in Quadratic search.
    -- Step size scaled by   0.850
 Iteration  1 RMS(Cart)=  0.15850760 RMS(Int)=  0.01792462
 Iteration  2 RMS(Cart)=  0.03366772 RMS(Int)=  0.00123644
 Iteration  3 RMS(Cart)=  0.00150230 RMS(Int)=  0.00093555
 Iteration  4 RMS(Cart)=  0.00000246 RMS(Int)=  0.00093555
 Iteration  5 RMS(Cart)=  0.00000000 RMS(Int)=  0.00093555
 Variable       Old X    -DE/DX   Delta X   Delta X   Delta X     New X
                                 (Linear)    (Quad)   (Total)
    R1        3.89645   0.01064   0.00000  -0.14053  -0.14053   3.75593
    R2        2.62210  -0.00544   0.00000   0.01412   0.01412   2.63621
    R3        2.05319   0.00020   0.00000  -0.00121  -0.00121   2.05198
    R4        2.05364  -0.00108   0.00000  -0.00008  -0.00008   2.05356
    R5        2.61765   0.00684   0.00000   0.01018   0.01018   2.62784
    R6        2.05083  -0.00724   0.00000   0.00145   0.00145   2.05228
    R7        2.04491   0.00057   0.00000   0.00233   0.00233   2.04724
    R8        2.55210  -0.00051   0.00000   0.01143   0.01143   2.56354
    R9        2.05051  -0.00019   0.00000   0.00075   0.00075   2.05127
   R10        2.04510   0.00056   0.00000   0.00017   0.00017   2.04527
   R11        2.05015  -0.00125   0.00000  -0.00202  -0.00202   2.04813
   R12        2.71845   0.01223   0.00000   0.00980   0.00980   2.72825
   R13        2.71404  -0.00760   0.00000  -0.03102  -0.03102   2.68302
   R14        2.53929   0.01957   0.00000   0.00563   0.00563   2.54492
   R15        2.04940   0.00188   0.00000   0.00320   0.00320   2.05260
   R16        2.68483  -0.00403   0.00000  -0.01484  -0.01484   2.66999
   R17        2.07084  -0.00102   0.00000  -0.00165  -0.00165   2.06919
   R18        2.05939  -0.00009   0.00000  -0.00161  -0.00161   2.05778
   R19        2.06697  -0.00073   0.00000   0.00316   0.00316   2.07013
   R20        2.32559  -0.01083   0.00000  -0.00898  -0.00898   2.31660
   R21        2.09413   0.00082   0.00000   0.00354   0.00354   2.09767
    A1        1.97972   0.00279   0.00000   0.00029  -0.00102   1.97869
    A2        1.59435   0.00117   0.00000   0.11756   0.11618   1.71053
    A3        1.63250  -0.00268   0.00000  -0.02409  -0.02466   1.60784
    A4        2.03181   0.00287   0.00000   0.01496   0.01183   2.04364
    A5        2.08414  -0.00375   0.00000  -0.04871  -0.04962   2.03452
    A6        2.02285   0.00027   0.00000  -0.01553  -0.01625   2.00660
    A7        1.79775   0.00397   0.00000   0.06552   0.06371   1.86146
    A8        1.72818  -0.00311   0.00000   0.07144   0.06906   1.79723
    A9        1.68824  -0.00494   0.00000  -0.07164  -0.07040   1.61784
   A10        2.04055   0.00639   0.00000   0.01622   0.01105   2.05159
   A11        2.07440  -0.00155   0.00000  -0.02702  -0.02589   2.04850
   A12        2.02537  -0.00281   0.00000  -0.02649  -0.02519   2.00018
   A13        2.10104  -0.00076   0.00000  -0.00254  -0.00318   2.09786
   A14        2.14659   0.00052   0.00000   0.00405   0.00340   2.14999
   A15        2.03168   0.00020   0.00000  -0.00703  -0.00769   2.02400
   A16        2.13905  -0.00502   0.00000  -0.00956  -0.00985   2.12921
   A17        2.05200   0.00923   0.00000   0.02042   0.02013   2.07212
   A18        2.09186  -0.00420   0.00000  -0.00988  -0.01017   2.08169
   A19        2.12425  -0.01476   0.00000   0.00196   0.00198   2.12623
   A20        2.02061   0.06563   0.00000   0.11112   0.11107   2.13168
   A21        2.13306  -0.05114   0.00000  -0.11392  -0.11389   2.01917
   A22        2.13798  -0.00113   0.00000  -0.00629  -0.00636   2.13162
   A23        2.07101   0.00388   0.00000   0.02609   0.02598   2.09700
   A24        2.06357  -0.00269   0.00000  -0.02287  -0.02292   2.04066
   A25        2.07814   0.03357   0.00000  -0.01657  -0.01657   2.06156
   A26        1.93685   0.00159   0.00000   0.00223   0.00220   1.93906
   A27        1.84099  -0.00247   0.00000   0.00470   0.00466   1.84565
   A28        1.92125   0.00553   0.00000   0.01918   0.01916   1.94041
   A29        1.90164   0.00047   0.00000   0.01314   0.01309   1.91473
   A30        1.93454  -0.00197   0.00000  -0.02005  -0.02006   1.91448
   A31        1.92641  -0.00324   0.00000  -0.01816  -0.01818   1.90822
   A32        2.15024   0.00747   0.00000   0.01561   0.01528   2.16552
   A33        2.03981  -0.00350   0.00000  -0.01458  -0.01491   2.02491
   A34        2.09299  -0.00391   0.00000  -0.00028  -0.00061   2.09238
    D1       -0.93449  -0.00005   0.00000  -0.00651  -0.00544  -0.93993
    D2       -3.03703  -0.00707   0.00000  -0.07072  -0.07328  -3.11031
    D3        1.19016  -0.00229   0.00000  -0.04149  -0.04205   1.14811
    D4        1.15434   0.00453   0.00000   0.07060   0.07306   1.22741
    D5       -0.94820  -0.00249   0.00000   0.00639   0.00523  -0.94297
    D6       -3.00420   0.00230   0.00000   0.03562   0.03646  -2.96774
    D7       -3.10331   0.00475   0.00000   0.06310   0.06482  -3.03849
    D8        1.07733  -0.00227   0.00000  -0.00112  -0.00302   1.07431
    D9       -0.97866   0.00251   0.00000   0.02811   0.02821  -0.95045
   D10        1.42150   0.00565   0.00000   0.18924   0.18905   1.61054
   D11       -1.69490   0.00532   0.00000   0.14425   0.14407  -1.55084
   D12       -0.39570   0.00082   0.00000   0.03303   0.03320  -0.36250
   D13        2.77109   0.00048   0.00000  -0.01195  -0.01178   2.75931
   D14       -2.96364   0.00176   0.00000   0.12607   0.12607  -2.83757
   D15        0.20315   0.00142   0.00000   0.08108   0.08109   0.28424
   D16        1.34109  -0.00488   0.00000  -0.12326  -0.12377   1.21732
   D17       -1.69261   0.00078   0.00000  -0.10774  -0.10795  -1.80056
   D18       -3.06909  -0.00362   0.00000   0.00786   0.00783  -3.06125
   D19        0.18040   0.00203   0.00000   0.02338   0.02365   0.20405
   D20       -0.49744  -0.00083   0.00000  -0.06784  -0.06776  -0.56519
   D21        2.75205   0.00483   0.00000  -0.05232  -0.05193   2.70012
   D22       -3.04264  -0.00019   0.00000   0.03923   0.03943  -3.00321
   D23       -0.06000  -0.00002   0.00000   0.01450   0.01439  -0.04561
   D24        0.19684   0.00038   0.00000   0.10927   0.10938   0.30622
   D25       -3.10371   0.00054   0.00000   0.08454   0.08434  -3.01937
   D26       -0.10498   0.00456   0.00000   0.16184   0.16184   0.05687
   D27        3.05488   0.00078   0.00000   0.11391   0.11392  -3.11439
   D28        3.06110   0.00425   0.00000   0.11813   0.11813  -3.10396
   D29       -0.06223   0.00048   0.00000   0.07020   0.07020   0.00797
   D30       -0.08080  -0.00031   0.00000   0.08070   0.08050  -0.00029
   D31       -3.06408  -0.00104   0.00000   0.10109   0.10057  -2.96351
   D32        2.94593   0.00104   0.00000   0.07864   0.07916   3.02508
   D33       -0.03736   0.00031   0.00000   0.09903   0.09923   0.06187
   D34       -0.10849  -0.00748   0.00000   0.27163   0.27140   0.16291
   D35        3.14159  -0.00431   0.00000   0.27929   0.27952  -2.86207
   D36        1.24589  -0.00233   0.00000  -0.24592  -0.24595   0.99994
   D37       -2.98043  -0.00238   0.00000  -0.22643  -0.22642   3.07634
   D38       -0.90225  -0.00476   0.00000  -0.23529  -0.23527  -1.13752
         Item               Value     Threshold  Converged?
 Maximum Force            0.065632     0.000450     NO 
 RMS     Force            0.010409     0.000300     NO 
 Maximum Displacement     0.641221     0.001800     NO 
 RMS     Displacement     0.168353     0.001200     NO 
 Predicted change in Energy=-1.245914D-02
 GradGradGradGradGradGradGradGradGradGradGradGradGradGradGradGradGradGrad

                          Input orientation:                          
 ---------------------------------------------------------------------
 Center     Atomic      Atomic             Coordinates (Angstroms)
 Number     Number       Type             X           Y           Z
 ---------------------------------------------------------------------
      1          6           0       -1.465236   -0.574407   -1.349868
      2          6           0       -0.007385   -1.756365   -0.695648
      3          6           0       -0.732980   -0.633555    1.849392
      4          6           0       -2.091453    0.146613   -0.332972
      5          1           0       -0.887295   -0.008034   -2.073955
      6          1           0       -2.017586   -1.415329   -1.760558
      7          1           0       -1.767381    1.141730   -0.051195
      8          6           0        0.857157   -0.953053    0.039881
      9          6           0        0.484352   -0.405757    1.295786
     10          1           0        0.375206   -2.200499   -1.609871
     11          1           0       -1.034070   -0.099327    2.745059
     12          1           0        1.145970    0.342916    1.721887
     13          1           0       -0.695350   -2.384492   -0.142643
     14          1           0       -1.384947   -1.438665    1.536126
     15          8           0        2.038020   -0.532841   -0.452692
     16          6           0        2.306600   -0.757927   -1.821443
     17          1           0        1.537421   -0.302884   -2.454100
     18          1           0        3.268357   -0.285547   -2.015480
     19          1           0        2.378011   -1.829034   -2.039803
     20          6           0       -3.219978   -0.446542    0.344479
     21          8           0       -3.636543   -1.578117    0.123514
     22          1           0       -3.700641    0.176742    1.127209
 ---------------------------------------------------------------------
                    Distance matrix (angstroms):
                    1          2          3          4          5
     1  C    0.000000
     2  C    1.987551   0.000000
     3  C    3.282523   2.874789   0.000000
     4  C    1.395025   2.845382   2.686415   0.000000
     5  H    1.085862   2.393874   3.975895   2.122483   0.000000
     6  H    1.086695   2.300271   3.910642   2.117338   1.832008
     7  H    2.173239   3.451356   2.798903   1.083826   2.487583
     8  C    2.732816   1.390591   2.430009   3.169004   2.899048
     9  C    3.290717   2.455962   1.356564   3.097214   3.659884
    10  H    2.469616   1.086018   3.955993   3.636455   2.572194
    11  H    4.144880   3.954532   1.085484   3.263866   4.822113
    12  H    4.134677   3.403186   2.121368   3.839516   4.320388
    13  H    2.307926   1.083353   2.652432   2.896863   3.068283
    14  H    3.013694   2.641860   1.082312   2.550644   3.914978
    15  O    3.616552   2.395771   3.603910   4.186709   3.385466
    16  C    3.805629   2.760221   4.767551   4.730392   3.290451
    17  H    3.210763   2.755210   4.876894   4.227287   2.471982
    18  H    4.788881   3.825669   5.573961   5.634284   4.165319
    19  H    4.101298   2.739005   5.121842   5.176153   3.738907
    20  C    2.442597   3.621913   2.912884   1.443725   3.388587
    21  O    2.809425   3.724727   3.507354   2.360165   3.853881
    22  H    3.420113   4.549708   3.159927   2.173137   4.265737
                    6          7          8          9         10
     6  H    0.000000
     7  H    3.085948   0.000000
     8  C    3.423365   3.359258   0.000000
     9  C    4.076783   3.046206   1.419793   0.000000
    10  H    2.522826   4.265049   2.123695   3.416994   0.000000
    11  H    4.795805   3.145951   3.409337   2.121296   5.036506
    12  H    5.022642   3.502790   2.142917   1.086191   4.261883
    13  H    2.303309   3.686713   2.119578   2.715909   1.825568
    14  H    3.356918   3.053569   2.738905   2.149172   3.684538
    15  O    4.351693   4.176896   1.346716   2.342479   2.623947
    16  C    4.374297   4.831128   2.367169   3.627910   2.419930
    17  H    3.789011   4.333887   2.665599   3.896303   2.380002
    18  H    5.411339   5.590545   3.237894   4.327773   3.493120
    19  H    4.423845   5.473963   2.721291   4.091187   2.081840
    20  C    2.610647   2.188425   4.119753   3.824749   4.452100
    21  O    2.489428   3.304824   4.537736   4.441894   4.414308
    22  H    3.702237   2.461165   4.819983   4.228697   5.454851
                   11         12         13         14         15
    11  H    0.000000
    12  H    2.448476   0.000000
    13  H    3.698044   3.782285   0.000000
    14  H    1.838059   3.100658   2.046557   0.000000
    15  O    4.455478   2.508285   3.316029   4.061110   0.000000
    16  C    5.696207   3.887686   3.804706   5.036288   1.412897
    17  H    5.803900   4.243719   3.828993   5.074656   2.075840
    18  H    6.419368   4.343663   4.860459   5.966308   2.004293
    19  H    6.126099   4.515041   3.654216   5.205719   2.077169
    20  C    3.265201   4.645642   3.219733   2.402430   5.318784
    21  O    3.978968   5.396072   3.061323   2.661692   5.798731
    22  H    3.131174   4.885784   4.147796   2.852927   5.994315
                   16         17         18         19         20
    16  C    0.000000
    17  H    1.094969   0.000000
    18  H    1.088930   1.785729   0.000000
    19  H    1.095468   1.790912   1.782038   0.000000
    20  C    5.944009   5.521370   6.906071   6.239677   0.000000
    21  O    6.306864   5.919478   7.343275   6.396700   1.225894
    22  H    6.756856   6.363419   7.658795   7.141646   1.110038
                   21         22
    21  O    0.000000
    22  H    2.022633   0.000000
 Stoichiometry    C8H12O2
 Framework group  C1[X(C8H12O2)]
 Deg. of freedom    60
 Full point group                 C1      NOp   1
 Largest Abelian subgroup         C1      NOp   1
 Largest concise Abelian subgroup C1      NOp   1
                         Standard orientation:                         
 ---------------------------------------------------------------------
 Center     Atomic      Atomic             Coordinates (Angstroms)
 Number     Number       Type             X           Y           Z
 ---------------------------------------------------------------------
      1          6           0       -0.634607   -1.339787   -0.422210
      2          6           0        0.615201   -0.570519    0.918150
      3          6           0       -0.702416    1.882123    0.202019
      4          6           0       -1.486074   -0.393091   -0.992179
      5          1           0        0.104536   -1.796026   -1.073831
      6          1           0       -1.074247   -2.009240    0.312266
      7          1           0       -1.235837    0.125281   -1.910521
      8          6           0        1.278519    0.477401    0.289170
      9          6           0        0.613980    1.683020   -0.058225
     10          1           0        1.206616   -1.429480    1.221218
     11          1           0       -1.209867    2.758356   -0.189113
     12          1           0        1.155453    2.377369   -0.694227
     13          1           0       -0.189342   -0.314696    1.597060
     14          1           0       -1.262211    1.288168    0.912825
     15          8           0        2.545553    0.361122   -0.152132
     16          6           0        3.137856   -0.921615   -0.145693
     17          1           0        2.547592   -1.631306   -0.734660
     18          1           0        4.120010   -0.795912   -0.598840
     19          1           0        3.255476   -1.298079    0.876310
     20          6           0       -2.748055   -0.117486   -0.347363
     21          8           0       -3.103398   -0.623375    0.711232
     22          1           0       -3.401837    0.623318   -0.853292
 ---------------------------------------------------------------------
 Rotational constants (GHZ):           2.4888047           0.7946244           0.6810208
 Standard basis: 6-31G(d) (6D, 7F)
 There are   174 symmetry adapted cartesian basis functions of A   symmetry.
 There are   174 symmetry adapted basis functions of A   symmetry.
   174 basis functions,   328 primitive gaussians,   174 cartesian basis functions
    38 alpha electrons       38 beta electrons
       nuclear repulsion energy       526.8929539066 Hartrees.
 NAtoms=   22 NActive=   22 NUniq=   22 SFac= 1.00D+00 NAtFMM=   60 NAOKFM=F Big=F
 Integral buffers will be    131072 words long.
 Raffenetti 2 integral format.
 Two-electron integral symmetry is turned on.
 One-electron integrals computed using PRISM.
 NBasis=   174 RedAO= T EigKep=  1.86D-03  NBF=   174
 NBsUse=   174 1.00D-06 EigRej= -1.00D+00 NBFU=   174
 Initial guess from the checkpoint file:  "DATS_14_exo_ii.chk"
 B after Tr=    -0.000000    0.000000   -0.000000
         Rot=    0.999943   -0.000486    0.002474   -0.010382 Ang=  -1.22 deg.
 ExpMin= 1.61D-01 ExpMax= 5.48D+03 ExpMxC= 8.25D+02 IAcc=3 IRadAn=         5 AccDes= 0.00D+00
 Harris functional with IExCor= 1009 and IRadAn=       5 diagonalized for initial guess.
 HarFok:  IExCor= 1009 AccDes= 0.00D+00 IRadAn=         5 IDoV= 1 UseB2=F ITyADJ=14
 ICtDFT=  3500011 ScaDFX=  1.000000  1.000000  1.000000  1.000000
 FoFCou: FMM=F IPFlag=           0 FMFlag=      100000 FMFlg1=           0
         NFxFlg=           0 DoJE=T BraDBF=F KetDBF=T FulRan=T
         wScrn=  0.000000 ICntrl=       500 IOpCl=  0 I1Cent=   200000004 NGrid=           0
         NMat0=    1 NMatS0=      1 NMatT0=    0 NMatD0=    1 NMtDS0=    0 NMtDT0=    0
 Petite list used in FoFCou.
 Requested convergence on RMS density matrix=1.00D-08 within 128 cycles.
 Requested convergence on MAX density matrix=1.00D-06.
 Requested convergence on             energy=1.00D-06.
 No special actions if energy rises.
 Integral accuracy reduced to 1.0D-05 until final iterations.
 Initial convergence to 1.0D-05 achieved.  Increase integral accuracy.
 SCF Done:  E(RM062X) =  -462.179500265     A.U. after   16 cycles
            NFock= 16  Conv=0.92D-08     -V/T= 2.0084
 Calling FoFJK, ICntrl=      2127 FMM=F ISym2X=0 I1Cent= 0 IOpClX= 0 NMat=1 NMatS=1 NMatT=0.
 ***** Axes restored to original set *****
 -------------------------------------------------------------------
 Center     Atomic                   Forces (Hartrees/Bohr)
 Number     Number              X              Y              Z
 -------------------------------------------------------------------
      1        6           0.000687603    0.008068157   -0.002602048
      2        6          -0.000589049    0.000114021    0.000728683
      3        6          -0.001950091    0.000201379   -0.001129925
      4        6           0.001228267   -0.004092139    0.002120795
      5        1           0.001127476   -0.001325743   -0.000682457
      6        1          -0.001549125    0.000908769    0.000183237
      7        1          -0.001429903    0.000723890   -0.001433806
      8        6          -0.001034106   -0.012528586   -0.000365085
      9        6           0.001506241    0.002853887   -0.001125242
     10        1          -0.003991830   -0.000671673    0.000819048
     11        1           0.000031652   -0.000010649    0.000103204
     12        1           0.001027770   -0.000216802   -0.000520784
     13        1          -0.001039818   -0.000237362    0.000040509
     14        1           0.001009745   -0.001400557    0.000977906
     15        8           0.002988617    0.009991295    0.001199768
     16        6           0.003182021   -0.001368385    0.001722797
     17        1          -0.000137457   -0.000649530   -0.000283780
     18        1           0.000215057    0.000234944   -0.000453682
     19        1           0.000742014    0.000143931   -0.000843281
     20        6          -0.002896423   -0.001922539    0.000055301
     21        8           0.001789562    0.000526423    0.002325122
     22        1          -0.000918225    0.000657270   -0.000836279
 -------------------------------------------------------------------
 Cartesian Forces:  Max     0.012528586 RMS     0.002628717

 GradGradGradGradGradGradGradGradGradGradGradGradGradGradGradGradGradGrad
 Berny optimization.
 FormGI is forming the generalized inverse of G from B-inverse, IUseBI=4.
 Internal  Forces:  Max     0.014490633 RMS     0.002641468
 Search for a saddle point.
 Step number   2 out of a maximum of  103
 All quantities printed in internal units (Hartrees-Bohrs-Radians)
 Swapping is turned off.
 Update second derivatives using D2CorX and points    1    2
 ITU=  0  0
     Eigenvalues ---   -0.02688   0.00179   0.00260   0.00772   0.01038
     Eigenvalues ---    0.01360   0.01622   0.02110   0.02473   0.02689
     Eigenvalues ---    0.03040   0.03557   0.03706   0.04011   0.04151
     Eigenvalues ---    0.05070   0.05487   0.06346   0.06909   0.08092
     Eigenvalues ---    0.08256   0.09014   0.09324   0.10413   0.10878
     Eigenvalues ---    0.11063   0.11503   0.13449   0.13682   0.13875
     Eigenvalues ---    0.14381   0.18328   0.19070   0.19208   0.19496
     Eigenvalues ---    0.22180   0.25079   0.27928   0.30084   0.32110
     Eigenvalues ---    0.34222   0.34714   0.35773   0.35949   0.36339
     Eigenvalues ---    0.36812   0.37252   0.37283   0.37339   0.37809
     Eigenvalues ---    0.38377   0.39218   0.39811   0.42023   0.45273
     Eigenvalues ---    0.51384   0.53677   0.61919   0.81569   1.05265
 Eigenvectors required to have negative eigenvalues:
                          R1        D20       D24       D13       D14
   1                    0.73236   0.22594  -0.21396   0.20127  -0.19872
                          A2        D21       D31       D25       R2
   1                   -0.16408   0.15851  -0.13936  -0.12444  -0.11750
 RFO step:  Lambda0=4.819065893D-05 Lambda=-6.06388060D-03.
 Linear search not attempted -- option 19 set.
 Iteration  1 RMS(Cart)=  0.14806451 RMS(Int)=  0.00932641
 Iteration  2 RMS(Cart)=  0.01395086 RMS(Int)=  0.00031283
 Iteration  3 RMS(Cart)=  0.00016439 RMS(Int)=  0.00029998
 Iteration  4 RMS(Cart)=  0.00000003 RMS(Int)=  0.00029998
 Variable       Old X    -DE/DX   Delta X   Delta X   Delta X     New X
                                 (Linear)    (Quad)   (Total)
    R1        3.75593   0.00383   0.00000   0.04140   0.04140   3.79732
    R2        2.63621   0.00050   0.00000  -0.00519  -0.00519   2.63103
    R3        2.05198   0.00036   0.00000   0.00142   0.00142   2.05340
    R4        2.05356   0.00002   0.00000   0.00015   0.00015   2.05371
    R5        2.62784   0.00275   0.00000  -0.00330  -0.00330   2.62454
    R6        2.05228  -0.00182   0.00000  -0.00043  -0.00043   2.05185
    R7        2.04724   0.00082   0.00000   0.00305   0.00305   2.05029
    R8        2.56354   0.00100   0.00000   0.00232   0.00232   2.56585
    R9        2.05127   0.00007   0.00000   0.00052   0.00052   2.05179
   R10        2.04527   0.00015   0.00000   0.00153   0.00153   2.04680
   R11        2.04813  -0.00014   0.00000  -0.00024  -0.00024   2.04789
   R12        2.72825   0.00261   0.00000   0.00463   0.00463   2.73288
   R13        2.68302  -0.00137   0.00000  -0.00334  -0.00334   2.67968
   R14        2.54492   0.00824   0.00000   0.01185   0.01185   2.55678
   R15        2.05260   0.00027   0.00000   0.00074   0.00074   2.05334
   R16        2.66999   0.00089   0.00000  -0.00015  -0.00015   2.66984
   R17        2.06919  -0.00001   0.00000   0.00269   0.00269   2.07188
   R18        2.05778   0.00037   0.00000   0.00119   0.00119   2.05897
   R19        2.07013   0.00008   0.00000   0.00217   0.00217   2.07230
   R20        2.31660  -0.00151   0.00000  -0.00113  -0.00113   2.31547
   R21        2.09767   0.00018   0.00000  -0.00030  -0.00030   2.09737
    A1        1.97869   0.00213   0.00000  -0.00499  -0.00559   1.97311
    A2        1.71053  -0.00077   0.00000   0.02868   0.02830   1.73883
    A3        1.60784  -0.00073   0.00000  -0.05681  -0.05752   1.55032
    A4        2.04364   0.00156   0.00000   0.02961   0.02935   2.07299
    A5        2.03452  -0.00215   0.00000  -0.01976  -0.02068   2.01384
    A6        2.00660   0.00003   0.00000   0.00955   0.01001   2.01661
    A7        1.86146   0.00023   0.00000  -0.01566  -0.01547   1.84599
    A8        1.79723  -0.00160   0.00000  -0.01180  -0.01161   1.78562
    A9        1.61784  -0.00058   0.00000  -0.03083  -0.03073   1.58711
   A10        2.05159   0.00232   0.00000   0.02459   0.02419   2.07579
   A11        2.04850  -0.00032   0.00000   0.01510   0.01438   2.06289
   A12        2.00018  -0.00098   0.00000  -0.00499  -0.00576   1.99442
   A13        2.09786   0.00017   0.00000   0.00014  -0.00028   2.09758
   A14        2.14999  -0.00064   0.00000  -0.00610  -0.00652   2.14347
   A15        2.02400   0.00023   0.00000  -0.00164  -0.00207   2.02193
   A16        2.12921  -0.00075   0.00000  -0.00031  -0.00075   2.12845
   A17        2.07212   0.00153   0.00000  -0.00235  -0.00280   2.06932
   A18        2.08169  -0.00080   0.00000   0.00172   0.00127   2.08296
   A19        2.12623  -0.00505   0.00000   0.00272   0.00208   2.12830
   A20        2.13168   0.01449   0.00000   0.01665   0.01592   2.14759
   A21        2.01917  -0.00963   0.00000  -0.02627  -0.02681   1.99235
   A22        2.13162  -0.00096   0.00000  -0.00061  -0.00061   2.13101
   A23        2.09700   0.00181   0.00000   0.01219   0.01219   2.10918
   A24        2.04066  -0.00078   0.00000  -0.01153  -0.01153   2.02913
   A25        2.06156   0.00818   0.00000  -0.01843  -0.01843   2.04314
   A26        1.93906   0.00028   0.00000   0.00015   0.00013   1.93919
   A27        1.84565   0.00022   0.00000   0.00953   0.00951   1.85516
   A28        1.94041   0.00127   0.00000  -0.00444  -0.00446   1.93595
   A29        1.91473  -0.00025   0.00000  -0.00498  -0.00500   1.90974
   A30        1.91448  -0.00072   0.00000  -0.01015  -0.01018   1.90430
   A31        1.90822  -0.00079   0.00000   0.01080   0.01079   1.91901
   A32        2.16552   0.00061   0.00000  -0.00270  -0.00278   2.16274
   A33        2.02491  -0.00035   0.00000  -0.00114  -0.00122   2.02369
   A34        2.09238  -0.00029   0.00000   0.00323   0.00315   2.09553
    D1       -0.93993  -0.00093   0.00000  -0.07009  -0.06998  -1.00991
    D2       -3.11031  -0.00288   0.00000  -0.08467  -0.08441   3.08846
    D3        1.14811  -0.00144   0.00000  -0.06892  -0.06869   1.07942
    D4        1.22741   0.00143   0.00000  -0.01963  -0.01956   1.20785
    D5       -0.94297  -0.00052   0.00000  -0.03421  -0.03398  -0.97696
    D6       -2.96774   0.00092   0.00000  -0.01846  -0.01826  -2.98600
    D7       -3.03849   0.00125   0.00000  -0.01668  -0.01715  -3.05564
    D8        1.07431  -0.00070   0.00000  -0.03127  -0.03157   1.04274
    D9       -0.95045   0.00074   0.00000  -0.01552  -0.01585  -0.96630
   D10        1.61054   0.00292   0.00000   0.20836   0.20829   1.81883
   D11       -1.55084   0.00180   0.00000   0.15247   0.15243  -1.39841
   D12       -0.36250   0.00129   0.00000   0.15393   0.15378  -0.20872
   D13        2.75931   0.00017   0.00000   0.09804   0.09792   2.85723
   D14       -2.83757   0.00210   0.00000   0.12205   0.12223  -2.71533
   D15        0.28424   0.00098   0.00000   0.06616   0.06637   0.35062
   D16        1.21732  -0.00146   0.00000  -0.05811  -0.05844   1.15888
   D17       -1.80056   0.00112   0.00000   0.01328   0.01357  -1.78699
   D18       -3.06125  -0.00199   0.00000  -0.07016  -0.07068  -3.13194
   D19        0.20405   0.00060   0.00000   0.00124   0.00132   0.20538
   D20       -0.56519  -0.00077   0.00000  -0.01809  -0.01815  -0.58335
   D21        2.70012   0.00182   0.00000   0.05331   0.05386   2.75397
   D22       -3.00321  -0.00028   0.00000  -0.00002   0.00002  -3.00320
   D23       -0.04561   0.00012   0.00000  -0.00086  -0.00082  -0.04643
   D24        0.30622   0.00147   0.00000   0.05590   0.05586   0.36208
   D25       -3.01937   0.00187   0.00000   0.05506   0.05502  -2.96434
   D26        0.05687   0.00298   0.00000   0.20177   0.20178   0.25865
   D27       -3.11439   0.00186   0.00000   0.17804   0.17805  -2.93633
   D28       -3.10396   0.00189   0.00000   0.14740   0.14739  -2.95658
   D29        0.00797   0.00077   0.00000   0.12367   0.12366   0.13163
   D30       -0.00029   0.00180   0.00000   0.07655   0.07608   0.07579
   D31       -2.96351   0.00116   0.00000   0.07503   0.07456  -2.88895
   D32        3.02508   0.00098   0.00000   0.01221   0.01268   3.03776
   D33        0.06187   0.00033   0.00000   0.01069   0.01116   0.07303
   D34        0.16291  -0.00509   0.00000  -0.22625  -0.22608  -0.06317
   D35       -2.86207  -0.00282   0.00000  -0.16066  -0.16083  -3.02290
   D36        0.99994  -0.00084   0.00000   0.09558   0.09559   1.09554
   D37        3.07634  -0.00086   0.00000   0.09538   0.09537  -3.11147
   D38       -1.13752  -0.00101   0.00000   0.11162   0.11161  -1.02591
         Item               Value     Threshold  Converged?
 Maximum Force            0.014491     0.000450     NO 
 RMS     Force            0.002641     0.000300     NO 
 Maximum Displacement     0.577539     0.001800     NO 
 RMS     Displacement     0.154441     0.001200     NO 
 Predicted change in Energy=-4.208560D-03
 GradGradGradGradGradGradGradGradGradGradGradGradGradGradGradGradGradGrad

                          Input orientation:                          
 ---------------------------------------------------------------------
 Center     Atomic      Atomic             Coordinates (Angstroms)
 Number     Number       Type             X           Y           Z
 ---------------------------------------------------------------------
      1          6           0       -1.495477   -0.423965   -1.348059
      2          6           0       -0.044781   -1.686950   -0.766449
      3          6           0       -0.751201   -0.618858    1.808512
      4          6           0       -2.146252    0.187732   -0.279994
      5          1           0       -0.930973    0.194804   -2.040292
      6          1           0       -2.019535   -1.265956   -1.792463
      7          1           0       -1.956259    1.219238   -0.007409
      8          6           0        0.834399   -0.927218   -0.005698
      9          6           0        0.458167   -0.370932    1.243216
     10          1           0        0.297707   -2.097107   -1.711657
     11          1           0       -1.058737   -0.078566    2.698669
     12          1           0        1.113921    0.396866    1.644626
     13          1           0       -0.768146   -2.306871   -0.247224
     14          1           0       -1.359570   -1.474296    1.541563
     15          8           0        2.018987   -0.475788   -0.478499
     16          6           0        2.384176   -0.874580   -1.783742
     17          1           0        1.672337   -0.495027   -2.526241
     18          1           0        3.367284   -0.443859   -1.971147
     19          1           0        2.433765   -1.967428   -1.859842
     20          6           0       -3.170472   -0.553687    0.421927
     21          8           0       -3.330923   -1.763978    0.318001
     22          1           0       -3.798167    0.032053    1.125306
 ---------------------------------------------------------------------
                    Distance matrix (angstroms):
                    1          2          3          4          5
     1  C    0.000000
     2  C    2.009458   0.000000
     3  C    3.248981   2.875809   0.000000
     4  C    1.392281   2.857840   2.637918   0.000000
     5  H    1.086612   2.439059   3.937977   2.139066   0.000000
     6  H    1.086775   2.264860   3.872264   2.101625   1.838534
     7  H    2.170202   3.560312   2.851024   1.083699   2.496656
     8  C    2.735603   1.388846   2.429109   3.194156   2.918055
     9  C    3.245650   2.454306   1.357792   3.068431   3.609874
    10  H    2.479338   1.085792   3.959421   3.639105   2.621166
    11  H    4.084857   3.952474   1.085759   3.182143   4.748559
    12  H    4.054490   3.390894   2.130078   3.791652   4.219129
    13  H    2.299170   1.084967   2.660024   2.850139   3.082204
    14  H    3.077593   2.664735   1.083119   2.588295   3.974830
    15  O    3.620812   2.410180   3.595112   4.222426   3.404579
    16  C    3.929960   2.755842   4.774963   4.890250   3.492795
    17  H    3.380563   2.732405   4.967791   4.482567   2.736647
    18  H    4.902559   3.826064   5.592707   5.801550   4.345997
    19  H    4.252428   2.723485   5.041773   5.302565   4.003657
    20  C    2.440346   3.530789   2.789219   1.446175   3.411469
    21  O    2.817845   3.461314   3.191847   2.360130   3.893344
    22  H    3.409966   4.541103   3.189742   2.174379   4.274143
                    6          7          8          9         10
     6  H    0.000000
     7  H    3.060491   0.000000
     8  C    3.384112   3.520660   0.000000
     9  C    4.019381   3.149945   1.418024   0.000000
    10  H    2.463119   4.356945   2.137048   3.425887   0.000000
    11  H    4.743764   3.132524   3.408486   2.122456   5.036410
    12  H    4.939343   3.582112   2.134221   1.086580   4.260369
    13  H    2.244380   3.728615   2.128363   2.733700   1.823351
    14  H    3.405097   3.163934   2.739856   2.147228   3.703768
    15  O    4.319783   4.347139   1.352989   2.326254   2.666862
    16  C    4.421077   5.136031   2.359242   3.622934   2.419322
    17  H    3.842223   4.738135   2.691108   3.962122   2.262700
    18  H    5.452118   5.912890   3.242242   4.335945   3.496122
    19  H    4.508712   5.732247   2.660425   4.010082   2.145115
    20  C    2.595286   2.191325   4.044921   3.724908   4.354606
    21  O    2.534131   3.300783   4.260851   4.141715   4.171024
    22  H    3.655370   2.466795   4.864158   4.276994   5.418290
                   11         12         13         14         15
    11  H    0.000000
    12  H    2.461196   0.000000
    13  H    3.705142   3.798877   0.000000
    14  H    1.837786   3.103228   2.059787   0.000000
    15  O    4.441235   2.467455   3.342823   4.061073   0.000000
    16  C    5.707828   3.870896   3.788071   5.043109   1.412819
    17  H    5.910320   4.301562   3.799033   5.167054   2.076965
    18  H    6.444400   4.342612   4.852269   5.978636   2.011697
    19  H    6.045279   4.428676   3.601110   5.118801   2.074882
    20  C    3.141452   4.555718   3.048375   2.319584   5.267573
    21  O    3.697435   5.117208   2.679932   2.338216   5.560160
    22  H    3.161041   4.952917   4.066378   2.896396   6.055524
                   16         17         18         19         20
    16  C    0.000000
    17  H    1.096394   0.000000
    18  H    1.089561   1.784263   0.000000
    19  H    1.096616   1.786568   1.790282   0.000000
    20  C    5.985154   5.669915   6.962839   6.213905   0.000000
    21  O    6.153918   5.893433   7.200617   6.165713   1.225295
    22  H    6.892453   6.598334   7.820371   7.193470   1.109880
                   21         22
    21  O    0.000000
    22  H    2.023805   0.000000
 Stoichiometry    C8H12O2
 Framework group  C1[X(C8H12O2)]
 Deg. of freedom    60
 Full point group                 C1      NOp   1
 Largest Abelian subgroup         C1      NOp   1
 Largest concise Abelian subgroup C1      NOp   1
                         Standard orientation:                         
 ---------------------------------------------------------------------
 Center     Atomic      Atomic             Coordinates (Angstroms)
 Number     Number       Type             X           Y           Z
 ---------------------------------------------------------------------
      1          6           0       -0.627706   -1.354602   -0.597621
      2          6           0        0.593905   -0.638375    0.828074
      3          6           0       -0.796156    1.794905    0.182194
      4          6           0       -1.546617   -0.412443   -1.051919
      5          1           0        0.112007   -1.741480   -1.293232
      6          1           0       -1.012654   -2.070855    0.123403
      7          1           0       -1.433108    0.084657   -2.008167
[...]
 ,-0.00259609,-0.00340583,0.01154028,0.01262350,0.00803842,-0.00052045,
 0.00000704,0.00014010,-0.00009449,0.00003397,-0.00011508,0.00015943,-0
 .00005220,0.00003489,-0.00004738,0.00003928,0.00005208,-0.01806475,-0.
 02110092,-0.00815724,-0.05532130,-0.07891514,-0.08395474,-0.00128227,-
 0.00057193,-0.00080152,-0.00227266,0.00243463,-0.00153951,0.05760404,0
 .08826531,0.08595772,-0.00410460,0.01178440,-0.00551143,-0.16842686,-0
 .11759542,0.11162379,0.00355080,0.00030451,0.00162818,-0.00164412,-0.0
 0017727,-0.00279177,-0.00113970,0.00093550,-0.00010612,0.00062928,0.00
 073128,-0.00028845,0.00028964,-0.00037606,0.00022040,-0.01920499,-0.01
 144397,0.00468006,-0.00409155,0.00242182,0.00258769,-0.00309278,-0.002
 85436,0.00179631,-0.00015830,0.00060266,-0.00036334,-0.00019888,0.0002
 6139,0.00017276,0.19019217,0.00796553,-0.01713814,0.00664378,-0.130376
 75,-0.12397733,0.06886091,-0.00412926,0.00036229,-0.00054151,-0.001905
 42,-0.00032818,0.00476928,0.00134219,-0.00074239,0.00022120,-0.0011888
 2,0.00098145,-0.00073451,-0.00052601,0.00033707,-0.00027751,-0.0026113
 9,-0.00172813,0.01579616,0.00341651,-0.00127391,-0.00296306,0.00994122
 ,0.00955132,-0.00673029,0.00051821,0.00007206,0.00042056,0.00020383,-0
 .00003621,0.00006553,0.11916552,0.13254628,-0.00327125,0.00857722,-0.0
 0269648,0.11396430,0.07348442,-0.12812965,0.00027881,-0.00294018,-0.00
 114855,0.00238329,-0.00107713,-0.00249111,-0.00080364,0.00019774,-0.00
 002875,0.00050169,0.00027404,-0.00049210,0.00037691,-0.00016530,0.0002
 1563,-0.01352922,-0.00882610,0.01290425,0.00024021,0.00138528,-0.00044
 176,0.01525285,0.01421356,-0.00998732,-0.00002981,0.00015328,0.0000699
 7,-0.00011281,0.00041164,0.00004625,-0.11282321,-0.07974370,0.13779848
 ,-0.00125005,0.00121980,0.00107745,0.00182040,-0.00116124,0.00075014,-
 0.13690920,-0.14119151,-0.02677002,-0.00454761,0.00158086,-0.00384296,
 0.00001955,0.00001315,0.00006815,0.00029062,-0.00024740,0.00009924,-0.
 00001874,-0.00005907,0.00015003,-0.00141713,0.00003352,-0.00631622,-0.
 01475564,-0.02104395,-0.00357763,0.00002250,0.00044837,-0.00026147,0.0
 0735763,0.00779367,0.00255412,-0.00083800,-0.00337667,0.00520808,0.001
 00087,0.00030013,0.00136922,0.15175177,0.00287549,-0.00318345,-0.00129
 963,-0.00160954,0.00161990,-0.00288728,-0.14966513,-0.24377553,-0.0641
 2977,0.00322353,-0.00223707,0.00650494,-0.00008819,0.00002806,-0.00010
 955,-0.00046699,0.00047278,-0.00025707,-0.00031336,0.00018334,-0.00029
 513,0.00110366,-0.00014581,0.00448875,0.00260056,0.00068600,-0.0056383
 2,0.00034479,0.00016694,0.00004837,-0.00790310,-0.00684558,-0.00198740
 ,-0.00159703,0.00421864,-0.00237373,-0.00003952,0.00009123,-0.00128191
 ,0.15090667,0.24990582,-0.00344206,0.00273801,0.00127915,0.00490848,-0
 .00014452,0.00034142,-0.02077884,-0.06427172,-0.06287812,-0.00446347,0
 .00234886,-0.00653068,0.00026918,-0.00016306,0.00022153,0.00031953,-0.
 00030720,0.00010530,0.00025000,-0.00019409,0.00021496,-0.00227261,-0.0
 0094023,-0.00670557,0.00172166,0.01311771,0.01374611,-0.00039673,0.000
 14792,0.00022244,-0.01330307,-0.01878130,-0.00134754,0.00460730,-0.003
 48977,0.00189002,0.00112729,-0.00211072,-0.00279928,0.03331255,0.06918
 275,0.06397510,0.00891699,-0.00906317,0.00258953,-0.04583459,-0.022096
 72,0.01010226,0.00958999,-0.00124860,-0.00040124,-0.01573962,0.0017948
 9,0.00573675,0.00025327,0.00136140,-0.00131042,-0.00062059,0.00089816,
 -0.00066805,0.00001732,0.00004882,0.00004411,-0.25767540,-0.09466980,0
 .06063000,-0.02639966,-0.00463388,0.03233148,0.00073032,0.00030494,0.0
 0093371,-0.00036733,0.00022494,0.00005946,-0.00064996,0.00141315,-0.00
 201736,0.00226578,-0.00386280,-0.00341825,-0.00097269,0.00111036,-0.00
 111412,0.41128692,0.00605593,-0.00637108,-0.00090804,-0.03081043,-0.00
 163812,0.00587503,-0.00077948,0.00004497,-0.00439501,-0.00681374,0.000
 73684,0.00552773,-0.00154413,0.00027445,-0.00095776,-0.00050361,0.0014
 2226,-0.00095054,-0.00036220,0.00023231,-0.00018195,-0.08254691,-0.096
 04970,-0.00648357,0.01300140,0.01039911,-0.00261970,0.00367347,-0.0015
 7677,0.00202922,0.00074341,0.00027058,-0.00039690,0.00101689,-0.000334
 59,0.00155165,-0.00483952,0.00196170,-0.00365027,0.00005825,0.00002371
 ,-0.00020034,0.09829023,0.18741399,-0.00108974,0.00300929,-0.00153778,
 -0.00638286,-0.00530823,0.01626592,-0.00811734,-0.00362005,-0.00361887
 ,0.01072605,-0.00109737,-0.00147710,0.00058745,-0.00047171,0.00085137,
 0.00020978,-0.00075161,0.00066869,-0.00026980,0.00020036,-0.00015921,0
 .09029337,0.01318658,-0.12302314,0.05429377,0.01401902,-0.03139637,0.0
 0071504,0.00236924,-0.00133384,0.00170675,0.00000519,-0.00065736,-0.00
 020053,0.00160185,0.00157173,-0.00066671,-0.00276652,-0.00170899,0.000
 86240,-0.00046885,0.00089138,-0.18842005,0.09402150,0.42744938,-0.0013
 1663,0.00065401,0.00024313,-0.00001940,0.00059070,0.00185287,-0.000782
 55,0.00072215,0.00143239,0.00230140,0.00005352,-0.00084196,-0.00009809
 ,0.00020952,-0.00010474,0.00012173,-0.00004570,0.00008967,-0.00000029,
 -0.00002140,0.00003491,-0.02644755,0.01069805,0.04060713,-0.00168805,-
 0.00394504,-0.00138594,-0.00289568,0.00007846,0.00187191,-0.00030816,0
 .00001426,-0.00000890,-0.00001414,0.00033399,0.00018157,0.00039413,0.0
 0082138,0.00088360,0.00020550,-0.00010772,0.00011019,-0.09135447,-0.00
 210653,0.02662263,0.62721020,0.00182290,-0.00132592,0.00013771,-0.0049
 8936,-0.00124445,0.00261953,-0.00026431,0.00107280,0.00016006,-0.00229
 398,0.00014662,0.00126755,0.00022465,-0.00003616,-0.00002326,-0.000179
 06,0.00002635,-0.00010098,-0.00003992,0.00003444,-0.00011139,0.0024422
 5,0.00525160,0.01242645,-0.00393665,0.00026230,-0.00011276,-0.00189909
 ,-0.00070136,0.00100428,-0.00020509,-0.00007416,0.00026030,0.00035430,
 -0.00003129,0.00029308,-0.00029366,-0.00020701,-0.00025128,0.00000165,
 -0.00003474,-0.00017543,0.01232867,-0.10087289,-0.07477532,0.03328373,
 0.59198249,0.00378803,-0.00507498,0.00086818,-0.00958914,0.00096015,0.
 00272600,0.00231757,-0.00106923,-0.00045092,-0.00629762,0.00097614,0.0
 0259126,0.00008262,0.00088936,-0.00039917,-0.00068450,0.00064690,-0.00
 040590,0.00010320,-0.00008634,0.00002729,0.02699361,0.00281386,-0.0288
 1722,-0.00151317,-0.00024358,0.00679564,0.00029799,-0.00080744,-0.0004
 2368,-0.00022529,0.00025276,-0.00004377,-0.00029226,0.00014236,-0.0005
 3600,-0.00010801,-0.00152398,-0.00118915,-0.00038680,0.00025954,-0.000
 20333,0.04855831,-0.06023970,-0.21471918,0.01892779,-0.03350449,0.5168
 2064,-0.00073243,0.00061773,-0.00025238,0.00052172,-0.00148845,-0.0009
 2413,0.00026071,0.00004732,0.00000630,0.00025711,0.00003647,-0.0002180
 4,-0.00035949,0.00018031,0.00008162,0.00010038,-0.00003509,-0.00001570
 ,-0.00002822,0.00001028,-0.00005069,0.00248771,-0.00033928,0.00062357,
 -0.00053779,0.00049247,0.00007237,-0.00076193,-0.00127376,0.00166667,0
 .00001659,-0.00001467,0.00000916,0.00003600,-0.00003352,0.00000693,-0.
 00039663,0.00057038,0.00007161,-0.00000624,-0.00002519,-0.00005064,0.0
 1189926,-0.00541369,0.01180017,-0.16663934,0.05302654,-0.12110988,0.17
 115578,-0.00018953,0.00013631,-0.00008316,0.00065802,0.00058538,0.0007
 8412,-0.00000743,-0.00004762,0.00002141,0.00028997,-0.00006794,-0.0001
 8132,0.00029211,-0.00000990,0.00000898,-0.00013287,-0.00002793,0.00008
 198,0.00005000,-0.00002157,0.00000502,-0.00131570,-0.00006354,0.000813
 26,0.00022245,-0.00020255,-0.00011427,-0.00031316,-0.00091965,0.000349
 22,-0.00000435,0.00000181,-0.00002774,-0.00004616,0.00003744,-0.000021
 54,0.00003045,-0.00015130,-0.00025248,-0.00000028,-0.00001877,0.000020
 33,-0.00871464,0.00568560,-0.01589031,0.05250406,-0.07864791,0.0578532
 8,-0.05574629,0.07696338,-0.00004560,0.00063810,-0.00039640,0.00098925
 ,0.00028496,0.00049511,-0.00081554,-0.00002461,0.00014959,0.00102020,-
 0.00030194,-0.00006032,0.00022838,-0.00037641,0.00021458,0.00004052,-0
 .00009309,0.00012371,-0.00003260,0.00003231,-0.00000818,-0.00877930,-0
 .00235339,0.00274792,0.00162295,-0.00035644,-0.00122075,0.00030237,0.0
 0112081,-0.00016004,0.00002512,0.00003177,-0.00006404,-0.00011787,0.00
 018463,0.00014172,0.00005177,0.00016740,0.00037565,0.00012323,-0.00006
 407,0.00009285,-0.00787168,0.00187240,-0.04092815,-0.11598719,0.056143
 94,-0.17487907,0.12884965,-0.05635503,0.20530048,0.00025360,-0.0001331
 8,-0.00001381,0.00002270,-0.00027600,-0.00007363,0.00012717,0.00009822
 ,0.00018061,-0.00035475,-0.00002908,0.00013519,0.00002900,-0.00008210,
 -0.00000528,0.00001128,0.00001767,-0.00000600,-0.00000801,0.00000256,0
 .00001783,0.00212472,0.00164885,0.00006001,-0.00049602,-0.00032598,0.0
 0025073,-0.00006754,0.00028447,0.00013720,-0.00005242,0.00001022,0.000
 01357,-0.00000117,0.00002208,0.00001150,0.00000961,0.00003696,0.000093
 78,0.00000926,0.00001540,-0.00001647,-0.00993652,-0.00198828,0.0077879
 1,-0.28260581,-0.10290792,0.03745633,-0.01649839,-0.00911530,0.0026117
 4,0.30245878,0.00020742,-0.00014857,0.00009288,-0.00046000,-0.00005873
 ,-0.00051522,-0.00023735,-0.00008112,-0.00011318,-0.00004024,0.0000685
 3,0.00011502,-0.00006928,0.00006605,-0.00001040,0.00000843,-0.00000504
 ,0.00000095,-0.00002575,0.00000968,-0.00001173,0.00038683,-0.00059179,
 -0.00212231,0.00055262,0.00045259,-0.00038829,0.00004102,-0.00001190,0
 .00068718,0.00008741,-0.00003588,0.00002088,-0.00002169,-0.00000928,0.
 00001208,-0.00008992,0.00020130,0.00012048,-0.00000751,0.00001344,-0.0
 0000911,0.01642092,0.00587038,-0.00624866,-0.10903174,-0.10192726,0.02
 096499,0.01054901,0.00510734,-0.00177429,0.11132972,0.10098038,-0.0000
 8945,0.00024908,-0.00008587,-0.00029190,-0.00093177,-0.00052227,-0.000
 32081,-0.00027413,-0.00037536,0.00044875,-0.00008356,-0.00010885,0.000
 06535,-0.00011558,0.00003066,0.00005792,-0.00005421,0.00004941,-0.0000
 1087,0.00001493,0.00000652,-0.00053124,-0.00353152,-0.00383502,0.00160
 790,0.00068680,-0.00045176,-0.00039032,0.00050858,0.00054767,0.0001377
 3,0.00003171,-0.00007017,-0.00001413,-0.00004560,0.00001307,0.00001105
 ,0.00028680,0.00033196,0.00002922,-0.00000660,0.00005325,0.03898688,0.
 01200941,-0.01779884,0.02651287,0.01487804,-0.05291992,-0.02023641,-0.
 01038250,0.00609911,-0.04690314,-0.01494084,0.06823331,-0.00109934,0.0
 0091506,-0.00008549,0.00028160,-0.00057028,-0.00015530,0.00086378,-0.0
 0012852,0.00007772,0.00019136,-0.00018844,-0.00064200,0.00011461,-0.00
 013609,0.00007929,0.00005645,-0.00004169,0.00006660,0.00008753,-0.0000
 4005,0.00005607,0.00321379,0.00258088,-0.00141990,-0.00076965,-0.00001
 019,0.00112200,-0.00206636,0.00056206,-0.00024869,-0.00000014,-0.00000
 180,-0.00001146,-0.00005147,-0.00001401,-0.00012525,0.00019333,-0.0002
 3235,-0.00008241,-0.00008443,0.00008510,-0.00004317,-0.00221109,0.0113
 1806,0.00537465,-0.05497889,0.01237354,-0.00121732,-0.00085475,0.02173
 230,-0.00165179,0.00481604,-0.02961416,0.00118796,0.05236779,-0.000578
 82,0.00047886,0.00018228,0.00053466,-0.00058223,-0.00037984,-0.0003432
 5,0.00017007,0.00015099,0.00103068,-0.00002968,-0.00060224,0.00000549,
 0.00002088,0.00000808,0.00011635,-0.00008305,0.00007230,-0.00000113,-0
 .00000831,0.00005083,-0.00405199,-0.00032406,0.00191140,0.00053053,0.0
 0009767,-0.00069848,-0.00032155,0.00057839,0.00041374,0.00007368,-0.00
 005158,0.00003483,0.00002481,0.00000749,0.00020578,0.00000487,0.000209
 08,0.00031549,0.00007677,0.00001471,0.00000970,0.00587189,-0.00956848,
 -0.01420947,0.01585925,-0.31422119,0.01509983,-0.00105508,-0.00827786,
 0.00147925,0.00129153,-0.00990577,0.00181501,-0.01852364,0.34173848,0.
 00035294,0.00008473,-0.00015955,0.00054469,0.00156621,0.00059637,-0.00
 089012,0.00027380,-0.00009535,0.00033506,-0.00009244,0.00032177,-0.000
 03813,-0.00009549,0.00000653,-0.00003275,-0.00002760,-0.00001132,-0.00
 005970,0.00003725,-0.00006288,-0.00582620,-0.00308322,0.00376376,0.000
 69376,0.00026211,-0.00173280,0.00061700,-0.00033054,-0.00005119,0.0000
 3939,-0.00004222,0.00001858,0.00010199,-0.00001585,0.00026533,-0.00006
 633,0.00000518,-0.00007916,0.00011356,-0.00009619,0.00006324,0.0102666
 9,-0.04013717,-0.01310519,-0.00162724,0.02054845,-0.05260881,-0.000420
 55,0.02331105,0.00153343,-0.00165005,0.00410868,0.00061923,-0.00229526
 ,-0.00618310,0.06054550,-0.02950700,0.00321327,0.01968348,0.00848167,-
 0.00204129,0.00601365,-0.01159758,0.00500235,-0.00577255,-0.17760019,-
 0.08170680,0.07276698,0.00332124,-0.00198366,0.00389311,-0.00143433,0.
 00074805,-0.00143106,0.00298567,0.00463197,-0.00194402,-0.00730742,-0.
 00668138,0.00593533,0.00280136,-0.00337040,-0.00564089,-0.00023277,0.0
 0005082,-0.00039893,0.00068144,-0.00039203,0.00066345,0.00019632,-0.00
 006228,0.00026353,0.00175081,0.00129783,-0.00059398,-0.00198281,-0.000
 00198,-0.00238443,0.00945710,0.00382112,-0.00672563,-0.00154065,0.0015
 0809,0.00381902,0.00000828,-0.00031091,-0.00062038,0.00028819,0.000042
 01,-0.00029487,-0.00007395,-0.00063434,-0.00026067,0.45422434,-0.01916
 783,0.03374278,0.01095566,0.01691525,-0.00465920,0.00994623,-0.0093304
 8,0.00655522,-0.00258837,-0.04479199,-0.14714036,0.00356654,0.00012775
 ,-0.00171841,-0.00466272,0.00417312,-0.00376239,-0.00216365,-0.0195592
 8,-0.01103108,0.01565836,-0.00942634,-0.01080153,0.00539551,0.00290426
 ,-0.00642886,-0.00894549,-0.00072627,-0.00037524,-0.00012689,-0.000981
 10,-0.00109253,-0.00029031,-0.00037831,-0.00005086,0.00062137,0.006545
 45,-0.00023734,-0.00161560,0.00739763,-0.00178761,0.00511001,0.0118591
 6,0.00524153,-0.00865348,-0.00180807,0.00189623,0.00495665,-0.00021790
 ,-0.00018447,-0.00078416,0.00027897,0.00000858,-0.00036717,-0.00012082
 ,-0.00087747,-0.00024934,0.07648875,0.90313788,0.02969700,0.01153437,-
 0.01631022,-0.00101756,-0.00046876,-0.00272497,0.00328025,-0.00014026,
 -0.00127185,0.08333482,0.03383063,-0.11913244,0.00508530,-0.00416078,-
 0.00239205,-0.00013285,0.00274329,-0.00154024,-0.01405765,-0.00788105,
 0.00336678,0.00200975,0.00164984,-0.00582506,-0.00367933,0.00236221,0.
 00608795,0.00043794,-0.00034080,0.00031976,-0.00050171,0.00028607,-0.0
 0094835,0.00007848,-0.00011592,-0.00007453,0.00006455,0.00024300,0.000
 11394,-0.00583064,0.00144284,-0.00269892,-0.00583047,-0.00178581,0.003
 72532,0.00071235,-0.00074243,-0.00237918,0.00015763,0.00007333,0.00040
 394,-0.00012734,0.00000638,0.00016651,0.00000779,0.00033865,0.00020764
 ,-0.19586604,0.15489909,0.41594034,0.00020547,-0.00053020,-0.00168004,
 -0.00153968,-0.00081512,-0.00060925,0.00065236,-0.00105112,0.00116822,
 0.00452175,-0.03975764,-0.00456717,-0.00058204,-0.00024686,-0.00144941
 ,-0.00039221,-0.00079221,-0.00035810,-0.00197017,-0.00465534,0.0049894
 6,0.00161622,0.00099796,0.00073117,-0.00045282,-0.00054840,-0.00043574
 ,-0.00041536,-0.00041650,0.00034085,-0.00082900,-0.00003837,-0.0006941
 0,-0.00026894,-0.00000207,0.00000562,0.00187345,-0.00106788,-0.0004962
 3,0.00025201,-0.00060862,0.00152140,-0.00223603,-0.00034165,0.00076778
 ,0.00034612,-0.00030585,-0.00087305,0.00007039,0.00009863,0.00007009,-
 0.00010621,-0.00003265,0.00003766,0.00003443,0.00006917,0.00009019,-0.
 09754189,-0.06461148,0.00682624,0.07749227,0.02090673,-0.01642064,-0.0
 1086927,-0.01057202,0.00261547,-0.00623520,0.00653232,-0.00660751,0.00
 336135,-0.05567077,-0.05567814,0.02058123,-0.00004370,0.00146282,-0.00
 013866,-0.00160747,0.00115259,0.00184728,-0.00427553,-0.00125678,0.000
 42430,0.00677053,0.00737396,-0.00444457,-0.00221432,0.00476809,0.00551
 842,0.00045667,0.00026181,0.00003678,0.00043845,0.00089865,0.00004508,
 0.00016904,0.00017160,-0.00045974,-0.00441253,-0.00049860,0.00083957,-
 0.00273719,0.00057943,-0.00167817,-0.00825692,-0.00339447,0.00613302,0
 .00134233,-0.00142636,-0.00347975,0.00010394,0.00015527,0.00056256,-0.
 00019837,-0.00000823,0.00026742,0.00006297,0.00064148,0.00017508,-0.04
 873863,-0.67286995,-0.14050826,0.09384639,0.77342365,0.00267131,-0.001
 12833,-0.00395519,-0.00338703,0.00257410,-0.00130594,-0.00067693,-0.00
 050255,0.00131229,-0.00427777,0.01316340,0.02265441,0.00012480,0.00135
 234,0.00140908,-0.00072243,0.00091153,0.00181610,0.00499586,0.00139068
 ,0.00102666,0.00090583,0.00150052,0.00029644,0.00016296,-0.00045229,-0
 .00093696,-0.00018416,0.00013935,0.00008246,-0.00008325,-0.00004813,-0
 .00006532,-0.00025351,0.00002037,0.00008858,-0.00132172,-0.00056218,-0
 .00033621,0.00093440,-0.00084647,0.00018302,-0.00022334,-0.00055004,0.
 00069162,0.00003056,-0.00010707,-0.00032439,-0.00001654,0.00000428,0.0
 0008853,-0.00000178,-0.00000916,0.00003940,0.00004826,0.00004530,-0.00
 000885,0.01060612,-0.13227424,-0.11523595,-0.01156048,0.14960477,0.086
 06567,-0.00311453,-0.00441911,0.00284052,0.00120617,-0.00100393,0.0002
 5804,0.00101811,-0.00037191,0.00059133,-0.00485305,0.01001877,0.020772
 92,-0.00103599,0.00101886,0.00097937,0.00047524,0.00004116,-0.00021012
 ,-0.00027694,-0.00035726,-0.00067505,0.00029641,-0.00047130,-0.0006342
 3,-0.00046556,0.00021674,0.00035765,0.00010012,-0.00007353,-0.00002034
 ,-0.00023214,-0.00003819,-0.00022688,-0.00003072,0.00002706,-0.0000142
 5,0.00030852,0.00032099,-0.00025547,0.00005245,0.00016081,0.00011803,-
 0.00041901,0.00007142,0.00012491,0.00011062,-0.00005144,-0.00004742,0.
 00000127,0.00001863,-0.00001328,-0.00002350,0.00000489,-0.00000015,-0.
 00003065,0.00002013,0.00001173,-0.15537785,0.04442952,0.09535154,0.019
 26991,0.00809806,0.00222882,0.14302112,-0.00372837,-0.00063910,0.00135
 278,0.00058630,0.00006828,0.00060414,0.00007744,0.00018633,-0.00042726
 ,-0.01002104,0.01163202,0.00818032,-0.00005611,-0.00004419,0.00096510,
 -0.00015627,-0.00017871,0.00031594,0.00146349,0.00017238,-0.00057302,-
 0.00050170,-0.00047005,-0.00003548,0.00009929,-0.00012415,0.00004008,-
 0.00004824,0.00007199,-0.00005598,0.00011416,0.00009227,0.00007572,0.0
 0003359,0.00001504,0.00001064,-0.00066561,0.00000475,-0.00016877,-0.00
 000563,0.00002454,-0.00020965,0.00061900,0.00022869,-0.00028445,-0.000
 09922,0.00007786,0.00021366,0.00000847,-0.00003154,-0.00003469,0.00001
 955,0.00000530,-0.00001431,-0.00000792,-0.00002742,-0.00001939,0.04911
 941,-0.08756492,-0.05326564,0.02080981,-0.03534412,-0.03422618,-0.0576
 6037,0.11184477,0.00188348,0.00179338,0.00207807,0.00129917,-0.0007529
 9,0.00078162,-0.00028709,0.00005172,0.00021531,0.01344032,-0.00925179,
 -0.00088252,-0.00022851,0.00027336,-0.00060975,-0.00011004,-0.00053799
 ,0.00043733,-0.00003698,0.00109503,-0.00076111,-0.00059656,-0.00104877
 ,-0.00001574,0.00007390,-0.00015723,-0.00035434,0.00010379,-0.00002108
 ,-0.00006546,0.00028750,-0.00002366,0.00023802,0.00000154,0.00003562,0
 .00002507,0.00008322,0.00047419,-0.00032765,0.00033396,-0.00018523,-0.
 00011633,0.00103582,0.00056987,-0.00065140,-0.00015760,0.00016503,0.00
 047067,-0.00005073,-0.00001793,-0.00004966,0.00004111,0.00001365,-0.00
 002203,-0.00004230,-0.00006036,-0.00002628,0.09828879,-0.04838802,-0.1
 5979839,0.00617488,-0.02158325,0.00641456,-0.12153766,0.07755643,0.153
 02002\\-0.00000927,0.00001378,-0.00000295,0.00002333,-0.00000798,-0.00
 000282,0.00000930,-0.00000609,0.00000803,-0.00001610,0.00000091,-0.000
 01576,0.00000148,-0.00000150,-0.00000181,0.00000223,-0.00000227,-0.000
 00091,0.00000759,-0.00000412,0.00000794,0.00000119,0.00000397,0.000009
 28,0.00000257,0.00000241,-0.00000038,0.00001092,-0.00000370,-0.0000067
 5,-0.00000049,0.00000029,0.00000052,-0.00000230,0.00000382,-0.00000169
 ,-0.00000271,0.00000419,-0.00000130,-0.00000006,0.00000404,-0.00000196
 ,-0.00000750,0.00000392,0.00000787,-0.00000802,0.00000013,-0.00000045,
 0.,0.,0.00000055,-0.00000009,0.00000266,-0.00000056,-0.00000760,-0.000
 00476,0.00000421,0.00000041,-0.00000617,0.00000224,-0.00000025,-0.0000
 0261,0.00000201,-0.00000464,-0.00000092,-0.00000533\\\@
 The archive entry for this job was punched.


 "THE TIME HAS COME", THE WALRUS SAID,
 "TO TALK OF MANY THINGS,
 OF SHOES AND SHIPS AND SEALING WAX,
 OF CABBAGES AND KINGS,
 AND WHY THE SEA IS BOILING HOT,
 AND WHETHER PIGS HAVE WINGS."
 Job cpu time:       0 days  0 hours 23 minutes  7.8 seconds.
 Elapsed time:       0 days  0 hours  1 minutes 29.0 seconds.
 File lengths (MBytes):  RWF=     84 Int=      0 D2E=      0 Chk=      5 Scr=      1
 Normal termination of Gaussian 16 at Tue Jun 21 10:23:15 2022.
