Job Start Time: Tue Jun 21 10:40:39 MDT 2022
SLURM Job ID: 40880
SLURM Job Name: DATS_13_endo_i
 Entering Gaussian System, Link 0=/opt/apps/Gaussian/G16C/g16/g16
 Initial command:
 /opt/apps/Gaussian/G16C/g16/l1.exe "/tmp/Gau-344669.inp" -scrdir="/tmp/"
 Entering Link 1 = /opt/apps/Gaussian/G16C/g16/l1.exe PID=    344670.
  
 Copyright (c) 1988-2019, Gaussian, Inc.  All Rights Reserved.
  
 This is part of the Gaussian(R) 16 program.  It is based on
 the Gaussian(R) 09 system (copyright 2009, Gaussian, Inc.),
 the Gaussian(R) 03 system (copyright 2003, Gaussian, Inc.),
 the Gaussian(R) 98 system (copyright 1998, Gaussian, Inc.),
 the Gaussian(R) 94 system (copyright 1995, Gaussian, Inc.),
 the Gaussian 92(TM) system (copyright 1992, Gaussian, Inc.),
 the Gaussian 90(TM) system (copyright 1990, Gaussian, Inc.),
 the Gaussian 88(TM) system (copyright 1988, Gaussian, Inc.),
 the Gaussian 86(TM) system (copyright 1986, Carnegie Mellon
 University), and the Gaussian 82(TM) system (copyright 1983,
 Carnegie Mellon University). Gaussian is a federally registered
 trademark of Gaussian, Inc.
  
 This software contains proprietary and confidential information,
 including trade secrets, belonging to Gaussian, Inc.
  
 This software is provided under written license and may be
 used, copied, transmitted, or stored only in accord with that
 written license.
  
 The following legend is applicable only to US Government
 contracts under FAR:
  
                    RESTRICTED RIGHTS LEGEND
  
 Use, reproduction and disclosure by the US Government is
 subject to restrictions as set forth in subparagraphs (a)
 and (c) of the Commercial Computer Software - Restricted
 Rights clause in FAR 52.227-19.
  
 Gaussian, Inc.
 340 Quinnipiac St., Bldg. 40, Wallingford CT 06492
  
  
 ---------------------------------------------------------------
 Warning -- This program may not be used in any manner that
 competes with the business of Gaussian, Inc. or will provide
 assistance to any competitor of Gaussian, Inc.  The licensee
 of this program is prohibited from giving any competitor of
 Gaussian, Inc. access to this program.  By using this program,
 the user acknowledges that Gaussian, Inc. is engaged in the
 business of creating and licensing software in the field of
 computational chemistry and represents and warrants to the
 licensee that it is not a competitor of Gaussian, Inc. and that
 it will not use this program in any manner prohibited above.
 ---------------------------------------------------------------
  

 Cite this work as:
 Gaussian 16, Revision C.01,
 M. J. Frisch, G. W. Trucks, H. B. Schlegel, G. E. Scuseria, 
 M. A. Robb, J. R. Cheeseman, G. Scalmani, V. Barone, 
 G. A. Petersson, H. Nakatsuji, X. Li, M. Caricato, A. V. Marenich, 
 J. Bloino, B. G. Janesko, R. Gomperts, B. Mennucci, H. P. Hratchian, 
 J. V. Ortiz, A. F. Izmaylov, J. L. Sonnenberg, D. Williams-Young, 
 F. Ding, F. Lipparini, F. Egidi, J. Goings, B. Peng, A. Petrone, 
 T. Henderson, D. Ranasinghe, V. G. Zakrzewski, J. Gao, N. Rega, 
 G. Zheng, W. Liang, M. Hada, M. Ehara, K. Toyota, R. Fukuda, 
 J. Hasegawa, M. Ishida, T. Nakajima, Y. Honda, O. Kitao, H. Nakai, 
 T. Vreven, K. Throssell, J. A. Montgomery, Jr., J. E. Peralta, 
 F. Ogliaro, M. J. Bearpark, J. J. Heyd, E. N. Brothers, K. N. Kudin, 
 V. N. Staroverov, T. A. Keith, R. Kobayashi, J. Normand, 
 K. Raghavachari, A. P. Rendell, J. C. Burant, S. S. Iyengar, 
 J. Tomasi, M. Cossi, J. M. Millam, M. Klene, C. Adamo, R. Cammi, 
 J. W. Ochterski, R. L. Martin, K. Morokuma, O. Farkas, 
 J. B. Foresman, and D. J. Fox, Gaussian, Inc., Wallingford CT, 2019.
 
 ******************************************
 Gaussian 16:  AS64L-G16RevC.01  3-Jul-2019
                21-Jun-2022 
 ******************************************
 %nprocshared=16
 Will use up to   16 processors via shared memory.
 -------------------------------------------------
 # opt=(calcfc,ts,noeigentest) freq 6-31g(d) m062x
 -------------------------------------------------
 1/5=1,10=4,11=1,18=20,26=3,38=1/1,3;
 2/9=110,12=2,17=6,18=5,40=1/2;
 3/5=1,6=6,7=1,11=2,25=1,30=1,71=2,74=-55,140=1/1,2,3;
 4//1;
 5/5=2,38=5/2;
 8/6=4,10=90,11=11/1;
 11/6=1,8=1,9=11,15=111,16=1/1,2,10;
 10/6=1,13=1/2;
 6/7=2,8=2,9=2,10=2,28=1/1;
 7/10=1,25=1/1,2,3,16;
 1/5=1,10=4,11=1,18=20,26=3/3(2);
 2/9=110/2;
 99//99;
 2/9=110/2;
 3/5=1,6=6,7=1,11=2,25=1,30=1,71=1,74=-55/1,2,3;
 4/5=5,16=3,69=1/1;
 5/5=2,38=5/2;
 7//1,2,3,16;
 1/5=1,11=1,18=20,26=3/3(-5);
 2/9=110/2;
 6/7=2,8=2,9=2,10=2,19=2,28=1/1;
 99/9=1/99;
 -------------------
 Title Card Required
 -------------------
 Symbolic Z-matrix:
 Charge =  0 Multiplicity = 1
 C                    -1.46442  -0.56807  -1.32635 
 C                     0.09333  -1.72764  -0.63331 
 C                    -0.6618   -0.69789   1.96113 
 C                    -2.10543   0.14941  -0.32654 
 H                    -0.79352  -0.00613  -1.97025 
 H                    -1.97319  -1.40925  -1.78957 
 H                    -3.02228  -0.19298   0.14161 
 C                     0.87261  -0.81866   0.0633 
 C                     0.5031   -0.35359   1.37092 
 H                     0.48015  -2.07894  -1.58449 
 H                    -0.94845  -0.2551    2.90938 
 H                    -0.51082  -2.43206  -0.07673 
 H                    -1.30902  -1.4761    1.57811 
 C                    -1.52803   1.4075    0.06487 
 O                    -0.44963   1.81659  -0.36431 
 H                    -2.09387   2.01039   0.80269 
 O                     1.30952   0.65663   1.98252 
 C                     2.38053   1.00972   1.10322 
 H                     2.83657   1.9162    1.44265 
 H                     3.1085    0.22557   1.09498 
 H                     1.9979    1.15158   0.11409 
 H                     1.62919  -0.44802  -0.42485 
 
 Add virtual bond connecting atoms C2         and C1         Dist= 3.90D+00.

 GradGradGradGradGradGradGradGradGradGradGradGradGradGradGradGradGradGrad
 Berny optimization.
 Initialization pass.
                           ----------------------------
                           !    Initial Parameters    !
                           ! (Angstroms and Degrees)  !
 --------------------------                            --------------------------
 ! Name  Definition              Value          Derivative Info.                !
 --------------------------------------------------------------------------------
 ! R1    R(1,2)                  2.0619         calculate D2E/DX2 analytically  !
 ! R2    R(1,4)                  1.3876         calculate D2E/DX2 analytically  !
 ! R3    R(1,5)                  1.0865         calculate D2E/DX2 analytically  !
 ! R4    R(1,6)                  1.0867         calculate D2E/DX2 analytically  !
 ! R5    R(2,8)                  1.3852         calculate D2E/DX2 analytically  !
 ! R6    R(2,10)                 1.0853         calculate D2E/DX2 analytically  !
 ! R7    R(2,12)                 1.0821         calculate D2E/DX2 analytically  !
 ! R8    R(3,9)                  1.3505         calculate D2E/DX2 analytically  !
 ! R9    R(3,11)                 1.0851         calculate D2E/DX2 analytically  !
 ! R10   R(3,13)                 1.0822         calculate D2E/DX2 analytically  !
 ! R11   R(4,7)                  1.0849         calculate D2E/DX2 analytically  !
 ! R12   R(4,14)                 1.4385         calculate D2E/DX2 analytically  !
 ! R13   R(8,9)                  1.4362         calculate D2E/DX2 analytically  !
 ! R14   R(8,22)                 0.9737         calculate D2E/DX2 analytically  !
 ! R15   R(9,17)                 1.43           calculate D2E/DX2 analytically  !
 ! R16   R(14,15)                1.2306         calculate D2E/DX2 analytically  !
 ! R17   R(14,16)                1.1082         calculate D2E/DX2 analytically  !
 ! R18   R(17,18)                1.43           calculate D2E/DX2 analytically  !
 ! R19   R(18,19)                1.07           calculate D2E/DX2 analytically  !
 ! R20   R(18,20)                1.07           calculate D2E/DX2 analytically  !
 ! R21   R(18,21)                1.07           calculate D2E/DX2 analytically  !
 ! A1    A(2,1,4)              113.4295         calculate D2E/DX2 analytically  !
 ! A2    A(2,1,5)               91.3497         calculate D2E/DX2 analytically  !
 ! A3    A(2,1,6)               93.5351         calculate D2E/DX2 analytically  !
 ! A4    A(4,1,5)              116.4141         calculate D2E/DX2 analytically  !
 ! A5    A(4,1,6)              119.4123         calculate D2E/DX2 analytically  !
 ! A6    A(5,1,6)              115.9008         calculate D2E/DX2 analytically  !
 ! A7    A(1,2,8)              103.0036         calculate D2E/DX2 analytically  !
 ! A8    A(1,2,10)              99.0173         calculate D2E/DX2 analytically  !
 ! A9    A(1,2,12)              96.7289         calculate D2E/DX2 analytically  !
 ! A10   A(8,2,10)             116.9147         calculate D2E/DX2 analytically  !
 ! A11   A(8,2,12)             118.8543         calculate D2E/DX2 analytically  !
 ! A12   A(10,2,12)            116.0454         calculate D2E/DX2 analytically  !
 ! A13   A(9,3,11)             120.3807         calculate D2E/DX2 analytically  !
 ! A14   A(9,3,13)             122.9906         calculate D2E/DX2 analytically  !
 ! A15   A(11,3,13)            116.4069         calculate D2E/DX2 analytically  !
 ! A16   A(1,4,7)              122.5587         calculate D2E/DX2 analytically  !
 ! A17   A(1,4,14)             117.5707         calculate D2E/DX2 analytically  !
 ! A18   A(7,4,14)             119.8549         calculate D2E/DX2 analytically  !
 ! A19   A(2,8,9)              121.7106         calculate D2E/DX2 analytically  !
 ! A20   A(2,8,22)             115.7722         calculate D2E/DX2 analytically  !
 ! A21   A(9,8,22)             122.2151         calculate D2E/DX2 analytically  !
 ! A22   A(3,9,8)              122.4973         calculate D2E/DX2 analytically  !
 ! A23   A(3,9,17)             118.6603         calculate D2E/DX2 analytically  !
 ! A24   A(8,9,17)             118.2339         calculate D2E/DX2 analytically  !
 ! A25   A(4,14,15)            123.1996         calculate D2E/DX2 analytically  !
 ! A26   A(4,14,16)            116.8726         calculate D2E/DX2 analytically  !
 ! A27   A(15,14,16)           119.9195         calculate D2E/DX2 analytically  !
 ! A28   A(9,17,18)            109.5            calculate D2E/DX2 analytically  !
 ! A29   A(17,18,19)           109.4712         calculate D2E/DX2 analytically  !
 ! A30   A(17,18,20)           109.4712         calculate D2E/DX2 analytically  !
 ! A31   A(17,18,21)           109.4712         calculate D2E/DX2 analytically  !
 ! A32   A(19,18,20)           109.4713         calculate D2E/DX2 analytically  !
 ! A33   A(19,18,21)           109.4712         calculate D2E/DX2 analytically  !
 ! A34   A(20,18,21)           109.4712         calculate D2E/DX2 analytically  !
 ! D1    D(4,1,2,8)            -53.5423         calculate D2E/DX2 analytically  !
 ! D2    D(4,1,2,10)          -174.0091         calculate D2E/DX2 analytically  !
 ! D3    D(4,1,2,12)            68.191          calculate D2E/DX2 analytically  !
 ! D4    D(5,1,2,8)             66.139          calculate D2E/DX2 analytically  !
 ! D5    D(5,1,2,10)           -54.3278         calculate D2E/DX2 analytically  !
 ! D6    D(5,1,2,12)          -172.1277         calculate D2E/DX2 analytically  !
 ! D7    D(6,1,2,8)           -177.8066         calculate D2E/DX2 analytically  !
 ! D8    D(6,1,2,10)            61.7266         calculate D2E/DX2 analytically  !
 ! D9    D(6,1,2,12)           -56.0733         calculate D2E/DX2 analytically  !
 ! D10   D(2,1,4,7)            -97.5761         calculate D2E/DX2 analytically  !
 ! D11   D(2,1,4,14)            83.8673         calculate D2E/DX2 analytically  !
 ! D12   D(5,1,4,7)            158.3062         calculate D2E/DX2 analytically  !
 ! D13   D(5,1,4,14)           -20.2503         calculate D2E/DX2 analytically  !
 ! D14   D(6,1,4,7)             11.1744         calculate D2E/DX2 analytically  !
 ! D15   D(6,1,4,14)          -167.3822         calculate D2E/DX2 analytically  !
 ! D16   D(1,2,8,9)             76.8388         calculate D2E/DX2 analytically  !
 ! D17   D(1,2,8,22)           -96.9793         calculate D2E/DX2 analytically  !
 ! D18   D(10,2,8,9)          -175.8457         calculate D2E/DX2 analytically  !
 ! D19   D(10,2,8,22)           10.3362         calculate D2E/DX2 analytically  !
 ! D20   D(12,2,8,9)           -28.501          calculate D2E/DX2 analytically  !
 ! D21   D(12,2,8,22)          157.6809         calculate D2E/DX2 analytically  !
 ! D22   D(11,3,9,8)          -174.3303         calculate D2E/DX2 analytically  !
 ! D23   D(11,3,9,17)           -3.4377         calculate D2E/DX2 analytically  !
 ! D24   D(13,3,9,8)            11.2779         calculate D2E/DX2 analytically  !
 ! D25   D(13,3,9,17)         -177.8294         calculate D2E/DX2 analytically  !
 ! D26   D(1,4,14,15)           -6.0149         calculate D2E/DX2 analytically  !
 ! D27   D(1,4,14,16)          175.0319         calculate D2E/DX2 analytically  !
 ! D28   D(7,4,14,15)          175.3879         calculate D2E/DX2 analytically  !
 ! D29   D(7,4,14,16)           -3.5653         calculate D2E/DX2 analytically  !
 ! D30   D(2,8,9,3)             -4.6293         calculate D2E/DX2 analytically  !
 ! D31   D(2,8,9,17)          -175.5589         calculate D2E/DX2 analytically  !
 ! D32   D(22,8,9,3)           168.7891         calculate D2E/DX2 analytically  !
 ! D33   D(22,8,9,17)           -2.1406         calculate D2E/DX2 analytically  !
 ! D34   D(3,9,17,18)         -171.2845         calculate D2E/DX2 analytically  !
 ! D35   D(8,9,17,18)            0.0            calculate D2E/DX2 analytically  !
 ! D36   D(9,17,18,19)         166.2443         calculate D2E/DX2 analytically  !
 ! D37   D(9,17,18,20)         -73.7557         calculate D2E/DX2 analytically  !
 ! D38   D(9,17,18,21)          46.2443         calculate D2E/DX2 analytically  !
 --------------------------------------------------------------------------------
 Trust Radius=3.00D-01 FncErr=1.00D-07 GrdErr=1.00D-06 EigMax=2.50D+02 EigMin=1.00D-04
 Number of steps in this run=    103 maximum allowed number of steps=    132.
 Search for a saddle point of order  1.
 GradGradGradGradGradGradGradGradGradGradGradGradGradGradGradGradGradGrad

                          Input orientation:                          
 ---------------------------------------------------------------------
 Center     Atomic      Atomic             Coordinates (Angstroms)
 Number     Number       Type             X           Y           Z
 ---------------------------------------------------------------------
      1          6           0       -1.464415   -0.568069   -1.326353
      2          6           0        0.093334   -1.727641   -0.633314
      3          6           0       -0.661802   -0.697890    1.961129
      4          6           0       -2.105435    0.149406   -0.326537
      5          1           0       -0.793518   -0.006127   -1.970248
      6          1           0       -1.973191   -1.409247   -1.789571
      7          1           0       -3.022283   -0.192977    0.141608
      8          6           0        0.872608   -0.818663    0.063303
      9          6           0        0.503101   -0.353587    1.370921
     10          1           0        0.480154   -2.078938   -1.584489
     11          1           0       -0.948452   -0.255096    2.909377
     12          1           0       -0.510818   -2.432057   -0.076729
     13          1           0       -1.309017   -1.476100    1.578107
     14          6           0       -1.528032    1.407502    0.064869
     15          8           0       -0.449631    1.816589   -0.364307
     16          1           0       -2.093868    2.010391    0.802692
     17          8           0        1.309523    0.656625    1.982521
     18          6           0        2.380531    1.009717    1.103221
     19          1           0        2.836568    1.916203    1.442649
     20          1           0        3.108503    0.225569    1.094982
     21          1           0        1.997904    1.151579    0.114094
     22          1           0        1.629194   -0.448020   -0.424850
 ---------------------------------------------------------------------
                    Distance matrix (angstroms):
                    1          2          3          4          5
     1  C    0.000000
     2  C    2.061915   0.000000
     3  C    3.386529   2.891669   0.000000
     4  C    1.387555   2.907233   2.834679   0.000000
     5  H    1.086500   2.353191   3.993947   2.108815   0.000000
     6  H    1.086740   2.389316   4.036523   2.141811   1.842015
     7  H    2.173144   3.558478   3.022824   1.084895   3.076076
     8  C    2.730498   1.385202   2.443511   3.155610   2.751640
     9  C    3.345506   2.464324   1.350514   3.152590   3.600744
    10  H    2.476027   1.085253   3.972753   3.637751   2.463249
    11  H    4.278502   3.975471   1.085085   3.460256   4.888428
    12  H    2.438311   1.082122   2.680111   3.044529   3.090383
    13  H    3.047057   2.630636   1.082222   2.627588   3.875227
    14  C    2.417111   3.597973   2.962909   1.438540   2.584484
    15  O    2.764401   3.595656   3.431512   2.350024   2.453487
    16  H    3.402573   4.562768   3.275298   2.176823   3.666940
    17  O    4.488124   3.742517   2.391922   4.153428   4.526191
    18  C    4.814130   3.967361   3.592731   4.786255   4.533513
    19  H    5.686602   5.011243   4.397829   5.538501   5.340482
    20  H    5.234912   3.986638   3.977209   5.404782   4.967403
    21  H    4.125498   3.532126   3.729090   4.246869   3.671077
    22  H    3.224521   2.009913   3.317227   3.783389   2.907414
                    6          7          8          9         10
     6  H    0.000000
     7  H    2.511844   0.000000
     8  C    3.446811   3.945604   0.000000
     9  C    4.151524   3.737023   1.436209   0.000000
    10  H    2.551362   4.336280   2.111287   3.422252   0.000000
    11  H    4.945934   3.459072   3.425493   2.117440   5.055902
    12  H    2.473561   3.371736   2.129910   2.728325   1.838494
    13  H    3.433198   2.577831   2.736118   2.141666   3.683281
    14  C    3.401645   2.190938   3.273971   2.988764   4.348386
    15  O    3.841696   3.303459   2.979215   2.937410   4.186702
    16  H    4.292821   2.480689   4.165360   3.557460   5.389511
    17  O    5.410427   4.782816   2.459831   1.430000   4.571074
    18  C    5.759733   5.617969   2.588094   2.335595   4.513868
    19  H    6.681291   6.361406   3.638575   3.256096   5.538719
    20  H    6.067692   6.218573   2.674698   2.683223   4.404377
    21  H    5.094249   5.197198   2.269521   2.465679   3.952846
    22  H    3.970340   4.692777   0.973700   2.121744   2.307585
                   11         12         13         14         15
    11  H    0.000000
    12  H    3.721224   0.000000
    13  H    1.842047   2.071101   0.000000
    14  C    3.345351   3.974542   3.263896   0.000000
    15  O    3.906112   4.258807   3.918331   1.230647   0.000000
    16  H    3.298868   4.797371   3.656895   1.108164   2.025577
    17  O    2.605523   4.134502   3.401297   3.506127   3.154004
    18  C    3.993004   4.647363   4.474099   4.063653   3.288540
    19  H    4.603500   5.693933   5.358353   4.605083   3.751549
    20  H    4.470118   4.640621   4.758526   4.894442   4.161873
    21  H    4.298064   4.378647   4.470320   3.535555   2.580995
    22  H    4.218833   2.938918   3.701603   3.694707   3.074676
                   16         17         18         19         20
    16  H    0.000000
    17  O    3.848084   0.000000
    18  C    4.594770   1.430000   0.000000
    19  H    4.972687   2.051796   1.070000   0.000000
    20  H    5.507785   2.051796   1.070000   1.747303   0.000000
    21  H    4.237254   2.051796   1.070000   1.747303   1.747303
    22  H    4.627292   2.667933   2.241541   3.245745   2.225302
                   21         22
    21  H    0.000000
    22  H    1.727752   0.000000
 Stoichiometry    C8H12O2
 Framework group  C1[X(C8H12O2)]
 Deg. of freedom    60
 Full point group                 C1      NOp   1
 Largest Abelian subgroup         C1      NOp   1
 Largest concise Abelian subgroup C1      NOp   1
                         Standard orientation:                         
 ---------------------------------------------------------------------
 Center     Atomic      Atomic             Coordinates (Angstroms)
 Number     Number       Type             X           Y           Z
 ---------------------------------------------------------------------
      1          6           0        2.182405    0.427410   -0.594419
      2          6           0        0.745645    1.899807   -0.455626
      3          6           0       -0.195170    0.378860    1.816672
      4          6           0        2.049017   -0.565830    0.365263
      5          1           0        1.861488    0.173293   -1.600858
      6          1           0        3.007077    1.131524   -0.522694
      7          1           0        2.624960   -0.570496    1.284645
      8          6           0       -0.439070    1.182357   -0.478028
      9          6           0       -0.912247    0.470146    0.675902
     10          1           0        0.994602    2.465051   -1.347978
     11          1           0       -0.542748   -0.243105    2.635059
     12          1           0        1.084361    2.319451    0.482541
     13          1           0        0.689802    0.972468    2.005505
     14          6           0        1.126834   -1.635679    0.092500
     15          8           0        0.383999   -1.651325   -0.888542
     16          1           0        1.091339   -2.465607    0.825977
     17          8           0       -2.093592   -0.324614    0.542933
     18          6           0       -2.581799   -0.233456   -0.798053
     19          1           0       -3.309710   -0.999626   -0.965470
     20          1           0       -3.031956    0.725384   -0.949328
     21          1           0       -1.769032   -0.357918   -1.482756
     22          1           0       -0.877133    1.115404   -1.345040
 ---------------------------------------------------------------------
 Rotational constants (GHZ):           1.8271461           1.1283612           0.9814202
 Standard basis: 6-31G(d) (6D, 7F)
 There are   174 symmetry adapted cartesian basis functions of A   symmetry.
 There are   174 symmetry adapted basis functions of A   symmetry.
   174 basis functions,   328 primitive gaussians,   174 cartesian basis functions
    38 alpha electrons       38 beta electrons
       nuclear repulsion energy       546.3331464978 Hartrees.
 NAtoms=   22 NActive=   22 NUniq=   22 SFac= 1.00D+00 NAtFMM=   60 NAOKFM=F Big=F
 Integral buffers will be    131072 words long.
 Raffenetti 2 integral format.
 Two-electron integral symmetry is turned on.
 One-electron integrals computed using PRISM.
 NBasis=   174 RedAO= T EigKep=  2.03D-03  NBF=   174
 NBsUse=   174 1.00D-06 EigRej= -1.00D+00 NBFU=   174
 ExpMin= 1.61D-01 ExpMax= 5.48D+03 ExpMxC= 8.25D+02 IAcc=3 IRadAn=         5 AccDes= 0.00D+00
 Harris functional with IExCor= 1009 and IRadAn=       5 diagonalized for initial guess.
 HarFok:  IExCor= 1009 AccDes= 0.00D+00 IRadAn=         5 IDoV= 1 UseB2=F ITyADJ=14
 ICtDFT=  3500011 ScaDFX=  1.000000  1.000000  1.000000  1.000000
 FoFCou: FMM=F IPFlag=           0 FMFlag=      100000 FMFlg1=           0
         NFxFlg=           0 DoJE=T BraDBF=F KetDBF=T FulRan=T
         wScrn=  0.000000 ICntrl=       500 IOpCl=  0 I1Cent=   200000004 NGrid=           0
         NMat0=    1 NMatS0=      1 NMatT0=    0 NMatD0=    1 NMtDS0=    0 NMtDT0=    0
 Petite list used in FoFCou.
 Requested convergence on RMS density matrix=1.00D-08 within 128 cycles.
 Requested convergence on MAX density matrix=1.00D-06.
 Requested convergence on             energy=1.00D-06.
 No special actions if energy rises.
 Integral accuracy reduced to 1.0D-05 until final iterations.
 Initial convergence to 1.0D-05 achieved.  Increase integral accuracy.
 SCF Done:  E(RM062X) =  -462.156620853     A.U. after   17 cycles
            NFock= 17  Conv=0.45D-08     -V/T= 2.0081
 DoSCS=F DFT=T ScalE2(SS,OS)=  1.000000  1.000000
 Range of M.O.s used for correlation:     1   174
 NBasis=   174 NAE=    38 NBE=    38 NFC=     0 NFV=     0
 NROrb=    174 NOA=    38 NOB=    38 NVA=   136 NVB=   136
 Symmetrizing basis deriv contribution to polar:
 IMax=3 JMax=2 DiffMx= 0.00D+00
 G2DrvN: will do    23 centers at a time, making    1 passes.
 Calling FoFCou, ICntrl=  3107 FMM=F I1Cent=   0 AccDes= 0.00D+00.
 End of G2Drv F.D. properties file   721 does not exist.
 End of G2Drv F.D. properties file   722 does not exist.
 End of G2Drv F.D. properties file   788 does not exist.
          IDoAtm=1111111111111111111111
          Differentiating once with respect to nuclear coordinates.
 CalDSu exits because no D1Ps are significant.
          There are    69 degrees of freedom in the 1st order CPHF.  IDoFFX=6 NUNeed=     0.
     63 vectors produced by pass  0 Test12= 7.49D-15 1.45D-09 XBig12= 7.84D-02 9.47D-02.
 AX will form    63 AO Fock derivatives at one time.
     63 vectors produced by pass  1 Test12= 7.49D-15 1.45D-09 XBig12= 7.64D-03 1.78D-02.
     63 vectors produced by pass  2 Test12= 7.49D-15 1.45D-09 XBig12= 1.12D-04 1.88D-03.
     63 vectors produced by pass  3 Test12= 7.49D-15 1.45D-09 XBig12= 5.95D-07 1.24D-04.
     63 vectors produced by pass  4 Test12= 7.49D-15 1.45D-09 XBig12= 2.59D-09 8.74D-06.
     63 vectors produced by pass  5 Test12= 7.49D-15 1.45D-09 XBig12= 7.92D-12 4.45D-07.
     32 vectors produced by pass  6 Test12= 7.49D-15 1.45D-09 XBig12= 2.14D-14 1.64D-08.
 InvSVY:  IOpt=1 It=  1 EMax= 3.61D-16
 Solved reduced A of dimension   410 with    69 vectors.
 End of Minotr F.D. properties file   721 does not exist.
 End of Minotr F.D. properties file   722 does not exist.
 End of Minotr F.D. properties file   788 does not exist.

 **********************************************************************

            Population analysis using the SCF Density.

 **********************************************************************

 Orbital symmetries:
       Occupied  (A) (A) (A) (A) (A) (A) (A) (A) (A) (A) (A) (A)
                 (A) (A) (A) (A) (A) (A) (A) (A) (A) (A) (A) (A)
                 (A) (A) (A) (A) (A) (A) (A) (A) (A) (A) (A) (A)
                 (A) (A)
       Virtual   (A) (A) (A) (A) (A) (A) (A) (A) (A) (A) (A) (A)
                 (A) (A) (A) (A) (A) (A) (A) (A) (A) (A) (A) (A)
                 (A) (A) (A) (A) (A) (A) (A) (A) (A) (A) (A) (A)
                 (A) (A) (A) (A) (A) (A) (A) (A) (A) (A) (A) (A)
                 (A) (A) (A) (A) (A) (A) (A) (A) (A) (A) (A) (A)
                 (A) (A) (A) (A) (A) (A) (A) (A) (A) (A) (A) (A)
                 (A) (A) (A) (A) (A) (A) (A) (A) (A) (A) (A) (A)
                 (A) (A) (A) (A) (A) (A) (A) (A) (A) (A) (A) (A)
                 (A) (A) (A) (A) (A) (A) (A) (A) (A) (A) (A) (A)
                 (A) (A) (A) (A) (A) (A) (A) (A) (A) (A) (A) (A)
                 (A) (A) (A) (A) (A) (A) (A) (A) (A) (A) (A) (A)
                 (A) (A) (A) (A)
 The electronic state is 1-A.
 Alpha  occ. eigenvalues --  -19.65544 -19.60990 -10.61066 -10.61035 -10.57400
 Alpha  occ. eigenvalues --  -10.57192 -10.56870 -10.55572 -10.54838 -10.54697
 Alpha  occ. eigenvalues --   -1.15521  -1.12962  -0.92211  -0.87057  -0.84145
 Alpha  occ. eigenvalues --   -0.77175  -0.74060  -0.71755  -0.61853  -0.61064
 Alpha  occ. eigenvalues --   -0.59247  -0.57292  -0.54662  -0.53513  -0.50465
 Alpha  occ. eigenvalues --   -0.49222  -0.47319  -0.46628  -0.46328  -0.45761
 Alpha  occ. eigenvalues --   -0.45244  -0.42904  -0.40036  -0.39304  -0.37762
 Alpha  occ. eigenvalues --   -0.30710  -0.28985  -0.26053
 Alpha virt. eigenvalues --   -0.03636   0.03959   0.10792   0.14029   0.14239
 Alpha virt. eigenvalues --    0.16032   0.17394   0.17843   0.18954   0.20201
 Alpha virt. eigenvalues --    0.21379   0.22059   0.22505   0.23344   0.24570
 Alpha virt. eigenvalues --    0.27867   0.28964   0.31216   0.32100   0.33789
 Alpha virt. eigenvalues --    0.37654   0.39718   0.40887   0.45111   0.54605
 Alpha virt. eigenvalues --    0.56281   0.56632   0.57247   0.60227   0.61101
 Alpha virt. eigenvalues --    0.61353   0.62234   0.63762   0.65379   0.68315
 Alpha virt. eigenvalues --    0.69098   0.69381   0.71584   0.72962   0.77001
 Alpha virt. eigenvalues --    0.79356   0.81254   0.83573   0.86574   0.87831
 Alpha virt. eigenvalues --    0.88712   0.90379   0.92369   0.93266   0.94514
 Alpha virt. eigenvalues --    0.95415   0.96842   0.99293   0.99558   1.01140
 Alpha virt. eigenvalues --    1.02458   1.03844   1.05134   1.06051   1.10464
 Alpha virt. eigenvalues --    1.12703   1.13965   1.15616   1.16448   1.19131
 Alpha virt. eigenvalues --    1.19463   1.21756   1.26196   1.30810   1.35041
 Alpha virt. eigenvalues --    1.36425   1.41025   1.42691   1.44916   1.45981
 Alpha virt. eigenvalues --    1.48988   1.56758   1.57680   1.59585   1.61780
 Alpha virt. eigenvalues --    1.64486   1.68399   1.75484   1.78877   1.81996
 Alpha virt. eigenvalues --    1.84641   1.87027   1.90892   1.91955   1.94480
 Alpha virt. eigenvalues --    1.95790   1.98452   2.02804   2.03482   2.05328
 Alpha virt. eigenvalues --    2.08303   2.13876   2.14119   2.16324   2.18763
 Alpha virt. eigenvalues --    2.20095   2.22605   2.25089   2.26512   2.29550
 Alpha virt. eigenvalues --    2.32001   2.33989   2.38980   2.42425   2.42950
 Alpha virt. eigenvalues --    2.45229   2.51506   2.55759   2.57668   2.58604
 Alpha virt. eigenvalues --    2.59831   2.63727   2.68465   2.70378   2.80129
 Alpha virt. eigenvalues --    2.81476   2.88445   2.98806   3.06778   3.11145
 Alpha virt. eigenvalues --    3.17940   3.97159   4.10555   4.20322   4.25748
 Alpha virt. eigenvalues --    4.28751   4.34558   4.36821   4.45399   4.50712
 Alpha virt. eigenvalues --    4.62328
          Condensed to atoms (all electrons):
               1          2          3          4          5          6
     1  C    5.165151   0.078141  -0.008959   0.495869   0.389402   0.369330
     2  C    0.078141   5.200941  -0.018990  -0.016817  -0.020734  -0.012725
     3  C   -0.008959  -0.018990   5.243194   0.033202   0.000518   0.000273
     4  C    0.495869  -0.016817   0.033202   5.271144  -0.044535  -0.031018
     5  H    0.389402  -0.020734   0.000518  -0.044535   0.490694  -0.030486
     6  H    0.369330  -0.012725   0.000273  -0.031018  -0.030486   0.521876
     7  H   -0.044225   0.000259  -0.001104   0.363187   0.004108  -0.003623
     8  C   -0.032553   0.525458  -0.079213  -0.031212  -0.009468   0.001821
     9  C   -0.009437  -0.024673   0.607289  -0.001341  -0.000196   0.000165
    10  H   -0.009918   0.375747   0.000332   0.001510  -0.001867  -0.001110
    11  H    0.000130   0.000030   0.356886  -0.000555  -0.000003  -0.000002
    12  H   -0.014505   0.380768   0.003683  -0.006448   0.001354  -0.003169
    13  H   -0.000726   0.004186   0.367923  -0.000220   0.000024   0.000023
    14  C   -0.023160  -0.004717   0.001580   0.365910  -0.008142   0.003907
    15  O   -0.000349  -0.002953  -0.007961  -0.098311   0.014512   0.000494
    16  H    0.008648  -0.000203   0.000104  -0.115059   0.000757  -0.000074
    17  O    0.000151   0.003686  -0.059860  -0.000145  -0.000005  -0.000000
    18  C    0.000023   0.001166   0.003648   0.000236  -0.000018  -0.000000
    19  H   -0.000000  -0.000033  -0.000084   0.000002   0.000000   0.000000
    20  H    0.000019   0.000091  -0.000039  -0.000004  -0.000002  -0.000000
    21  H   -0.000320   0.000409   0.000138  -0.000186   0.000078   0.000003
    22  H    0.000904  -0.054498   0.006174   0.000148   0.000934  -0.000083
               7          8          9         10         11         12
     1  C   -0.044225  -0.032553  -0.009437  -0.009918   0.000130  -0.014505
     2  C    0.000259   0.525458  -0.024673   0.375747   0.000030   0.380768
     3  C   -0.001104  -0.079213   0.607289   0.000332   0.356886   0.003683
     4  C    0.363187  -0.031212  -0.001341   0.001510  -0.000555  -0.006448
     5  H    0.004108  -0.009468  -0.000196  -0.001867  -0.000003   0.001354
     6  H   -0.003623   0.001821   0.000165  -0.001110  -0.000002  -0.003169
     7  H    0.538241   0.000161   0.000132  -0.000021   0.000055   0.000285
     8  C    0.000161   4.999468   0.466283  -0.028113   0.006227  -0.034220
     9  C    0.000132   0.466283   4.421352   0.003028  -0.016016  -0.009404
    10  H   -0.000021  -0.028113   0.003028   0.510608  -0.000002  -0.031767
    11  H    0.000055   0.006227  -0.016016  -0.000002   0.499470  -0.000055
    12  H    0.000285  -0.034220  -0.009404  -0.031767  -0.000055   0.511603
    13  H    0.000287  -0.011376  -0.021835   0.000055  -0.031820   0.003261
    14  C   -0.024682  -0.005382   0.002522  -0.000007   0.000015   0.000027
    15  O    0.002885   0.016704  -0.001409  -0.000009   0.000043   0.000048
    16  H    0.001116   0.000242  -0.000387   0.000001   0.000211   0.000000
    17  O   -0.000005  -0.056001   0.272956  -0.000041  -0.001146  -0.000022
    18  C   -0.000000  -0.012284  -0.057750   0.000019   0.000060  -0.000004
    19  H    0.000000   0.001022   0.005006  -0.000000  -0.000013   0.000001
    20  H   -0.000000   0.001078  -0.006132  -0.000004   0.000015  -0.000006
    21  H   -0.000000  -0.001723  -0.015311   0.000037   0.000047  -0.000013
    22  H    0.000005   0.387401  -0.045005  -0.006330  -0.000132   0.004958
              13         14         15         16         17         18
     1  C   -0.000726  -0.023160  -0.000349   0.008648   0.000151   0.000023
     2  C    0.004186  -0.004717  -0.002953  -0.000203   0.003686   0.001166
     3  C    0.367923   0.001580  -0.007961   0.000104  -0.059860   0.003648
     4  C   -0.000220   0.365910  -0.098311  -0.115059  -0.000145   0.000236
     5  H    0.000024  -0.008142   0.014512   0.000757  -0.000005  -0.000018
     6  H    0.000023   0.003907   0.000494  -0.000074  -0.000000  -0.000000
     7  H    0.000287  -0.024682   0.002885   0.001116  -0.000005  -0.000000
     8  C   -0.011376  -0.005382   0.016704   0.000242  -0.056001  -0.012284
     9  C   -0.021835   0.002522  -0.001409  -0.000387   0.272956  -0.057750
    10  H    0.000055  -0.000007  -0.000009   0.000001  -0.000041   0.000019
    11  H   -0.031820   0.000015   0.000043   0.000211  -0.001146   0.000060
    12  H    0.003261   0.000027   0.000048   0.000000  -0.000022  -0.000004
    13  H    0.518910  -0.000698   0.000048   0.000099   0.002557  -0.000189
    14  C   -0.000698   4.555338   0.523639   0.377409   0.000232   0.000249
    15  O    0.000048   0.523639   8.082765  -0.055690  -0.000055  -0.003284
    16  H    0.000099   0.377409  -0.055690   0.661506   0.000041  -0.000083
    17  O    0.002557   0.000232  -0.000055   0.000041   8.264005   0.230242
    18  C   -0.000189   0.000249  -0.003284  -0.000083   0.230242   4.938022
    19  H    0.000003  -0.000010  -0.000065  -0.000001  -0.028415   0.387448
    20  H    0.000009   0.000020   0.000149   0.000000  -0.040572   0.378387
    21  H   -0.000027  -0.000892   0.008670   0.000098  -0.033469   0.376313
    22  H    0.000005   0.000051  -0.001175  -0.000008  -0.010296   0.006527
              19         20         21         22
     1  C   -0.000000   0.000019  -0.000320   0.000904
     2  C   -0.000033   0.000091   0.000409  -0.054498
     3  C   -0.000084  -0.000039   0.000138   0.006174
     4  C    0.000002  -0.000004  -0.000186   0.000148
     5  H    0.000000  -0.000002   0.000078   0.000934
     6  H    0.000000  -0.000000   0.000003  -0.000083
     7  H    0.000000  -0.000000  -0.000000   0.000005
     8  C    0.001022   0.001078  -0.001723   0.387401
     9  C    0.005006  -0.006132  -0.015311  -0.045005
    10  H   -0.000000  -0.000004   0.000037  -0.006330
    11  H   -0.000013   0.000015   0.000047  -0.000132
    12  H    0.000001  -0.000006  -0.000013   0.004958
    13  H    0.000003   0.000009  -0.000027   0.000005
    14  C   -0.000010   0.000020  -0.000892   0.000051
    15  O   -0.000065   0.000149   0.008670  -0.001175
    16  H   -0.000001   0.000000   0.000098  -0.000008
    17  O   -0.028415  -0.040572  -0.033469  -0.010296
    18  C    0.387448   0.378387   0.376313   0.006527
    19  H    0.508464  -0.033672  -0.024485  -0.000144
    20  H   -0.033672   0.595661  -0.050844   0.001783
    21  H   -0.024485  -0.050844   0.549991   0.000938
    22  H   -0.000144   0.001783   0.000938   0.535775
 Mulliken charges:
               1
     1  C   -0.363616
     2  C   -0.414540
     3  C   -0.448732
     4  C   -0.185359
     5  H    0.213077
     6  H    0.184399
     7  H    0.162940
     8  C   -0.104320
     9  C    0.430161
    10  H    0.187853
    11  H    0.186555
    12  H    0.193624
    13  H    0.169501
    14  C    0.236794
    15  O   -0.478697
    16  H    0.121271
    17  O   -0.543839
    18  C   -0.248727
    19  H    0.184975
    20  H    0.154064
    21  H    0.190548
    22  H    0.172067
 Sum of Mulliken charges =  -0.00000
 Mulliken charges with hydrogens summed into heavy atoms:
               1
     1  C    0.033860
     2  C   -0.033063
     3  C   -0.092676
     4  C   -0.022419
     8  C    0.067747
     9  C    0.430161
    14  C    0.358065
    15  O   -0.478697
    17  O   -0.543839
    18  C    0.280860
 APT charges:
               1
     1  C   -0.963186
     2  C   -0.859038
     3  C   -0.755768
     4  C   -0.502025
     5  H    0.355145
     6  H    0.639580
     7  H    0.557600
     8  C   -0.440201
     9  C   -0.072298
    10  H    0.591464
    11  H    0.547265
    12  H    0.457844
    13  H    0.417437
    14  C   -0.264520
    15  O   -0.449483
    16  H    0.453628
    17  O   -0.320784
    18  C   -1.089421
    19  H    0.671062
    20  H    0.442479
    21  H    0.166555
    22  H    0.416663
 Sum of APT charges =  -0.00000
 APT charges with hydrogens summed into heavy atoms:
               1
     1  C    0.031539
     2  C    0.190271
     3  C    0.208935
     4  C    0.055575
     8  C   -0.023538
     9  C   -0.072298
    14  C    0.189107
    15  O   -0.449483
    17  O   -0.320784
    18  C    0.190676
 Electronic spatial extent (au):  <R**2>=           1405.2289
 Charge=             -0.0000 electrons
 Dipole moment (field-independent basis, Debye):
    X=              1.5526    Y=              2.6617    Z=              0.0473  Tot=              3.0817
 Quadrupole moment (field-independent basis, Debye-Ang):
   XX=            -56.8967   YY=            -61.1292   ZZ=            -57.6880
   XY=              1.8653   XZ=              5.3879   YZ=             -4.4946
 Traceless Quadrupole moment (field-independent basis, Debye-Ang):
   XX=              1.6746   YY=             -2.5579   ZZ=              0.8833
   XY=              1.8653   XZ=              5.3879   YZ=             -4.4946
 Octapole moment (field-independent basis, Debye-Ang**2):
  XXX=             -8.9406  YYY=             -3.5719  ZZZ=             -0.2394  XYY=              4.2116
  XXY=              0.3560  XXZ=            -10.3554  XZZ=             -0.6657  YZZ=              1.2209
  YYZ=              2.7215  XYZ=             -2.9000
 Hexadecapole moment (field-independent basis, Debye-Ang**3):
 XXXX=           -949.2861 YYYY=           -515.9472 ZZZZ=           -341.3205 XXXY=             25.0820
 XXXZ=             32.8780 YYYX=             10.4928 YYYZ=            -12.4671 ZZZX=             -1.0918
 ZZZY=             -8.6091 XXYY=           -236.8302 XXZZ=           -215.8112 YYZZ=           -145.3763
 XXYZ=              1.3849 YYXZ=              3.9100 ZZXY=              6.4541
 N-N= 5.463331464978D+02 E-N=-2.169158949365D+03  KE= 4.584564339423D+02
  Exact polarizability:       0.000       0.000       0.000       0.000       0.000       0.000
 Approx polarizability:     137.896      -0.694     120.658       4.679     -13.055     124.664
 Calling FoFJK, ICntrl=    100127 FMM=F ISym2X=0 I1Cent= 0 IOpClX= 0 NMat=1 NMatS=1 NMatT=0.
 ***** Axes restored to original set *****
 -------------------------------------------------------------------
 Center     Atomic                   Forces (Hartrees/Bohr)
 Number     Number              X              Y              Z
 -------------------------------------------------------------------
      1        6          -0.011100516    0.006953185   -0.002087903
      2        6           0.011685375    0.004699372    0.012208364
      3        6          -0.005960805    0.002180052    0.006555856
      4        6           0.003779081   -0.012833194   -0.007888775
      5        1          -0.001024119   -0.000550933    0.001128027
      6        1           0.000066652   -0.000312555    0.000414846
      7        1           0.000687526   -0.000580063    0.000786488
      8        6          -0.090230978   -0.059046563    0.047026160
      9        6           0.023784957    0.026747960    0.005976115
     10        1          -0.002416069   -0.001009616   -0.000967111
     11        1           0.001282636    0.001724398   -0.000848338
     12        1          -0.005217087   -0.000630007   -0.002718213
     13        1           0.004200831   -0.000796431   -0.000197699
     14        6           0.010807858    0.011626198    0.002807147
     15        8          -0.006203300   -0.004284314    0.000501627
     16        1           0.000852184   -0.000708801   -0.000187642
     17        8          -0.017170991   -0.028379005   -0.027491893
     18        6          -0.012831833    0.003789996    0.016268026
     19        1           0.002769612    0.011983049    0.009914775
     20        1           0.014718575   -0.012885933   -0.000972065
     21        1          -0.000777514    0.013209040   -0.010505135
     22        1           0.078297923    0.039104164   -0.049722657
 -------------------------------------------------------------------
 Cartesian Forces:  Max     0.090230978 RMS     0.021214598
 FormGI is forming the generalized inverse of G from B-inverse, IUseBI=4.

 GradGradGradGradGradGradGradGradGradGradGradGradGradGradGradGradGradGrad
 Berny optimization.
 Internal  Forces:  Max     0.100651975 RMS     0.016150526
 Search for a saddle point.
 Step number   1 out of a maximum of  103
 All quantities printed in internal units (Hartrees-Bohrs-Radians)
 Swapping is turned off.
 Second derivative matrix not updated -- analytic derivatives used.
 ITU=  0
     Eigenvalues ---   -0.02580  -0.00759   0.00515   0.00872   0.01112
     Eigenvalues ---    0.01339   0.02042   0.02283   0.02597   0.02879
     Eigenvalues ---    0.03211   0.03555   0.03842   0.04093   0.04611
     Eigenvalues ---    0.05049   0.05695   0.06372   0.07395   0.07837
     Eigenvalues ---    0.08613   0.09430   0.09559   0.10358   0.10818
     Eigenvalues ---    0.11130   0.12730   0.13475   0.14020   0.15182
     Eigenvalues ---    0.15915   0.18055   0.18193   0.19741   0.21545
     Eigenvalues ---    0.24472   0.24802   0.28020   0.32113   0.32194
     Eigenvalues ---    0.33680   0.36614   0.36816   0.37030   0.37298
     Eigenvalues ---    0.37449   0.37799   0.38042   0.38265   0.39557
     Eigenvalues ---    0.40037   0.40100   0.41408   0.50168   0.54215
     Eigenvalues ---    0.60329   0.61770   0.68471   0.81545   1.28073
 Eigenvectors required to have negative eigenvalues:
                          R1        D20       D24       D12       D15
   1                    0.72714   0.24614  -0.22167   0.20235  -0.19494
                          D21       A2        D25       D16       A3
   1                    0.17914  -0.16700  -0.14065   0.12693  -0.11617
 RFO step:  Lambda0=7.984216529D-04 Lambda=-4.04304513D-02.
 Linear search not attempted -- option 19 set.
 Maximum step size (   0.300) exceeded in Quadratic search.
    -- Step size scaled by   0.897
 Iteration  1 RMS(Cart)=  0.11881646 RMS(Int)=  0.03075047
 Iteration  2 RMS(Cart)=  0.10019129 RMS(Int)=  0.00611307
 Iteration  3 RMS(Cart)=  0.00955283 RMS(Int)=  0.00045649
 Iteration  4 RMS(Cart)=  0.00007995 RMS(Int)=  0.00045506
 Iteration  5 RMS(Cart)=  0.00000001 RMS(Int)=  0.00045506
 Variable       Old X    -DE/DX   Delta X   Delta X   Delta X     New X
                                 (Linear)    (Quad)   (Total)
    R1        3.89645   0.00275   0.00000  -0.11108  -0.11108   3.78538
    R2        2.62210  -0.01096   0.00000   0.00641   0.00641   2.62851
    R3        2.05319  -0.00159   0.00000  -0.00176  -0.00176   2.05143
    R4        2.05364   0.00003   0.00000  -0.00002  -0.00002   2.05362
    R5        2.61765  -0.00464   0.00000   0.00837   0.00837   2.62602
    R6        2.05083   0.00031   0.00000   0.00175   0.00175   2.05258
    R7        2.04491   0.00193   0.00000   0.00353   0.00353   2.04845
    R8        2.55210   0.00203   0.00000   0.02622   0.02622   2.57832
    R9        2.05051  -0.00038   0.00000  -0.00113  -0.00113   2.04938
   R10        2.04510  -0.00187   0.00000  -0.00611  -0.00611   2.03899
   R11        2.05015  -0.00006   0.00000  -0.00060  -0.00060   2.04955
   R12        2.71845   0.00884   0.00000   0.01470   0.01470   2.73314
   R13        2.71404   0.00193   0.00000  -0.02942  -0.02942   2.68462
   R14        1.84003   0.10065   0.00000   0.13323   0.13323   1.97326
   R15        2.70231  -0.02164   0.00000  -0.13109  -0.13109   2.57122
   R16        2.32559  -0.00703   0.00000  -0.00654  -0.00654   2.31904
   R17        2.09413  -0.00095   0.00000  -0.00267  -0.00267   2.09146
   R18        2.70231  -0.00216   0.00000  -0.01116  -0.01116   2.69115
   R19        2.02201   0.01448   0.00000   0.02896   0.02896   2.05096
   R20        2.02201   0.01946   0.00000   0.03910   0.03910   2.06110
   R21        2.02201   0.01174   0.00000   0.03818   0.03818   2.06019
    A1        1.97972  -0.01665   0.00000  -0.05427  -0.05415   1.92557
    A2        1.59435   0.00533   0.00000   0.05889   0.05878   1.65314
    A3        1.63250   0.00634   0.00000   0.03558   0.03525   1.66775
    A4        2.03181  -0.00019   0.00000  -0.00920  -0.00834   2.02347
    A5        2.08414   0.00391   0.00000  -0.00517  -0.00485   2.07929
    A6        2.02285  -0.00067   0.00000  -0.00579  -0.00759   2.01526
    A7        1.79775  -0.00616   0.00000   0.04379   0.04334   1.84109
    A8        1.72818   0.00112   0.00000   0.02739   0.02675   1.75492
    A9        1.68824  -0.00121   0.00000  -0.04261  -0.04243   1.64580
   A10        2.04055   0.00362   0.00000   0.00545   0.00415   2.04470
   A11        2.07440   0.00172   0.00000   0.00081   0.00130   2.07570
   A12        2.02537  -0.00189   0.00000  -0.02310  -0.02283   2.00254
   A13        2.10104  -0.00076   0.00000  -0.01164  -0.01260   2.08844
   A14        2.14659  -0.00272   0.00000  -0.01231  -0.01327   2.13332
   A15        2.03168   0.00336   0.00000   0.01743   0.01646   2.04815
   A16        2.13905   0.00309   0.00000   0.00260   0.00250   2.14155
   A17        2.05200  -0.00620   0.00000  -0.00097  -0.00106   2.05093
   A18        2.09186   0.00315   0.00000  -0.00219  -0.00229   2.08958
   A19        2.12425  -0.01053   0.00000  -0.01072  -0.01085   2.11340
   A20        2.02061   0.00595   0.00000   0.04302   0.04283   2.06343
   A21        2.13306   0.00439   0.00000  -0.03519  -0.03526   2.09780
   A22        2.13798  -0.01638   0.00000  -0.00715  -0.00765   2.13033
   A23        2.07101  -0.03114   0.00000  -0.02184  -0.02237   2.04865
   A24        2.06357   0.04799   0.00000   0.03686   0.03643   2.10000
   A25        2.15024  -0.00424   0.00000  -0.00894  -0.00894   2.14130
   A26        2.03981   0.00224   0.00000   0.00228   0.00228   2.04209
   A27        2.09299   0.00201   0.00000   0.00672   0.00672   2.09971
   A28        1.91114   0.08601   0.00000   0.10081   0.10081   2.01194
   A29        1.91063  -0.01480   0.00000  -0.04717  -0.04725   1.86339
   A30        1.91063   0.00583   0.00000   0.01239   0.01212   1.92276
   A31        1.91063   0.01035   0.00000   0.01874   0.01858   1.92921
   A32        1.91063   0.00033   0.00000  -0.00859  -0.00878   1.90185
   A33        1.91063  -0.00467   0.00000   0.01120   0.01124   1.92187
   A34        1.91063   0.00296   0.00000   0.01342   0.01308   1.92372
    D1       -0.93449   0.00343   0.00000  -0.00184  -0.00116  -0.93564
    D2       -3.03703   0.00111   0.00000  -0.03160  -0.03190  -3.06893
    D3        1.19016   0.00312   0.00000  -0.00333  -0.00325   1.18691
    D4        1.15434   0.00139   0.00000   0.00311   0.00276   1.15710
    D5       -0.94820  -0.00093   0.00000  -0.02665  -0.02799  -0.97619
    D6       -3.00420   0.00108   0.00000   0.00162   0.00067  -3.00353
    D7       -3.10331   0.00151   0.00000   0.00404   0.00529  -3.09802
    D8        1.07733  -0.00081   0.00000  -0.02572  -0.02545   1.05188
    D9       -0.97866   0.00119   0.00000   0.00255   0.00320  -0.97546
   D10       -1.70302  -0.00027   0.00000   0.01453   0.01451  -1.68851
   D11        1.46376  -0.00200   0.00000   0.04050   0.04050   1.50427
   D12        2.76297   0.00349   0.00000  -0.02037  -0.02049   2.74248
   D13       -0.35343   0.00176   0.00000   0.00560   0.00550  -0.34793
   D14        0.19503  -0.00174   0.00000   0.01780   0.01790   0.21293
   D15       -2.92137  -0.00347   0.00000   0.04377   0.04390  -2.87747
   D16        1.34109  -0.00159   0.00000  -0.07819  -0.07851   1.26258
   D17       -1.69261  -0.00001   0.00000  -0.04666  -0.04645  -1.73905
   D18       -3.06909  -0.00254   0.00000  -0.01696  -0.01714  -3.08623
   D19        0.18040  -0.00095   0.00000   0.01457   0.01492   0.19532
   D20       -0.49744   0.00310   0.00000  -0.05488  -0.05518  -0.55262
   D21        2.75205   0.00468   0.00000  -0.02336  -0.02312   2.72893
   D22       -3.04264  -0.00307   0.00000   0.00789   0.00847  -3.03417
   D23       -0.06000   0.00474   0.00000   0.06966   0.06923   0.00923
   D24        0.19684  -0.00167   0.00000   0.08919   0.08962   0.28646
   D25       -3.10371   0.00614   0.00000   0.15096   0.15038  -2.95332
   D26       -0.10498   0.00143   0.00000   0.00791   0.00794  -0.09704
   D27        3.05488   0.00142   0.00000   0.00406   0.00408   3.05896
   D28        3.06110  -0.00026   0.00000   0.03308   0.03305   3.09415
   D29       -0.06223  -0.00027   0.00000   0.02922   0.02920  -0.03303
   D30       -0.08080   0.00348   0.00000   0.06877   0.06878  -0.01201
   D31       -3.06408   0.00253   0.00000   0.01231   0.01149  -3.05259
   D32        2.94593   0.00180   0.00000   0.04014   0.04096   2.98689
   D33       -0.03736   0.00085   0.00000  -0.01631  -0.01633  -0.05369
   D34       -2.98948   0.00801   0.00000   0.37790   0.37772  -2.61176
   D35       -0.00000   0.00993   0.00000   0.43324   0.43343   0.43343
   D36        2.90151   0.00594   0.00000  -0.16115  -0.16134   2.74017
   D37       -1.28728   0.00084   0.00000  -0.19297  -0.19308  -1.48036
   D38        0.80711   0.01438   0.00000  -0.15747  -0.15717   0.64994
         Item               Value     Threshold  Converged?
 Maximum Force            0.100652     0.000450     NO 
 RMS     Force            0.016151     0.000300     NO 
 Maximum Displacement     0.638419     0.001800     NO 
 RMS     Displacement     0.197712     0.001200     NO 
 Predicted change in Energy=-2.411237D-02
 GradGradGradGradGradGradGradGradGradGradGradGradGradGradGradGradGradGrad

                          Input orientation:                          
 ---------------------------------------------------------------------
 Center     Atomic      Atomic             Coordinates (Angstroms)
 Number     Number       Type             X           Y           Z
 ---------------------------------------------------------------------
      1          6           0       -1.429199   -0.572264   -1.325201
      2          6           0        0.001594   -1.800295   -0.648944
      3          6           0       -0.695175   -0.686473    1.894398
      4          6           0       -1.975006    0.158331   -0.274936
      5          1           0       -0.769684   -0.025281   -1.991764
      6          1           0       -2.024509   -1.351868   -1.792966
      7          1           0       -2.889804   -0.133998    0.229041
      8          6           0        0.880384   -0.990856    0.060708
      9          6           0        0.522244   -0.451189    1.325113
     10          1           0        0.360424   -2.221351   -1.583682
     11          1           0       -0.966301   -0.175703    2.811848
     12          1           0       -0.686964   -2.433315   -0.101027
     13          1           0       -1.342550   -1.482363    1.560208
     14          6           0       -1.310714    1.387045    0.100313
     15          8           0       -0.248625    1.745492   -0.399152
     16          1           0       -1.796119    2.002307    0.881807
     17          8           0        1.351239    0.421815    1.959105
     18          6           0        2.232566    1.149553    1.109571
     19          1           0        2.512508    2.050138    1.646697
     20          1           0        3.130064    0.563405    0.908241
     21          1           0        1.734937    1.409731    0.175110
     22          1           0        1.759650   -0.683693   -0.411413
 ---------------------------------------------------------------------
                    Distance matrix (angstroms):
                    1          2          3          4          5
     1  C    0.000000
     2  C    2.003136   0.000000
     3  C    3.304187   2.862634   0.000000
     4  C    1.390946   2.807676   2.656628   0.000000
     5  H    1.085568   2.355570   3.942712   2.105710   0.000000
     6  H    1.086729   2.369592   3.975743   2.141860   1.836829
     7  H    2.177409   3.450737   2.809811   1.084575   3.072247
     8  C    2.725828   1.389629   2.436689   3.096214   2.804942
     9  C    3.293472   2.447052   1.364388   3.027859   3.584989
    10  H    2.447254   1.086178   3.945527   3.581890   2.503278
    11  H    4.181712   3.943755   1.084486   3.264552   4.809986
    12  H    2.347983   1.083993   2.652026   2.899297   3.062737
    13  H    3.026776   2.605410   1.078989   2.541581   3.881722
    14  C    2.425906   3.527418   2.810179   1.446318   2.581504
    15  O    2.761035   3.563371   3.372571   2.348383   2.437939
    16  H    3.410854   4.476020   3.076842   2.184102   3.663617
    17  O    4.416526   3.682558   2.328154   4.015504   4.506392
    18  C    4.722425   4.095267   3.543814   4.539058   4.473479
    19  H    5.589833   5.138141   4.223698   5.235398   5.321517
    20  H    5.202393   4.218913   4.143326   5.256019   4.895366
    21  H    4.023803   3.740028   3.640806   3.941094   3.609393
    22  H    3.319064   2.096183   3.367928   3.830834   3.054267
                    6          7          8          9         10
     6  H    0.000000
     7  H    2.514052   0.000000
     8  C    3.464800   3.869994   0.000000
     9  C    4.125481   3.597785   1.420641   0.000000
    10  H    2.547098   4.266965   2.118608   3.408922   0.000000
    11  H    4.869033   3.220636   3.412255   2.121801   5.026486
    12  H    2.412719   3.201298   2.136217   2.724863   1.827626
    13  H    3.424307   2.446240   2.726080   2.143840   3.651064
    14  C    3.405239   2.196285   3.233711   2.870361   4.318456
    15  O    3.832769   3.301959   2.995619   2.897022   4.184483
    16  H    4.296168   2.487176   4.098401   3.404552   5.344961
    17  O    5.349735   4.613946   2.412727   1.360630   4.529833
    18  C    5.727523   5.353645   2.740412   2.352453   4.703352
    19  H    6.632454   5.997097   3.798267   3.212663   5.771693
    20  H    6.126534   6.098073   2.862709   2.829117   4.651393
    21  H    5.062922   4.875883   2.550718   2.501230   4.262322
    22  H    4.083505   4.725439   1.044202   2.144936   2.386723
                   11         12         13         14         15
    11  H    0.000000
    12  H    3.695900   0.000000
    13  H    1.848114   2.023315   0.000000
    14  C    3.148527   3.876177   3.219598   0.000000
    15  O    3.810062   4.212297   3.931261   1.227185   0.000000
    16  H    3.026117   4.676636   3.578949   1.106751   2.025228
    17  O    2.540706   4.068191   3.322877   3.387148   3.142143
    18  C    3.858342   4.777671   4.462232   3.691861   2.964406
    19  H    4.291160   5.778625   5.229485   4.177083   3.449952
    20  H    4.577139   4.956678   4.961301   4.588206   3.810793
    21  H    4.094225   4.550918   4.444506   3.046653   2.092135
    22  H    4.251855   3.023812   3.761490   3.738577   3.151866
                   16         17         18         19         20
    16  H    0.000000
    17  O    3.682986   0.000000
    18  C    4.124242   1.424096   0.000000
    19  H    4.376256   2.024248   1.085323   0.000000
    20  H    5.132097   2.070889   1.090690   1.771177   0.000000
    21  H    3.649510   2.075053   1.090204   1.783342   1.788890
    22  H    4.640098   2.647320   2.428545   3.503775   2.274813
                   21         22
    21  H    0.000000
    22  H    2.174176   0.000000
 Stoichiometry    C8H12O2
 Framework group  C1[X(C8H12O2)]
 Deg. of freedom    60
 Full point group                 C1      NOp   1
 Largest Abelian subgroup         C1      NOp   1
 Largest concise Abelian subgroup C1      NOp   1
                         Standard orientation:                         
 ---------------------------------------------------------------------
 Center     Atomic      Atomic             Coordinates (Angstroms)
 Number     Number       Type             X           Y           Z
 ---------------------------------------------------------------------
      1          6           0        2.200676    0.130078   -0.591220
      2          6           0        1.027889    1.753996   -0.587076
      3          6           0       -0.112771    0.527233    1.734265
      4          6           0        1.861157   -0.713823    0.461058
      5          1           0        1.895718   -0.197772   -1.580145
      6          1           0        3.138502    0.677506   -0.548972
      7          1           0        2.388738   -0.710293    1.408660
      8          6           0       -0.274989    1.270739   -0.580543
      9          6           0       -0.828966    0.670584    0.581845
     10          1           0        1.368861    2.247862   -1.492403
     11          1           0       -0.537938   -0.025016    2.565147
     12          1           0        1.444000    2.152365    0.331180
     13          1           0        0.797559    1.076510    1.918143
     14          6           0        0.798295   -1.668456    0.235595
     15          8           0        0.133737   -1.689042   -0.795871
     16          1           0        0.589159   -2.389076    1.049147
     17          8           0       -2.068102    0.110032    0.541401
     18          6           0       -2.497322   -0.324252   -0.745151
     19          1           0       -3.255888   -1.083209   -0.582397
     20          1           0       -2.940139    0.507525   -1.294391
     21          1           0       -1.661596   -0.743606   -1.305731
     22          1           0       -0.795860    1.242688   -1.485122
 ---------------------------------------------------------------------
 Rotational constants (GHZ):           1.8431744           1.1971934           1.0235100
 Standard basis: 6-31G(d) (6D, 7F)
 There are   174 symmetry adapted cartesian basis functions of A   symmetry.
 There are   174 symmetry adapted basis functions of A   symmetry.
   174 basis functions,   328 primitive gaussians,   174 cartesian basis functions
    38 alpha electrons       38 beta electrons
       nuclear repulsion energy       553.1339747825 Hartrees.
 NAtoms=   22 NActive=   22 NUniq=   22 SFac= 1.00D+00 NAtFMM=   60 NAOKFM=F Big=F
 Integral buffers will be    131072 words long.
 Raffenetti 2 integral format.
 Two-electron integral symmetry is turned on.
 One-electron integrals computed using PRISM.
 NBasis=   174 RedAO= T EigKep=  1.95D-03  NBF=   174
 NBsUse=   174 1.00D-06 EigRej= -1.00D+00 NBFU=   174
 Initial guess from the checkpoint file:  "/tmp/Gau-344670.chk"
 B after Tr=     0.000000    0.000000    0.000000
         Rot=    0.997245    0.050842    0.004550    0.053821 Ang=   8.51 deg.
 ExpMin= 1.61D-01 ExpMax= 5.48D+03 ExpMxC= 8.25D+02 IAcc=3 IRadAn=         5 AccDes= 0.00D+00
 Harris functional with IExCor= 1009 and IRadAn=       5 diagonalized for initial guess.
 HarFok:  IExCor= 1009 AccDes= 0.00D+00 IRadAn=         5 IDoV= 1 UseB2=F ITyADJ=14
 ICtDFT=  3500011 ScaDFX=  1.000000  1.000000  1.000000  1.000000
 FoFCou: FMM=F IPFlag=           0 FMFlag=      100000 FMFlg1=           0
         NFxFlg=           0 DoJE=T BraDBF=F KetDBF=T FulRan=T
         wScrn=  0.000000 ICntrl=       500 IOpCl=  0 I1Cent=   200000004 NGrid=           0
         NMat0=    1 NMatS0=      1 NMatT0=    0 NMatD0=    1 NMtDS0=    0 NMtDT0=    0
 Petite list used in FoFCou.
 Requested convergence on RMS density matrix=1.00D-08 within 128 cycles.
 Requested convergence on MAX density matrix=1.00D-06.
 Requested convergence on             energy=1.00D-06.
 No special actions if energy rises.
 Integral accuracy reduced to 1.0D-05 until final iterations.
 Initial convergence to 1.0D-05 achieved.  Increase integral accuracy.
 SCF Done:  E(RM062X) =  -462.178039872     A.U. after   16 cycles
            NFock= 16  Conv=0.96D-08     -V/T= 2.0082
 Calling FoFJK, ICntrl=      2127 FMM=F ISym2X=0 I1Cent= 0 IOpClX= 0 NMat=1 NMatS=1 NMatT=0.
 ***** Axes restored to original set *****
 -------------------------------------------------------------------
 Center     Atomic                   Forces (Hartrees/Bohr)
 Number     Number              X              Y              Z
 -------------------------------------------------------------------
      1        6          -0.002201362    0.000115613   -0.001070088
      2        6           0.003291443    0.003456115    0.001429409
      3        6          -0.005280597    0.001390564   -0.001241928
      4        6           0.000513809   -0.002392348    0.000031811
      5        1          -0.000213451    0.000012625    0.000315907
      6        1          -0.000401276    0.000033549    0.000391290
      7        1          -0.000377790    0.000583645   -0.000441689
      8        6          -0.030025727   -0.016297437    0.015708313
      9        6           0.007289152   -0.004588363   -0.002062871
     10        1          -0.001236637   -0.000708153   -0.000358758
     11        1           0.000331366    0.001146161   -0.000624293
     12        1          -0.001274111   -0.000609622   -0.001345971
     13        1           0.001982300   -0.002573393    0.001729166
     14        6           0.000872494    0.003287270    0.000050896
     15        8          -0.005019299   -0.000025330   -0.001979329
     16        1           0.000343315   -0.000468702    0.000299329
     17        8          -0.002792866    0.004774013   -0.003546763
     18        6           0.001536678   -0.001711763    0.001706332
     19        1           0.000435163    0.002599723    0.002658564
     20        1           0.004339261   -0.001704826   -0.000353028
     21        1           0.002479171    0.002761069    0.002051604
     22        1           0.025408964    0.010919590   -0.013347904
 -------------------------------------------------------------------
 Cartesian Forces:  Max     0.030025727 RMS     0.006363169

 GradGradGradGradGradGradGradGradGradGradGradGradGradGradGradGradGradGrad
 Berny optimization.
 FormGI is forming the generalized inverse of G from B-inverse, IUseBI=4.
 Internal  Forces:  Max     0.032742029 RMS     0.006376555
 Search for a saddle point.
 Step number   2 out of a maximum of  103
 All quantities printed in internal units (Hartrees-Bohrs-Radians)
 Swapping is turned off.
 Update second derivatives using D2CorX and points    1    2
 ITU=  0  0
     Eigenvalues ---   -0.02753  -0.00284   0.00524   0.00904   0.01114
     Eigenvalues ---    0.01339   0.02022   0.02279   0.02581   0.03103
     Eigenvalues ---    0.03266   0.03598   0.03843   0.04236   0.04750
     Eigenvalues ---    0.05060   0.05708   0.06530   0.07389   0.07877
     Eigenvalues ---    0.08753   0.09436   0.09577   0.10358   0.10814
     Eigenvalues ---    0.11124   0.12702   0.13515   0.14002   0.15175
     Eigenvalues ---    0.15956   0.17995   0.18134   0.19731   0.21536
     Eigenvalues ---    0.24462   0.24795   0.28889   0.32113   0.32215
     Eigenvalues ---    0.33664   0.36617   0.36817   0.37031   0.37297
     Eigenvalues ---    0.37449   0.37797   0.38082   0.38277   0.39556
     Eigenvalues ---    0.40038   0.40165   0.41384   0.50198   0.54230
     Eigenvalues ---    0.61205   0.61811   0.67810   0.81543   1.27944
 Eigenvectors required to have negative eigenvalues:
                          R1        D20       D24       D15       D12
   1                   -0.71380  -0.25349   0.23296   0.20813  -0.19523
                          D21       D25       A2        D16       R2
   1                   -0.18550   0.17080   0.17008  -0.14116   0.11231
 RFO step:  Lambda0=2.241742502D-04 Lambda=-1.14872669D-02.
 Linear search not attempted -- option 19 set.
 Maximum step size (   0.300) exceeded in Quadratic search.
    -- Step size scaled by   0.863
 Iteration  1 RMS(Cart)=  0.23951583 RMS(Int)=  0.02450113
 Iteration  2 RMS(Cart)=  0.04053822 RMS(Int)=  0.00131575
 Iteration  3 RMS(Cart)=  0.00203294 RMS(Int)=  0.00082395
 Iteration  4 RMS(Cart)=  0.00000520 RMS(Int)=  0.00082395
 Iteration  5 RMS(Cart)=  0.00000000 RMS(Int)=  0.00082395
 Variable       Old X    -DE/DX   Delta X   Delta X   Delta X     New X
                                 (Linear)    (Quad)   (Total)
    R1        3.78538   0.00614   0.00000   0.20957   0.20957   3.99494
    R2        2.62851   0.00042   0.00000  -0.03209  -0.03209   2.59642
    R3        2.05143  -0.00032   0.00000  -0.00159  -0.00159   2.04983
    R4        2.05362   0.00003   0.00000  -0.00160  -0.00160   2.05202
    R5        2.62602   0.00307   0.00000  -0.02469  -0.02469   2.60133
    R6        2.05258   0.00018   0.00000   0.00029   0.00029   2.05287
    R7        2.04845   0.00048   0.00000   0.00228   0.00228   2.05073
    R8        2.57832   0.00259   0.00000   0.00569   0.00569   2.58401
    R9        2.04938  -0.00007   0.00000  -0.00034  -0.00034   2.04905
   R10        2.03899   0.00017   0.00000  -0.00002  -0.00002   2.03897
   R11        2.04955  -0.00004   0.00000   0.00166   0.00166   2.05121
   R12        2.73314   0.00020   0.00000   0.03114   0.03114   2.76428
   R13        2.68462  -0.00153   0.00000  -0.00039  -0.00039   2.68423
   R14        1.97326   0.03065   0.00000   0.06227   0.06227   2.03552
   R15        2.57122   0.00914   0.00000   0.02185   0.02185   2.59306
   R16        2.31904  -0.00355   0.00000  -0.02219  -0.02219   2.29685
   R17        2.09146  -0.00020   0.00000   0.00359   0.00359   2.09504
   R18        2.69115   0.00282   0.00000   0.00196   0.00196   2.69311
   R19        2.05096   0.00359   0.00000   0.01113   0.01113   2.06209
   R20        2.06110   0.00455   0.00000   0.01356   0.01356   2.07466
   R21        2.06019  -0.00223   0.00000  -0.00749  -0.00749   2.05269
    A1        1.92557   0.00808   0.00000   0.00468   0.00472   1.93029
    A2        1.65314   0.00061   0.00000  -0.00725  -0.00720   1.64593
    A3        1.66775  -0.00596   0.00000  -0.07506  -0.07514   1.59261
    A4        2.02347  -0.00116   0.00000   0.01696   0.01643   2.03990
    A5        2.07929  -0.00131   0.00000   0.00952   0.00827   2.08755
    A6        2.01526   0.00081   0.00000   0.02041   0.01888   2.03415
    A7        1.84109   0.02308   0.00000   0.05693   0.05666   1.89775
    A8        1.75492  -0.00754   0.00000  -0.02059  -0.02153   1.73339
    A9        1.64580  -0.01002   0.00000  -0.09532  -0.09537   1.55043
   A10        2.04470  -0.00315   0.00000   0.01958   0.01924   2.06394
   A11        2.07570  -0.00183   0.00000   0.01405   0.01523   2.09093
   A12        2.00254   0.00117   0.00000  -0.00241  -0.00501   1.99754
   A13        2.08844  -0.00069   0.00000  -0.00536  -0.00763   2.08082
   A14        2.13332  -0.00068   0.00000  -0.02315  -0.02541   2.10791
   A15        2.04815   0.00102   0.00000   0.00981   0.00745   2.05560
   A16        2.14155  -0.00036   0.00000  -0.00419  -0.00522   2.13633
   A17        2.05093   0.00137   0.00000   0.02209   0.02110   2.07203
   A18        2.08958  -0.00111   0.00000  -0.02159  -0.02255   2.06703
   A19        2.11340   0.00198   0.00000   0.02241   0.02233   2.13572
   A20        2.06343   0.00094   0.00000   0.01482   0.01469   2.07812
   A21        2.09780  -0.00273   0.00000  -0.04046  -0.04051   2.05729
   A22        2.13033  -0.00848   0.00000   0.00012  -0.00250   2.12783
   A23        2.04865  -0.00621   0.00000   0.01349   0.01085   2.05949
   A24        2.10000   0.01483   0.00000  -0.00209  -0.00471   2.09530
   A25        2.14130  -0.00163   0.00000   0.01090   0.01066   2.15196
   A26        2.04209   0.00074   0.00000  -0.01732  -0.01756   2.02453
   A27        2.09971   0.00092   0.00000   0.00693   0.00669   2.10640
   A28        2.01194   0.03274   0.00000   0.06513   0.06513   2.07707
   A29        1.86339  -0.00345   0.00000  -0.01227  -0.01230   1.85108
   A30        1.92276   0.00083   0.00000   0.00081   0.00068   1.92343
   A31        1.92921   0.00476   0.00000   0.03964   0.03953   1.96874
   A32        1.90185  -0.00068   0.00000  -0.00938  -0.00945   1.89240
   A33        1.92187  -0.00187   0.00000  -0.00845  -0.00845   1.91342
   A34        1.92372   0.00023   0.00000  -0.01097  -0.01116   1.91256
    D1       -0.93564  -0.00022   0.00000  -0.04347  -0.04285  -0.97850
    D2       -3.06893  -0.00248   0.00000  -0.07852  -0.07740   3.13685
    D3        1.18691   0.00008   0.00000  -0.04913  -0.05010   1.13681
    D4        1.15710   0.00127   0.00000  -0.02664  -0.02657   1.13053
    D5       -0.97619  -0.00100   0.00000  -0.06169  -0.06112  -1.03730
    D6       -3.00353   0.00156   0.00000  -0.03230  -0.03382  -3.03735
    D7       -3.09802   0.00135   0.00000  -0.01752  -0.01712  -3.11514
    D8        1.05188  -0.00091   0.00000  -0.05257  -0.05167   1.00021
    D9       -0.97546   0.00165   0.00000  -0.02318  -0.02437  -0.99983
   D10       -1.68851   0.00429   0.00000   0.07845   0.07843  -1.61009
   D11        1.50427   0.00670   0.00000   0.16298   0.16321   1.66747
   D12        2.74248  -0.00079   0.00000   0.07558   0.07563   2.81811
   D13       -0.34793   0.00161   0.00000   0.16010   0.16041  -0.18752
   D14        0.21293   0.00166   0.00000  -0.00907  -0.00948   0.20346
   D15       -2.87747   0.00406   0.00000   0.07546   0.07530  -2.80217
   D16        1.26258  -0.00110   0.00000  -0.09492  -0.09537   1.16722
   D17       -1.73905  -0.00243   0.00000  -0.06537  -0.06554  -1.80459
   D18       -3.08623   0.00320   0.00000  -0.07331  -0.07313   3.12383
   D19        0.19532   0.00187   0.00000  -0.04376  -0.04330   0.15202
   D20       -0.55262  -0.00286   0.00000  -0.02108  -0.02123  -0.57385
   D21        2.72893  -0.00419   0.00000   0.00847   0.00859   2.73752
   D22       -3.03417  -0.00037   0.00000  -0.01705  -0.01699  -3.05116
   D23        0.00923   0.00210   0.00000   0.11694   0.11747   0.12670
   D24        0.28646   0.00193   0.00000   0.10691   0.10638   0.39283
   D25       -2.95332   0.00440   0.00000   0.24090   0.24083  -2.71249
   D26       -0.09704   0.00266   0.00000   0.02091   0.02116  -0.07588
   D27        3.05896  -0.00057   0.00000  -0.01952  -0.01926   3.03970
   D28        3.09415   0.00497   0.00000   0.10233   0.10208  -3.08696
   D29       -0.03303   0.00174   0.00000   0.06190   0.06165   0.02862
   D30       -0.01201  -0.00452   0.00000  -0.06388  -0.06444  -0.07646
   D31       -3.05259  -0.00586   0.00000  -0.20258  -0.20246   3.02814
   D32        2.98689  -0.00286   0.00000  -0.08948  -0.08961   2.89728
   D33       -0.05369  -0.00420   0.00000  -0.22819  -0.22762  -0.28131
   D34       -2.61176  -0.00628   0.00000   0.22849   0.22833  -2.38343
   D35        0.43343  -0.00521   0.00000   0.36014   0.36030   0.79373
   D36        2.74017   0.00127   0.00000  -0.28156  -0.28161   2.45856
   D37       -1.48036  -0.00109   0.00000  -0.29941  -0.29950  -1.77985
   D38        0.64994   0.00294   0.00000  -0.28621  -0.28607   0.36388
         Item               Value     Threshold  Converged?
 Maximum Force            0.032742     0.000450     NO 
 RMS     Force            0.006377     0.000300     NO 
 Maximum Displacement     0.929375     0.001800     NO 
 RMS     Displacement     0.249027     0.001200     NO 
 Predicted change in Energy=-9.648579D-03
 GradGradGradGradGradGradGradGradGradGradGradGradGradGradGradGradGradGrad

                          Input orientation:                          
 ---------------------------------------------------------------------
 Center     Atomic      Atomic             Coordinates (Angstroms)
 Number     Number       Type             X           Y           Z
 ---------------------------------------------------------------------
      1          6           0       -1.547661   -0.587086   -1.340681
      2          6           0        0.021693   -1.832811   -0.666564
      3          6           0       -0.628437   -0.494606    1.801321
      4          6           0       -2.116360    0.086899   -0.287067
      5          1           0       -0.914100   -0.011126   -2.006639
      6          1           0       -2.065783   -1.435765   -1.777068
      7          1           0       -2.975144   -0.297768    0.253976
      8          6           0        0.933971   -1.062856    0.018893
      9          6           0        0.624831   -0.439448    1.257208
     10          1           0        0.323875   -2.264609   -1.616490
     11          1           0       -0.838388    0.066736    2.704947
     12          1           0       -0.708854   -2.419193   -0.118741
     13          1           0       -1.316003   -1.279061    1.525498
     14          6           0       -1.656484    1.443368    0.010041
     15          8           0       -0.740429    1.981659   -0.580202
     16          1           0       -2.213000    1.982389    0.803042
     17          8           0        1.606842    0.206112    1.965595
     18          6           0        2.494547    1.081840    1.275609
     19          1           0        2.654794    1.933311    1.938979
     20          1           0        3.459940    0.587117    1.106573
     21          1           0        2.092106    1.428184    0.327979
     22          1           0        1.859005   -0.794117   -0.463134
 ---------------------------------------------------------------------
                    Distance matrix (angstroms):
                    1          2          3          4          5
     1  C    0.000000
     2  C    2.114034   0.000000
     3  C    3.275012   2.881652   0.000000
     4  C    1.373964   2.898375   2.629340   0.000000
     5  H    1.084725   2.447457   3.849144   2.100468   0.000000
     6  H    1.085883   2.397587   3.969460   2.131002   1.846259
     7  H    2.159710   3.490672   2.817811   1.085452   3.072531
     8  C    2.869372   1.376566   2.437432   3.274151   2.936713
     9  C    3.389771   2.450742   1.367399   3.189977   3.633795
    10  H    2.528399   1.086334   3.965001   3.640289   2.600574
    11  H    4.159045   3.964228   1.084308   3.253577   4.712837
    12  H    2.356555   1.085197   2.719768   2.879219   3.066768
    13  H    2.957613   2.627015   1.078979   2.406618   3.774277
    14  C    2.441113   3.742649   2.832191   1.462794   2.594934
    15  O    2.797928   3.890819   3.437453   2.359921   2.456843
    16  H    3.411807   4.659329   3.105304   2.188734   3.681786
    17  O    4.638051   3.687570   2.348290   4.353267   4.709669
    18  C    5.096050   4.287451   3.537596   4.969137   4.856603
    19  H    5.896541   5.282589   4.085748   5.579285   5.664427
    20  H    5.695952   4.563070   4.285746   5.769538   5.402056
    21  H    4.482593   3.988711   3.642693   4.459654   4.069315
    22  H    3.523964   2.120373   3.377104   4.075625   3.268883
                    6          7          8          9         10
     6  H    0.000000
     7  H    2.499423   0.000000
     8  C    3.516115   3.990214   0.000000
     9  C    4.175989   3.739836   1.420433   0.000000
    10  H    2.534410   4.272076   2.119176   3.417591   0.000000
    11  H    4.883899   3.271979   3.410589   2.119712   5.045874
    12  H    2.357634   3.126569   2.134822   2.755238   1.825836
    13  H    3.390231   2.309210   2.716429   2.131611   3.678667
    14  C    3.413311   2.197708   3.604399   3.210112   4.507385
    15  O    3.855884   3.299332   3.525848   3.331933   4.498603
    16  H    4.285140   2.466061   4.448801   3.758304   5.506983
    17  O    5.494677   4.917127   2.419232   1.372190   4.536717
    18  C    6.037697   5.732763   2.935039   2.410497   4.926944
    19  H    6.887926   6.285949   3.952844   3.196177   5.974703
    20  H    6.552942   6.551355   3.207176   3.019001   5.038087
    21  H    5.470052   5.353635   2.764433   2.550375   4.532585
    22  H    4.188329   4.912190   1.077153   2.146754   2.418512
                   11         12         13         14         15
    11  H    0.000000
    12  H    3.764284   0.000000
    13  H    1.852130   2.090945   0.000000
    14  C    3.134790   3.979191   3.134350   0.000000
    15  O    3.803778   4.425092   3.923972   1.215443   0.000000
    16  H    3.029278   4.741947   3.458844   1.108649   2.020353
    17  O    2.558363   4.074203   3.307938   4.000536   3.891444
    18  C    3.765886   4.946030   4.489609   4.354701   3.836506
    19  H    4.033997   5.873042   5.124210   4.748469   4.228019
    20  H    4.615324   5.283761   5.144682   5.302202   4.736355
    21  H    4.011398   4.779879   4.514248   3.762079   3.025621
    22  H    4.248969   3.058329   3.777632   4.193912   3.804695
                   16         17         18         19         20
    16  H    0.000000
    17  O    4.370113   0.000000
    18  C    4.816150   1.425131   0.000000
    19  H    4.998817   2.020427   1.091211   0.000000
    20  H    5.849885   2.077752   1.097865   1.775781   0.000000
    21  H    4.366550   2.100173   1.086239   1.779632   1.784538
    22  H    5.088557   2.638707   2.635594   3.720523   2.633397
                   21         22
    21  H    0.000000
    22  H    2.370405   0.000000
 Stoichiometry    C8H12O2
 Framework group  C1[X(C8H12O2)]
 Deg. of freedom    60
 Full point group                 C1      NOp   1
 Largest Abelian subgroup         C1      NOp   1
 Largest concise Abelian subgroup C1      NOp   1
                         Standard orientation:                         
 ---------------------------------------------------------------------
 Center     Atomic      Atomic             Coordinates (Angstroms)
 Number     Number       Type             X           Y           Z
 ---------------------------------------------------------------------
      1          6           0        2.189618    0.599727   -0.543383
      2          6           0        0.613646    2.005162   -0.442386
      3          6           0       -0.225517    0.186898    1.629725
      4          6           0        2.070296   -0.333113    0.458290
      5          1           0        1.944056    0.274118   -1.548523
      6          1           0        2.930590    1.388719   -0.456237
[...]
 5729,-0.00268395,0.00636808,-0.00176231,0.10418517,0.08244061,-0.12414
 173,0.00008204,-0.00202512,-0.00058383,0.00018496,-0.00199872,-0.00195
 179,-0.00025943,-0.00016650,0.00002388,-0.00032043,0.00002735,-0.00017
 873,0.00005437,-0.00003032,0.00010755,-0.01168363,-0.01073901,0.011268
 50,-0.00054753,0.00110759,0.00002827,0.01518309,0.01614361,-0.00947714
 ,-0.00009602,0.00004399,0.00024603,-0.10450773,-0.08710328,0.12960494,
 -0.00194811,0.00231632,0.00123929,0.00236196,-0.00116522,0.00187716,-0
 .12133892,-0.13675430,-0.02329956,-0.00126837,0.00353423,-0.00542800,0
 .00025720,-0.00009642,0.00025696,0.00018374,-0.00029376,0.00009657,0.0
 0006267,0.00042670,-0.00031693,-0.00128953,-0.00038426,-0.00375362,-0.
 01219573,-0.02168265,-0.00906841,-0.00014099,0.00073275,-0.00043565,0.
 00656037,0.00859133,0.00144078,0.00078153,0.00073722,0.00132993,0.1311
 1130,0.00285789,-0.00286460,-0.00127564,-0.00158006,0.00117690,-0.0042
 9592,-0.14740139,-0.26001962,-0.07286128,0.00104553,-0.00302708,0.0059
 3737,-0.00034231,0.00006881,-0.00028479,-0.00026887,0.00027562,-0.0001
 7778,0.00013320,0.00046169,-0.00037991,0.00063184,-0.00036658,0.002933
 82,0.00537291,-0.00111912,-0.00439823,0.00076121,-0.00008044,0.0000420
 1,-0.00686958,-0.00720520,-0.00099773,0.00009643,0.00016103,-0.0014212
 8,0.14778320,0.26961565,-0.00299138,0.00308847,0.00103951,0.00503003,-
 0.00034300,-0.00014574,-0.01910180,-0.07251714,-0.05877184,-0.00220241
 ,0.00456620,-0.00718703,0.00036880,-0.00019750,0.00032528,0.00005013,-
 0.00025225,0.00000013,0.00037668,-0.00015444,0.00025695,-0.00241986,-0
 .00203416,-0.00431662,-0.00419293,0.01065342,0.00899045,-0.00056620,0.
 00044466,-0.00010825,-0.01290970,-0.01796623,-0.00111510,0.00169756,-0
 .00198139,-0.00237663,0.03120461,0.07825648,0.06113935,0.02908669,-0.0
 0734912,-0.01278418,-0.01467938,0.00054812,-0.00767805,0.00348005,-0.0
 0290419,0.00090374,-0.11685661,-0.04003878,0.01894705,-0.00478963,0.00
 365724,0.00108459,0.00088373,-0.00107438,0.00569196,-0.00657796,-0.020
 92737,-0.00871359,-0.00491465,0.01173737,0.00016877,-0.00140161,0.0120
 2996,0.00383475,0.00030391,-0.00032193,0.00042020,0.00001829,0.0001932
 9,-0.00024466,0.00114543,-0.00108749,0.00104115,-0.00075755,-0.0000181
 8,0.00010718,0.71623778,0.00399948,-0.02920267,-0.02053777,-0.00741653
 ,-0.00010928,-0.00409205,0.00727481,-0.00680553,0.00853623,-0.07241745
 ,-0.21272743,-0.04463956,-0.00022329,-0.00041820,0.00206764,-0.0015112
 1,0.00102020,-0.00292621,0.00413239,0.00241860,-0.00003490,-0.00407496
 ,0.00471754,-0.00191823,0.00685086,0.00631930,0.00974376,0.00013111,0.
 00017514,0.00024393,-0.00030374,0.00116716,-0.00170966,0.00013953,-0.0
 0033038,0.00048490,-0.00051474,0.00027938,-0.00097600,0.16386842,0.534
 94058,-0.01419767,-0.02497740,-0.00376608,0.00422372,-0.00143496,-0.00
 048476,-0.00034750,0.00172184,-0.00466512,-0.00033768,-0.06366077,-0.0
 9449249,-0.00204835,-0.00105522,-0.00235255,0.00593604,-0.00519376,-0.
 00235122,0.00663071,0.01956133,0.00206521,-0.00141247,-0.00369458,-0.0
 0335176,-0.00706047,0.00328758,0.00046213,0.00041235,-0.00036612,0.000
 21018,-0.00062930,0.00116718,-0.00152773,-0.00043794,0.00050449,0.0000
 1687,0.00048212,-0.00071402,0.00006634,-0.32280417,0.10182460,0.530960
 06,-0.01332674,0.01064090,0.00867635,0.00769497,0.00015635,0.00367178,
 -0.00468875,0.00161742,-0.00288047,-0.03226229,-0.05967930,0.00779724,
 0.00080062,-0.00174315,-0.00117283,0.00039693,0.00073586,-0.00066307,-
 0.00044730,-0.00442172,0.00086806,0.00237226,-0.00464928,-0.00013857,-
 0.00390270,-0.00561738,-0.00625481,-0.00014557,0.00010731,-0.00023762,
 -0.00013165,-0.00010081,0.00009675,-0.00047798,0.00061405,-0.00052394,
 0.00083561,-0.00019878,0.00052712,-0.51609638,-0.13760250,0.27864238,0
 .57818742,-0.00124388,-0.00125045,0.00178374,-0.00185362,0.00055199,-0
 .00078115,0.00082394,-0.00047354,-0.00147763,-0.04559549,-0.01354651,0
 .02017327,-0.00091200,-0.00104489,0.00058395,-0.00049264,0.00000170,0.
 00177598,-0.00423184,-0.00606825,-0.00279843,0.00027237,0.00150553,0.0
 0017618,-0.00457280,-0.00630213,0.00256889,0.00014016,-0.00014976,0.00
 005358,0.00001680,-0.00030882,0.00041447,0.00030847,-0.00001126,0.0000
 7928,0.00020505,-0.00008880,0.00046118,-0.15301444,-0.14212869,0.07146
 672,0.19707427,0.14504493,0.00364000,-0.00680170,-0.00624562,-0.005918
 52,0.00115244,-0.00210042,0.00124067,0.00140373,0.00147935,0.00733837,
 0.02181838,0.01789247,-0.00165247,0.00068274,0.00219469,-0.00159842,-0
 .00012622,0.00155483,0.00050792,-0.00272530,0.00216908,0.00048266,0.00
 422940,0.00070129,0.00231435,0.00241394,-0.00255944,-0.00017733,0.0002
 5573,0.00012320,0.00017336,-0.00023233,0.00034591,0.00048298,-0.000534
 50,0.00022495,-0.00058004,0.00058056,-0.00061131,0.27395358,0.06362295
 ,-0.24766829,-0.31912841,-0.08966511,0.24427062,-0.00002107,-0.0030256
 4,0.00017202,0.00022916,-0.00029685,-0.00006478,-0.00047314,0.00101920
 ,0.00063992,0.01254833,-0.01014478,-0.00587563,-0.00007524,-0.00032749
 ,-0.00020469,-0.00026743,-0.00006125,-0.00090230,-0.00013788,0.0015410
 4,0.00029730,-0.00017719,-0.00069960,0.00051270,0.00105192,0.00058887,
 -0.00046787,0.00005347,-0.00005888,0.00002221,0.00012122,-0.00001376,-
 0.00000155,-0.00002355,0.00003789,-0.00007102,-0.00012289,0.00012141,-
 0.00022951,-0.08034866,0.04226210,0.05030577,-0.02066180,0.01125968,0.
 04027777,0.08816480,-0.00413059,-0.00505711,-0.00095918,-0.00146847,0.
 00055968,-0.00040274,-0.00049404,0.00022437,-0.00081524,0.00832908,-0.
 00850708,-0.02348490,0.00002580,0.00043150,0.00006210,0.00092492,-0.00
 092703,-0.00116742,-0.00035856,-0.00010330,0.00070537,0.00044821,0.001
 07138,0.00047137,0.00002431,-0.00040579,-0.00051214,-0.00006994,0.0000
 5452,0.00000913,0.00015302,-0.00031806,0.00050812,0.00010134,-0.000102
 65,0.00003995,-0.00000254,0.00002869,0.00008978,0.03997418,-0.15300650
 ,-0.09925796,-0.00192489,0.02169005,0.00430608,-0.04175498,0.14401843,
 -0.00041075,-0.00107601,0.00245517,0.00093132,-0.00031870,0.00045014,-
 0.00002035,0.00064706,0.00034832,0.00736659,-0.00637603,0.00140419,0.0
 0058565,0.00053371,0.00039886,-0.00029613,0.00013591,-0.00025103,-0.00
 093625,-0.00056755,-0.00061079,0.00002907,-0.00082649,-0.00005467,-0.0
 0004954,-0.00047814,-0.00045821,0.00006327,-0.00004294,0.00002266,0.00
 010090,-0.00016552,0.00040330,-0.00008683,0.00006418,-0.00009198,-0.00
 010363,0.00020259,-0.00000817,0.04747469,-0.10666348,-0.17375594,0.029
 90546,-0.00550451,-0.01188994,-0.08444094,0.12007085,0.18154706,0.0009
 5353,-0.00271218,-0.00243114,-0.00282663,-0.00016770,0.00125327,-0.042
 73236,-0.04567042,-0.02099243,0.00112002,0.00071440,0.00178740,-0.0005
 2806,-0.00001038,-0.00024207,-0.00059471,0.00059021,-0.00043028,0.0002
 5112,0.00036680,0.00000125,0.00961128,-0.00298041,0.00039847,-0.143295
 30,-0.10411837,-0.05088513,0.00022157,0.00007694,0.00014958,0.00110903
 ,0.00143022,-0.00257223,0.00059818,0.00012127,-0.00031258,-0.00259714,
 -0.00201705,0.00464268,-0.00290164,-0.00465764,0.00256842,0.00448066,0
 .00193438,-0.00070274,0.00012163,0.00012577,0.00019718,0.40070158,-0.0
 0130164,0.00005831,-0.00222129,0.00122074,0.00421614,-0.00316820,-0.03
 060446,-0.01554742,-0.00701293,-0.00020069,0.00226870,-0.00158648,-0.0
 0028231,-0.00030309,-0.00015225,-0.00050338,0.00055314,-0.00029678,0.0
 0060045,0.00040874,0.00025288,-0.01602727,-0.02147296,-0.01669084,-0.0
 9341112,-0.17803496,-0.10504882,-0.00051862,-0.00047075,-0.00064187,0.
 00266479,-0.00204496,0.00156936,0.00003639,0.00052935,0.00025413,-0.00
 239722,0.00171070,-0.00040204,-0.00624284,-0.00796975,0.00181035,0.006
 44518,0.00335388,-0.00104751,-0.00046038,0.00039671,0.00026330,0.24457
 523,0.31729015,-0.00287156,0.00221207,-0.00001581,0.00885280,-0.001277
 86,-0.00058003,0.00221415,0.00850635,0.01505218,-0.00081912,0.00012310
 ,-0.00378715,0.00022541,-0.00031279,0.00018206,-0.00002678,0.00000350,
 0.00002195,0.00022396,-0.00003088,0.00031479,-0.02194332,-0.03489695,-
 0.01889443,-0.02140231,-0.07733927,-0.14151991,-0.00156932,-0.00071116
 ,-0.00106201,-0.00187644,0.00126604,-0.00073617,-0.00050224,0.00019938
 ,-0.00020964,0.00598382,-0.00077427,0.00191561,-0.00140296,-0.00259499
 ,0.00022353,0.00197839,0.00002679,0.00085928,-0.00012111,0.00023058,0.
 00027712,-0.06119989,0.07332269,0.29250067,0.00086392,0.00001400,0.000
 80587,-0.00171301,-0.00084084,0.00168535,0.00464247,-0.00119470,-0.000
 12731,-0.00043835,-0.00040811,0.00075264,0.00011602,0.00011152,-0.0000
 1477,0.00022493,-0.00018276,0.00018390,-0.00013591,-0.00013599,-0.0000
 4876,0.00385770,0.00564452,-0.00110669,-0.03328174,-0.02392744,0.00022
 626,0.00025168,0.00037048,0.00028167,-0.00029870,0.00027814,-0.0000946
 3,-0.00011110,-0.00044219,-0.00015649,-0.00002383,0.00010809,0.0003225
 1,0.00027373,0.00200109,-0.00159019,-0.00343278,-0.00101667,0.00063822
 ,-0.00009377,0.00003568,0.00000699,-0.16874455,-0.05968408,0.06383661,
 0.53969596,0.00047049,-0.00038706,0.00011904,-0.00147982,0.00008405,0.
 00094134,0.00109160,-0.00024331,-0.00240695,-0.00005480,-0.00102591,0.
 00083045,0.00010125,0.00010490,0.00005003,-0.00000778,-0.00004595,0.00
 004429,-0.00011920,-0.00000224,-0.00011847,0.00037375,0.00013374,0.000
 71766,-0.03022667,-0.02727920,0.01011484,0.00025266,0.00015262,0.00024
 337,0.00009373,-0.00046619,0.00075615,-0.00024244,-0.00009606,-0.00004
 302,-0.00095634,0.00127140,-0.00079187,0.00174436,0.00246319,-0.001205
 76,-0.00259794,-0.00085015,0.00082361,-0.00007852,-0.00000240,0.000077
 62,-0.05276638,-0.09716384,0.01566625,-0.02229044,0.59465324,-0.000835
 01,0.00056885,-0.00012996,0.00106730,0.00027451,0.00011276,-0.00191773
 ,-0.00408637,-0.00176733,0.00000834,0.00085880,-0.00168245,-0.00010267
 ,-0.00015543,-0.00006410,-0.00002996,0.00009297,-0.00004522,0.00022479
 ,0.00004258,0.00014364,-0.00505850,-0.00579395,-0.00149823,-0.01339156
 ,-0.00125419,0.01214299,-0.00016476,-0.00009054,-0.00020640,-0.0001301
 4,0.00041220,-0.00003625,0.00002639,0.00007070,0.00001660,-0.00107357,
 -0.00072761,0.00086285,-0.00252031,-0.00274992,0.00223537,0.00413646,0
 .00100774,-0.00085653,0.00023337,-0.00003338,-0.00017364,0.08872711,0.
 03539604,-0.13551083,0.05166759,0.04034033,0.60025808,0.00002685,-0.00
 003225,-0.00006960,0.00019130,0.00006884,-0.00038169,-0.00065524,-0.00
 124835,-0.00065202,0.00002786,0.00005417,0.00006349,-0.00001457,-0.000
 00704,-0.00000643,-0.00002352,0.00001904,-0.00001154,0.00001989,0.0000
 0581,0.00000718,-0.00038823,-0.00008347,0.00119984,-0.00175686,-0.0003
 4244,0.00354445,-0.00002022,-0.00005660,-0.00002398,0.00003209,-0.0000
 0288,0.00006199,0.00003140,0.00007606,0.00005559,-0.00041144,-0.000020
 13,0.00012868,0.00006229,-0.00032262,-0.00005984,-0.00006285,0.0003185
 4,0.00003864,-0.00005944,0.00001257,0.00006569,-0.02030547,-0.02837137
 ,-0.01401778,-0.07644456,-0.05745360,-0.05399193,0.09136113,0.00009645
 ,-0.00006882,-0.00004611,-0.00011288,0.00001195,-0.00009892,-0.0004300
 5,-0.00056549,-0.00037502,-0.00001546,0.00026131,0.00007673,-0.0000289
 5,-0.00000666,-0.00001498,-0.00000755,0.00001389,-0.00001541,0.0000130
 2,0.00001826,0.00000013,-0.00010133,0.00035290,0.00009414,-0.00007312,
 0.00107176,0.00243264,-0.00003622,-0.00000048,-0.00003131,0.00000048,0
 .00000307,0.00002576,0.00003230,-0.00003879,0.00003302,-0.00019525,0.0
 0001935,0.00003285,-0.00030662,-0.00042423,0.00009937,0.00043898,0.000
 08681,-0.00011389,-0.00000071,0.00001558,0.00000036,-0.01233985,-0.014
 09218,-0.00590362,-0.06302879,-0.19457068,-0.12203522,0.07799895,0.210
 39561,-0.00010926,0.00017241,0.00009416,-0.00003338,-0.00021306,0.0005
 5835,0.00051679,0.00057845,0.00052626,-0.00010204,-0.00000519,-0.00015
 301,0.00003569,-0.00001566,0.00002624,0.00001660,-0.00002104,0.0000139
 7,-0.00000539,-0.00002066,0.00001408,0.00057360,-0.00029384,-0.0010664
 2,0.00263231,0.00176685,-0.00125135,0.00004962,-0.00000446,0.00002050,
 -0.00004114,0.00000071,-0.00004832,-0.00014373,-0.00003416,-0.00010540
 ,0.00024179,-0.00000016,-0.00004988,0.00025349,0.00003261,-0.00028652,
 -0.00066978,0.00019607,0.00008979,-0.00005528,0.00000445,0.00008727,0.
 01200115,0.01899351,0.01226545,-0.06264984,-0.13102984,-0.16279107,0.0
 5664221,0.13272256,0.16714799,0.00004527,-0.00024537,-0.00017552,0.000
 09429,0.00006251,-0.00058371,-0.00151258,-0.00125073,-0.00027636,0.000
 23970,-0.00032809,0.00025802,-0.00002562,0.00002867,-0.00000404,-0.000
 05622,0.00003711,-0.00003618,0.00001125,-0.00000218,0.00000886,0.00001
 014,-0.00062689,0.00028702,0.00342537,0.00659592,0.00300195,-0.0000366
 6,-0.00005192,-0.00003920,0.00012720,0.00019021,-0.00027785,0.00010814
 ,0.00011365,0.00001072,0.00001533,-0.00034063,0.00033909,0.00054558,0.
 00031851,0.00001716,-0.00055816,0.00002063,-0.00005322,-0.00000110,-0.
 00003013,-0.00001868,-0.03251121,0.00471243,0.01297553,-0.18005651,0.1
 2528128,0.02271186,0.01038853,-0.00676068,-0.00159803,0.20595182,0.000
 60358,-0.00037479,-0.00006852,-0.00079227,-0.00050653,0.00018330,-0.00
 049271,-0.00031580,0.00016247,0.00002544,0.00033046,0.00050014,-0.0000
 4259,0.00002396,-0.00004020,0.00001179,0.00001319,0.00000589,-0.000018
 92,0.00004069,-0.00002576,0.00120114,0.00050748,-0.00141305,0.00051442
 ,0.00262788,0.00042024,-0.00001827,0.00005646,-0.00001218,-0.00001899,
 0.00008521,-0.00010892,0.00001886,-0.00022235,-0.00008827,0.00003699,-
 0.00014055,0.00013402,-0.00047619,-0.00043594,0.00021366,0.00076907,0.
 00019887,0.00009242,-0.00000066,-0.00001138,0.00001972,-0.01746753,0.0
 1573367,0.00393566,0.12981775,-0.17943676,-0.02565690,0.01692347,-0.01
 467550,-0.00144253,-0.13603433,0.18479747,0.00000483,-0.00000132,0.000
 09945,-0.00001655,-0.00008681,0.00001275,0.00035401,0.00042851,-0.0000
 6887,-0.00002722,-0.00050658,0.00018750,0.00002778,0.00004132,0.000021
 26,0.00000567,-0.00002689,0.00001526,-0.00003577,-0.00003790,-0.000017
 27,-0.00020227,0.00064344,0.00033907,-0.00210916,-0.00265993,-0.001185
 15,-0.00000977,0.00005420,0.00003012,-0.00004417,-0.00011093,0.0001231
 5,0.00005783,-0.00003477,0.00001397,0.00002496,0.00012735,-0.00006758,
 0.00094167,0.00096635,-0.00065985,-0.00168639,-0.00034556,0.00009871,-
 0.00005458,0.00001965,0.00002291,0.02203905,-0.00649735,-0.00567475,0.
 02331533,-0.02394012,-0.05919021,0.01485176,-0.01444364,-0.00171206,-0
 .03639868,0.02806252,0.06066614,0.00093258,-0.00062012,-0.00045794,-0.
 00099697,-0.00011103,-0.00052770,-0.00185235,-0.00019618,-0.00031183,0
 .00025949,0.00120275,0.00100189,-0.00010910,-0.00000242,-0.00012136,-0
 .00000981,0.00006525,-0.00003466,0.00005572,0.00019658,-0.00004592,0.0
 0017326,-0.00009650,-0.00048004,0.00510927,0.00305279,0.00308811,0.000
 05804,-0.00007686,0.00000322,0.00018997,-0.00013406,0.00008776,-0.0000
 3784,-0.00003105,0.00000045,-0.00006786,0.00005672,-0.00006185,-0.0027
 7313,-0.00176799,0.00124177,0.00097758,0.00046294,-0.00124750,0.000175
 66,-0.00002005,-0.00015249,-0.00023258,-0.02000690,0.03233353,-0.08425
 487,0.04086008,-0.08764607,-0.00222482,0.00475139,-0.00678043,-0.00538
 734,0.00732822,-0.01985063,0.09015167,0.00039087,-0.00058178,-0.000248
 41,-0.00061748,0.00027139,-0.00086877,-0.00137398,-0.00002532,-0.00033
 553,0.00014483,-0.00010632,0.00065763,-0.00009835,0.00004645,-0.000050
 11,-0.00005349,0.00007431,-0.00005623,-0.00005085,0.00001983,-0.000068
 26,0.00002015,0.00012080,0.00061674,0.00366520,0.00260579,0.00259112,0
 .00000138,-0.00004414,0.00002623,0.00016364,-0.00007171,0.00002331,0.0
 0018818,0.00002215,0.00007612,-0.00004405,0.00001928,-0.00002883,0.000
 01746,-0.00018671,0.00009633,0.00032234,0.00009050,0.00005919,0.000022
 16,0.00005934,-0.00013152,-0.00529871,-0.00850484,0.01556830,0.0360077
 4,-0.09545515,0.08628031,-0.00796536,0.01233436,-0.02130302,0.00852161
 ,-0.00775302,0.01872532,-0.03426584,0.09901275,0.00010480,-0.00004670,
 0.00016355,-0.00031672,-0.00013403,0.00010151,0.00040392,0.00018254,0.
 00018166,0.00001586,-0.00036192,0.00041492,0.00000432,0.00003692,-0.00
 000171,0.00003716,-0.00003123,0.00000575,-0.00002153,-0.00003396,-0.00
 001016,0.00034369,0.00005639,-0.00000137,-0.00226164,-0.00351415,-0.00
 115144,0.00007417,-0.00001167,0.00005652,-0.00015697,0.00007614,-0.000
 04695,-0.00008708,-0.00000350,-0.00003548,0.00011230,-0.00005526,0.000
 09227,0.00068149,0.00080321,-0.00057765,-0.00220651,-0.00030846,-0.000
 32835,0.00004247,0.00005104,-0.00011632,0.00776262,0.01281944,-0.01650
 874,-0.07854975,0.08937179,-0.25040828,-0.00702511,0.00735421,-0.01374
 757,0.00135298,-0.00413050,0.00765607,0.07981715,-0.10134215,0.2739085
 2,-0.00101491,0.00094699,0.00022484,-0.00975759,-0.00831955,0.01078066
 ,0.00182458,-0.00081101,0.00219218,0.00006854,-0.00104361,-0.00092969,
 -0.00008751,0.00006803,-0.00007807,0.00010507,-0.00005048,0.00004593,0
 .00009805,-0.00002242,0.00004374,-0.23727206,-0.09455696,0.11453235,-0
 .00297492,-0.00203859,0.00470324,-0.00099979,0.00246483,-0.00146934,-0
 .00036936,-0.00007621,-0.00019798,0.00171750,-0.00319984,-0.00096473,-
 0.00000735,0.00008856,-0.00011943,0.00005974,-0.00016562,0.00046513,0.
 00044890,0.00009616,-0.00002986,-0.00000304,0.00009932,-0.00021122,-0.
 00189896,-0.00024293,-0.00087136,-0.00089672,-0.00199529,-0.00194099,0
 .00022591,0.00010589,-0.00077495,-0.00081723,-0.00188827,-0.00118770,-
 0.00013659,0.00030255,-0.00012761,0.25168775,0.00082017,-0.00154685,-0
 .00038226,-0.01762030,-0.00483009,0.00804308,-0.00151536,0.00033235,-0
 .00310360,0.00041795,0.00069544,0.00060926,-0.00020384,0.00004318,0.00
 002769,-0.00007445,0.00027134,-0.00008674,-0.00002079,-0.00003100,-0.0
 0001053,-0.09833781,-0.08177389,0.04752503,0.01008298,0.00751318,-0.00
 705702,0.00296122,-0.00218756,0.00192149,0.00082899,0.00003282,-0.0000
 8629,-0.00598022,0.00193039,-0.00348308,0.00012294,-0.00017652,-0.0000
 8221,-0.00000888,0.00024422,-0.00019290,-0.00038597,-0.00030104,-0.000
 19460,0.00007115,-0.00010895,0.00013556,0.00027142,-0.00091471,0.00278
 108,-0.00123700,-0.00183824,-0.00276151,0.00042867,-0.00014203,-0.0000
 8402,-0.00021159,-0.00054272,-0.00037688,-0.00064773,-0.00194793,-0.00
 077812,0.11023844,0.08527861,-0.00167745,0.00166664,0.00049949,-0.0123
 4854,-0.00917792,0.01256202,0.00144864,-0.00498959,-0.00366048,-0.0003
 2158,-0.00086219,-0.00157225,0.00021968,0.00002544,0.00006188,0.000213
 83,-0.00018530,0.00011904,0.00003450,-0.00008851,0.00002846,0.11651418
 ,0.04356662,-0.12389907,0.02374917,0.01431142,-0.00544602,-0.00123238,
 0.00158678,0.00000045,0.00140803,0.00019536,-0.00041042,-0.00066280,-0
 .00336239,-0.00063689,-0.00023089,0.00028370,0.00006941,0.00064362,0.0
 0051660,-0.00029972,-0.00073760,0.00011300,0.00025574,-0.00001429,0.00
 006448,-0.00000631,-0.00175969,0.00008468,0.00088682,0.00061551,-0.000
 56075,-0.00141180,-0.00041960,0.00020635,0.00036754,-0.00150174,-0.000
 74318,-0.00071061,0.00014455,-0.00028779,0.00035325,-0.12408515,-0.042
 36342,0.12284949\\0.00001432,-0.00000561,0.00000804,-0.00001971,0.0000
 2126,0.00001030,-0.00000337,0.00001975,-0.00002092,0.00000450,0.000000
 66,0.00000801,-0.00000359,0.00000705,0.00000086,0.00000442,0.00000271,
 -0.00001047,-0.00000926,0.00000928,-0.00001322,0.00005790,-0.00003361,
 0.00001752,0.00007093,0.00009123,0.00008186,-0.00000159,-0.00001553,0.
 00000504,-0.00000463,0.00000844,-0.00000560,0.00000056,0.00000079,0.00
 000380,0.00000438,-0.00000842,0.00000879,-0.00000620,0.00000006,0.0000
 0535,-0.00000491,0.00000518,-0.00000871,0.00000486,-0.00000147,0.00000
 318,-0.00008645,-0.00011691,-0.00002636,-0.00001570,-0.00002683,-0.000
 02128,0.00001793,-0.00001598,0.00000794,-0.00000718,-0.00000647,-0.000
 01555,-0.00001171,0.00000060,-0.00002003,-0.00000550,0.00006383,-0.000
 01856\\\@
 The archive entry for this job was punched.


 Sometimes the fool who rushes in gets the job done.
                                    -- Al Bernstein
 Job cpu time:       0 days  0 hours 25 minutes 14.9 seconds.
 Elapsed time:       0 days  0 hours  1 minutes 37.9 seconds.
 File lengths (MBytes):  RWF=     84 Int=      0 D2E=      0 Chk=      4 Scr=      1
 Normal termination of Gaussian 16 at Tue Jun 21 10:47:50 2022.
