Job Start Time: Tue Jun 21 11:05:28 MDT 2022
SLURM Job ID: 40881
SLURM Job Name: DATS_13_endo_iv
 Entering Gaussian System, Link 0=/opt/apps/Gaussian/G16C/g16/g16
 Initial command:
 /opt/apps/Gaussian/G16C/g16/l1.exe "/tmp/Gau-2599689.inp" -scrdir="/tmp/"
 Entering Link 1 = /opt/apps/Gaussian/G16C/g16/l1.exe PID=   2599690.
  
 Copyright (c) 1988-2019, Gaussian, Inc.  All Rights Reserved.
  
 This is part of the Gaussian(R) 16 program.  It is based on
 the Gaussian(R) 09 system (copyright 2009, Gaussian, Inc.),
 the Gaussian(R) 03 system (copyright 2003, Gaussian, Inc.),
 the Gaussian(R) 98 system (copyright 1998, Gaussian, Inc.),
 the Gaussian(R) 94 system (copyright 1995, Gaussian, Inc.),
 the Gaussian 92(TM) system (copyright 1992, Gaussian, Inc.),
 the Gaussian 90(TM) system (copyright 1990, Gaussian, Inc.),
 the Gaussian 88(TM) system (copyright 1988, Gaussian, Inc.),
 the Gaussian 86(TM) system (copyright 1986, Carnegie Mellon
 University), and the Gaussian 82(TM) system (copyright 1983,
 Carnegie Mellon University). Gaussian is a federally registered
 trademark of Gaussian, Inc.
  
 This software contains proprietary and confidential information,
 including trade secrets, belonging to Gaussian, Inc.
  
 This software is provided under written license and may be
 used, copied, transmitted, or stored only in accord with that
 written license.
  
 The following legend is applicable only to US Government
 contracts under FAR:
  
                    RESTRICTED RIGHTS LEGEND
  
 Use, reproduction and disclosure by the US Government is
 subject to restrictions as set forth in subparagraphs (a)
 and (c) of the Commercial Computer Software - Restricted
 Rights clause in FAR 52.227-19.
  
 Gaussian, Inc.
 340 Quinnipiac St., Bldg. 40, Wallingford CT 06492
  
  
 ---------------------------------------------------------------
 Warning -- This program may not be used in any manner that
 competes with the business of Gaussian, Inc. or will provide
 assistance to any competitor of Gaussian, Inc.  The licensee
 of this program is prohibited from giving any competitor of
 Gaussian, Inc. access to this program.  By using this program,
 the user acknowledges that Gaussian, Inc. is engaged in the
 business of creating and licensing software in the field of
 computational chemistry and represents and warrants to the
 licensee that it is not a competitor of Gaussian, Inc. and that
 it will not use this program in any manner prohibited above.
 ---------------------------------------------------------------
  

 Cite this work as:
 Gaussian 16, Revision C.01,
 M. J. Frisch, G. W. Trucks, H. B. Schlegel, G. E. Scuseria, 
 M. A. Robb, J. R. Cheeseman, G. Scalmani, V. Barone, 
 G. A. Petersson, H. Nakatsuji, X. Li, M. Caricato, A. V. Marenich, 
 J. Bloino, B. G. Janesko, R. Gomperts, B. Mennucci, H. P. Hratchian, 
 J. V. Ortiz, A. F. Izmaylov, J. L. Sonnenberg, D. Williams-Young, 
 F. Ding, F. Lipparini, F. Egidi, J. Goings, B. Peng, A. Petrone, 
 T. Henderson, D. Ranasinghe, V. G. Zakrzewski, J. Gao, N. Rega, 
 G. Zheng, W. Liang, M. Hada, M. Ehara, K. Toyota, R. Fukuda, 
 J. Hasegawa, M. Ishida, T. Nakajima, Y. Honda, O. Kitao, H. Nakai, 
 T. Vreven, K. Throssell, J. A. Montgomery, Jr., J. E. Peralta, 
 F. Ogliaro, M. J. Bearpark, J. J. Heyd, E. N. Brothers, K. N. Kudin, 
 V. N. Staroverov, T. A. Keith, R. Kobayashi, J. Normand, 
 K. Raghavachari, A. P. Rendell, J. C. Burant, S. S. Iyengar, 
 J. Tomasi, M. Cossi, J. M. Millam, M. Klene, C. Adamo, R. Cammi, 
 J. W. Ochterski, R. L. Martin, K. Morokuma, O. Farkas, 
 J. B. Foresman, and D. J. Fox, Gaussian, Inc., Wallingford CT, 2019.
 
 ******************************************
 Gaussian 16:  AS64L-G16RevC.01  3-Jul-2019
                21-Jun-2022 
 ******************************************
 %chk=DATS_13_endo_iv.chk
 %nprocshared=16
 Will use up to   16 processors via shared memory.
 -------------------------------------------------
 # opt=(calcfc,ts,noeigentest) freq 6-31g(d) m062x
 -------------------------------------------------
 1/5=1,10=4,11=1,18=20,26=3,38=1/1,3;
 2/9=110,12=2,17=6,18=5,40=1/2;
 3/5=1,6=6,7=1,11=2,25=1,30=1,71=2,74=-55,140=1/1,2,3;
 4//1;
 5/5=2,38=5/2;
 8/6=4,10=90,11=11/1;
 11/6=1,8=1,9=11,15=111,16=1/1,2,10;
 10/6=1,13=1/2;
 6/7=2,8=2,9=2,10=2,28=1/1;
 7/10=1,25=1/1,2,3,16;
 1/5=1,10=4,11=1,18=20,26=3/3(2);
 2/9=110/2;
 99//99;
 2/9=110/2;
 3/5=1,6=6,7=1,11=2,25=1,30=1,71=1,74=-55/1,2,3;
 4/5=5,16=3,69=1/1;
 5/5=2,38=5/2;
 7//1,2,3,16;
 1/5=1,11=1,18=20,26=3/3(-5);
 2/9=110/2;
 6/7=2,8=2,9=2,10=2,19=2,28=1/1;
 99/9=1/99;
 -------------------
 Title Card Required
 -------------------
 Symbolic Z-matrix:
 Charge =  0 Multiplicity = 1
 C                     1.58909   1.38748  -0.72735 
 C                    -0.26033   2.30678   0.02638 
 C                     0.02423  -0.10556   1.50047 
 C                     1.87317   0.27199   0.03416 
 H                     1.1897    1.2548   -1.72851 
 H                     2.13477   2.31077  -0.56271 
 H                     2.55602   0.32493   0.87752 
 C                    -1.17458   1.28468  -0.0917 
 C                    -1.02293   0.07497   0.62917 
 H                    -0.36432   3.18463  -0.60443 
 H                     0.19621  -1.09001   1.92225 
 H                     0.27709   2.47509   0.95227 
 H                     0.46709   0.73724   2.01103 
 C                     1.6135   -1.07384  -0.50421 
 O                     2.13548  -2.09465  -0.11809 
 H                     0.8759   -1.08512  -1.34063 
 O                    -1.76326  -1.03992   0.35652 
 H                    -1.87815   1.32274  -0.91684 
 C                    -1.54272  -2.19898   1.12731 
 H                    -0.53002  -2.59508   0.9838 
 H                    -1.70882  -2.01128   2.19594 
 H                    -2.26611  -2.93444   0.77555 
 
 Add virtual bond connecting atoms C2         and C1         Dist= 4.15D+00.

 GradGradGradGradGradGradGradGradGradGradGradGradGradGradGradGradGradGrad
 Berny optimization.
 Initialization pass.
                           ----------------------------
                           !    Initial Parameters    !
                           ! (Angstroms and Degrees)  !
 --------------------------                            --------------------------
 ! Name  Definition              Value          Derivative Info.                !
 --------------------------------------------------------------------------------
 ! R1    R(1,2)                  2.1985         calculate D2E/DX2 analytically  !
 ! R2    R(1,4)                  1.3802         calculate D2E/DX2 analytically  !
 ! R3    R(1,5)                  1.086          calculate D2E/DX2 analytically  !
 ! R4    R(1,6)                  1.085          calculate D2E/DX2 analytically  !
 ! R5    R(2,8)                  1.3764         calculate D2E/DX2 analytically  !
 ! R6    R(2,10)                 1.086          calculate D2E/DX2 analytically  !
 ! R7    R(2,12)                 1.0837         calculate D2E/DX2 analytically  !
 ! R8    R(3,9)                  1.3742         calculate D2E/DX2 analytically  !
 ! R9    R(3,11)                 1.0847         calculate D2E/DX2 analytically  !
 ! R10   R(3,13)                 1.0803         calculate D2E/DX2 analytically  !
 ! R11   R(4,7)                  1.0864         calculate D2E/DX2 analytically  !
 ! R12   R(4,14)                 1.4726         calculate D2E/DX2 analytically  !
 ! R13   R(8,9)                  1.4163         calculate D2E/DX2 analytically  !
 ! R14   R(8,18)                 1.085          calculate D2E/DX2 analytically  !
 ! R15   R(9,17)                 1.3658         calculate D2E/DX2 analytically  !
 ! R16   R(14,15)                1.2098         calculate D2E/DX2 analytically  !
 ! R17   R(14,16)                1.1153         calculate D2E/DX2 analytically  !
 ! R18   R(17,19)                1.4093         calculate D2E/DX2 analytically  !
 ! R19   R(19,20)                1.0968         calculate D2E/DX2 analytically  !
 ! R20   R(19,21)                1.0976         calculate D2E/DX2 analytically  !
 ! R21   R(19,22)                1.0899         calculate D2E/DX2 analytically  !
 ! A1    A(2,1,4)              108.7799         calculate D2E/DX2 analytically  !
 ! A2    A(2,1,5)               93.3115         calculate D2E/DX2 analytically  !
 ! A3    A(2,1,6)               90.872          calculate D2E/DX2 analytically  !
 ! A4    A(4,1,5)              119.0507         calculate D2E/DX2 analytically  !
 ! A5    A(4,1,6)              120.0328         calculate D2E/DX2 analytically  !
 ! A6    A(5,1,6)              115.3908         calculate D2E/DX2 analytically  !
 ! A7    A(1,2,8)              102.6408         calculate D2E/DX2 analytically  !
 ! A8    A(1,2,10)             102.6748         calculate D2E/DX2 analytically  !
 ! A9    A(1,2,12)              86.5998         calculate D2E/DX2 analytically  !
 ! A10   A(8,2,10)             119.1329         calculate D2E/DX2 analytically  !
 ! A11   A(8,2,12)             121.1996         calculate D2E/DX2 analytically  !
 ! A12   A(10,2,12)            114.722          calculate D2E/DX2 analytically  !
 ! A13   A(9,3,11)             119.1169         calculate D2E/DX2 analytically  !
 ! A14   A(9,3,13)             120.634          calculate D2E/DX2 analytically  !
 ! A15   A(11,3,13)            117.3397         calculate D2E/DX2 analytically  !
 ! A16   A(1,4,7)              121.2171         calculate D2E/DX2 analytically  !
 ! A17   A(1,4,14)             120.042          calculate D2E/DX2 analytically  !
 ! A18   A(7,4,14)             116.0504         calculate D2E/DX2 analytically  !
 ! A19   A(2,8,9)              121.2963         calculate D2E/DX2 analytically  !
 ! A20   A(2,8,18)             118.0274         calculate D2E/DX2 analytically  !
 ! A21   A(9,8,18)             119.1069         calculate D2E/DX2 analytically  !
 ! A22   A(3,9,8)              121.0987         calculate D2E/DX2 analytically  !
 ! A23   A(3,9,17)             115.6197         calculate D2E/DX2 analytically  !
 ! A24   A(8,9,17)             122.5177         calculate D2E/DX2 analytically  !
 ! A25   A(4,14,15)            125.3368         calculate D2E/DX2 analytically  !
 ! A26   A(4,14,16)            113.5819         calculate D2E/DX2 analytically  !
 ! A27   A(15,14,16)           121.0774         calculate D2E/DX2 analytically  !
 ! A28   A(9,17,19)            118.5119         calculate D2E/DX2 analytically  !
 ! A29   A(17,19,20)           111.7106         calculate D2E/DX2 analytically  !
 ! A30   A(17,19,21)           111.6018         calculate D2E/DX2 analytically  !
 ! A31   A(17,19,22)           105.9373         calculate D2E/DX2 analytically  !
 ! A32   A(20,19,21)           109.1992         calculate D2E/DX2 analytically  !
 ! A33   A(20,19,22)           109.08           calculate D2E/DX2 analytically  !
 ! A34   A(21,19,22)           109.2186         calculate D2E/DX2 analytically  !
 ! D1    D(4,1,2,8)            -58.217          calculate D2E/DX2 analytically  !
 ! D2    D(4,1,2,10)           177.6005         calculate D2E/DX2 analytically  !
 ! D3    D(4,1,2,12)            63.0147         calculate D2E/DX2 analytically  !
 ! D4    D(5,1,2,8)             64.0199         calculate D2E/DX2 analytically  !
 ! D5    D(5,1,2,10)           -60.1626         calculate D2E/DX2 analytically  !
 ! D6    D(5,1,2,12)          -174.7484         calculate D2E/DX2 analytically  !
 ! D7    D(6,1,2,8)            179.5152         calculate D2E/DX2 analytically  !
 ! D8    D(6,1,2,10)            55.3327         calculate D2E/DX2 analytically  !
 ! D9    D(6,1,2,12)           -59.2531         calculate D2E/DX2 analytically  !
 ! D10   D(2,1,4,7)            -95.3409         calculate D2E/DX2 analytically  !
 ! D11   D(2,1,4,14)           103.9788         calculate D2E/DX2 analytically  !
 ! D12   D(5,1,4,7)            159.6679         calculate D2E/DX2 analytically  !
 ! D13   D(5,1,4,14)            -1.0125         calculate D2E/DX2 analytically  !
 ! D14   D(6,1,4,7)              7.0833         calculate D2E/DX2 analytically  !
 ! D15   D(6,1,4,14)          -153.597          calculate D2E/DX2 analytically  !
 ! D16   D(1,2,8,9)             62.3915         calculate D2E/DX2 analytically  !
 ! D17   D(1,2,8,18)          -103.1933         calculate D2E/DX2 analytically  !
 ! D18   D(10,2,8,9)           174.876          calculate D2E/DX2 analytically  !
 ! D19   D(10,2,8,18)            9.2911         calculate D2E/DX2 analytically  !
 ! D20   D(12,2,8,9)           -31.3217         calculate D2E/DX2 analytically  !
 ! D21   D(12,2,8,18)          163.0934         calculate D2E/DX2 analytically  !
 ! D22   D(11,3,9,8)          -170.9211         calculate D2E/DX2 analytically  !
 ! D23   D(11,3,9,17)           -0.6894         calculate D2E/DX2 analytically  !
 ! D24   D(13,3,9,8)            28.8909         calculate D2E/DX2 analytically  !
 ! D25   D(13,3,9,17)         -160.8774         calculate D2E/DX2 analytically  !
 ! D26   D(1,4,14,15)          158.5591         calculate D2E/DX2 analytically  !
 ! D27   D(1,4,14,16)          -20.723          calculate D2E/DX2 analytically  !
 ! D28   D(7,4,14,15)           -3.0843         calculate D2E/DX2 analytically  !
 ! D29   D(7,4,14,16)          177.6336         calculate D2E/DX2 analytically  !
 ! D30   D(2,8,9,3)              1.8076         calculate D2E/DX2 analytically  !
 ! D31   D(2,8,9,17)          -167.7396         calculate D2E/DX2 analytically  !
 ! D32   D(18,8,9,3)           167.2405         calculate D2E/DX2 analytically  !
 ! D33   D(18,8,9,17)           -2.3067         calculate D2E/DX2 analytically  !
 ! D34   D(3,9,17,19)            9.921          calculate D2E/DX2 analytically  !
 ! D35   D(8,9,17,19)          180.0            calculate D2E/DX2 analytically  !
 ! D36   D(9,17,19,20)         -64.1356         calculate D2E/DX2 analytically  !
 ! D37   D(9,17,19,21)          58.4364         calculate D2E/DX2 analytically  !
 ! D38   D(9,17,19,22)         177.2044         calculate D2E/DX2 analytically  !
 --------------------------------------------------------------------------------
 Trust Radius=3.00D-01 FncErr=1.00D-07 GrdErr=1.00D-06 EigMax=2.50D+02 EigMin=1.00D-04
 Number of steps in this run=    103 maximum allowed number of steps=    132.
 Search for a saddle point of order  1.
 GradGradGradGradGradGradGradGradGradGradGradGradGradGradGradGradGradGrad

                          Input orientation:                          
 ---------------------------------------------------------------------
 Center     Atomic      Atomic             Coordinates (Angstroms)
 Number     Number       Type             X           Y           Z
 ---------------------------------------------------------------------
      1          6           0        1.589092    1.387480   -0.727350
      2          6           0       -0.260329    2.306782    0.026375
      3          6           0        0.024230   -0.105556    1.500473
      4          6           0        1.873167    0.271990    0.034163
      5          1           0        1.189696    1.254797   -1.728506
      6          1           0        2.134766    2.310767   -0.562707
      7          1           0        2.556017    0.324929    0.877517
      8          6           0       -1.174583    1.284680   -0.091701
      9          6           0       -1.022933    0.074972    0.629168
     10          1           0       -0.364317    3.184634   -0.604432
     11          1           0        0.196211   -1.090010    1.922246
     12          1           0        0.277085    2.475093    0.952267
     13          1           0        0.467088    0.737239    2.011032
     14          6           0        1.613495   -1.073839   -0.504208
     15          8           0        2.135484   -2.094646   -0.118086
     16          1           0        0.875897   -1.085119   -1.340632
     17          8           0       -1.763259   -1.039920    0.356521
     18          1           0       -1.878150    1.322744   -0.916836
     19          6           0       -1.542724   -2.198981    1.127310
     20          1           0       -0.530024   -2.595076    0.983798
     21          1           0       -1.708819   -2.011278    2.195939
     22          1           0       -2.266112   -2.934439    0.775548
 ---------------------------------------------------------------------
                    Distance matrix (angstroms):
                    1          2          3          4          5
     1  C    0.000000
     2  C    2.198539   0.000000
     3  C    3.105019   2.841358   0.000000
     4  C    1.380188   2.948261   2.389806   0.000000
     5  H    1.086018   2.507758   3.692584   2.130738   0.000000
     6  H    1.085047   2.466478   3.814406   2.140397   1.835025
     7  H    2.153963   3.547392   2.642600   1.086431   3.085910
     8  C    2.837696   1.376406   2.430006   3.214057   2.875733
     9  C    3.222653   2.434317   1.374159   2.963147   3.441851
    10  H    2.657194   1.085981   3.925168   3.727953   2.720803
    11  H    3.885670   3.916753   1.084721   2.869161   4.451193
    12  H    2.392776   1.083706   2.650324   2.871246   3.083590
    13  H    3.029924   2.632767   1.080323   2.470127   3.843719
    14  C    2.471534   3.901453   2.735339   1.472592   2.664781
    15  O    3.577003   5.013318   3.321687   2.385992   3.834936
    16  H    2.645469   3.829453   3.123581   2.174018   2.392514
    17  O    4.278470   3.683505   2.318788   3.879255   4.281706
    18  H    3.473019   2.115496   3.391530   4.010095   3.174130
    19  C    5.109866   4.812327   2.641405   4.355339   5.248846
    20  H    4.824876   5.001760   2.602279   3.859689   5.013536
    21  H    5.565374   5.044876   2.668128   4.766258   5.871108
    22  H    5.983333   5.661697   3.711301   5.288144   5.980183
                    6          7          8          9         10
     6  H    0.000000
     7  H    2.489026   0.000000
     8  C    3.496640   3.972138   0.000000
     9  C    4.048507   3.596253   1.416349   0.000000
    10  H    2.647792   4.347693   2.128203   3.409625   0.000000
    11  H    4.636623   2.943161   3.402089   2.124981   4.997087
    12  H    2.402733   3.134059   2.148090   2.748640   1.827062
    13  H    3.446922   2.412153   2.723281   2.137360   3.677177
    14  C    3.425011   2.180382   3.675072   3.091126   4.696422
    15  O    4.427793   2.649984   4.730442   3.904002   5.861428
    16  H    3.704316   3.119491   3.373462   2.971780   4.506763
    17  O    5.221751   4.559649   2.439510   1.365798   4.552727
    18  H    4.147902   4.886428   1.085036   2.162975   2.419901
    19  C    6.059531   4.819979   3.709098   2.385202   5.776753
    20  H    5.793106   4.249867   4.077335   2.738225   5.996247
    21  H    6.408069   5.038346   4.047474   2.697712   6.053699
    22  H    6.976448   5.821237   4.443480   3.259367   6.554709
                   11         12         13         14         15
    11  H    0.000000
    12  H    3.695586   0.000000
    13  H    1.849350   2.043825   0.000000
    14  C    2.810095   4.062294   3.304646   0.000000
    15  O    2.988817   5.047952   3.916154   1.209797   0.000000
    16  H    3.332922   4.276806   3.836895   1.115250   2.024925
    17  O    2.508690   4.107704   3.296991   3.484892   4.066681
    18  H    4.264357   3.076767   3.796758   4.255051   5.331586
    19  C    2.210347   5.018895   3.666292   3.726863   3.884728
    20  H    1.916592   5.134104   3.626812   3.020430   2.927373
    21  H    2.133725   5.061429   3.510429   4.382620   4.487798
    22  H    3.283271   5.980143   4.741099   4.488981   4.569231
                   16         17         18         19         20
    16  H    0.000000
    17  O    3.138075   0.000000
    18  H    3.682687   2.686414   0.000000
    19  C    3.630585   1.409316   4.085779   0.000000
    20  H    3.107983   2.081551   4.558417   1.096835   0.000000
    21  H    4.477261   2.080855   4.564400   1.097629   1.788760
    22  H    4.215497   2.004406   4.597639   1.089919   1.781161
                   21         22
    21  H    0.000000
    22  H    1.783343   0.000000
 Stoichiometry    C8H12O2
 Framework group  C1[X(C8H12O2)]
 Deg. of freedom    60
 Full point group                 C1      NOp   1
 Largest Abelian subgroup         C1      NOp   1
 Largest concise Abelian subgroup C1      NOp   1
                         Standard orientation:                         
 ---------------------------------------------------------------------
 Center     Atomic      Atomic             Coordinates (Angstroms)
 Number     Number       Type             X           Y           Z
 ---------------------------------------------------------------------
      1          6           0       -2.299239    0.226139   -0.274332
      2          6           0       -1.679722   -1.847672    0.111774
      3          6           0        0.408798   -0.239026    1.171802
      4          6           0       -1.399124    1.078944    0.331833
      5          1           0       -2.264319    0.102304   -1.352701
      6          1           0       -3.264934    0.040543    0.184267
      7          1           0       -1.587644    1.485845    1.321391
      8          6           0       -0.409385   -1.885898   -0.416694
      9          6           0        0.627198   -1.070575    0.099822
     10          1           0       -2.467701   -2.424203   -0.363679
     11          1           0        1.174552    0.477713    1.448434
     12          1           0       -1.844975   -1.633520    1.161178
     13          1           0       -0.332549   -0.485815    1.917857
     14          6           0       -0.395206    1.788623   -0.478743
     15          8           0        0.181759    2.799878   -0.149984
     16          1           0       -0.203814    1.312642   -1.468992
     17          8           0        1.819014   -0.901591   -0.545486
     18          1           0       -0.271716   -2.368314   -1.378788
     19          6           0        2.791982   -0.070614    0.045262
     20          1           0        2.452532    0.970495    0.107816
     21          1           0        3.067825   -0.421214    1.048147
     22          1           0        3.664751   -0.122300   -0.605528
 ---------------------------------------------------------------------
 Rotational constants (GHZ):           1.4332680           1.3138623           0.7818304
 Standard basis: 6-31G(d) (6D, 7F)
 There are   174 symmetry adapted cartesian basis functions of A   symmetry.
 There are   174 symmetry adapted basis functions of A   symmetry.
   174 basis functions,   328 primitive gaussians,   174 cartesian basis functions
    38 alpha electrons       38 beta electrons
       nuclear repulsion energy       534.7291649757 Hartrees.
 NAtoms=   22 NActive=   22 NUniq=   22 SFac= 1.00D+00 NAtFMM=   60 NAOKFM=F Big=F
 Integral buffers will be    131072 words long.
 Raffenetti 2 integral format.
 Two-electron integral symmetry is turned on.
 One-electron integrals computed using PRISM.
 NBasis=   174 RedAO= T EigKep=  1.84D-03  NBF=   174
 NBsUse=   174 1.00D-06 EigRej= -1.00D+00 NBFU=   174
 ExpMin= 1.61D-01 ExpMax= 5.48D+03 ExpMxC= 8.25D+02 IAcc=3 IRadAn=         5 AccDes= 0.00D+00
 Harris functional with IExCor= 1009 and IRadAn=       5 diagonalized for initial guess.
 HarFok:  IExCor= 1009 AccDes= 0.00D+00 IRadAn=         5 IDoV= 1 UseB2=F ITyADJ=14
 ICtDFT=  3500011 ScaDFX=  1.000000  1.000000  1.000000  1.000000
 FoFCou: FMM=F IPFlag=           0 FMFlag=      100000 FMFlg1=           0
         NFxFlg=           0 DoJE=T BraDBF=F KetDBF=T FulRan=T
         wScrn=  0.000000 ICntrl=       500 IOpCl=  0 I1Cent=   200000004 NGrid=           0
         NMat0=    1 NMatS0=      1 NMatT0=    0 NMatD0=    1 NMtDS0=    0 NMtDT0=    0
 Petite list used in FoFCou.
 Requested convergence on RMS density matrix=1.00D-08 within 128 cycles.
 Requested convergence on MAX density matrix=1.00D-06.
 Requested convergence on             energy=1.00D-06.
 No special actions if energy rises.
 Integral accuracy reduced to 1.0D-05 until final iterations.
 Initial convergence to 1.0D-05 achieved.  Increase integral accuracy.
 SCF Done:  E(RM062X) =  -462.172643355     A.U. after   16 cycles
            NFock= 16  Conv=0.44D-08     -V/T= 2.0084
 DoSCS=F DFT=T ScalE2(SS,OS)=  1.000000  1.000000
 Range of M.O.s used for correlation:     1   174
 NBasis=   174 NAE=    38 NBE=    38 NFC=     0 NFV=     0
 NROrb=    174 NOA=    38 NOB=    38 NVA=   136 NVB=   136
 Symmetrizing basis deriv contribution to polar:
 IMax=3 JMax=2 DiffMx= 0.00D+00
 G2DrvN: will do    23 centers at a time, making    1 passes.
 Calling FoFCou, ICntrl=  3107 FMM=F I1Cent=   0 AccDes= 0.00D+00.
 End of G2Drv F.D. properties file   721 does not exist.
 End of G2Drv F.D. properties file   722 does not exist.
 End of G2Drv F.D. properties file   788 does not exist.
          IDoAtm=1111111111111111111111
          Differentiating once with respect to nuclear coordinates.
 CalDSu exits because no D1Ps are significant.
          There are    69 degrees of freedom in the 1st order CPHF.  IDoFFX=6 NUNeed=     0.
     63 vectors produced by pass  0 Test12= 7.49D-15 1.45D-09 XBig12= 8.15D-02 1.18D-01.
 AX will form    63 AO Fock derivatives at one time.
     63 vectors produced by pass  1 Test12= 7.49D-15 1.45D-09 XBig12= 5.65D-03 1.54D-02.
     63 vectors produced by pass  2 Test12= 7.49D-15 1.45D-09 XBig12= 9.44D-05 1.66D-03.
     63 vectors produced by pass  3 Test12= 7.49D-15 1.45D-09 XBig12= 6.71D-07 1.19D-04.
     63 vectors produced by pass  4 Test12= 7.49D-15 1.45D-09 XBig12= 2.66D-09 6.79D-06.
     63 vectors produced by pass  5 Test12= 7.49D-15 1.45D-09 XBig12= 8.94D-12 3.55D-07.
     31 vectors produced by pass  6 Test12= 7.49D-15 1.45D-09 XBig12= 2.60D-14 1.58D-08.
 InvSVY:  IOpt=1 It=  1 EMax= 3.89D-16
 Solved reduced A of dimension   409 with    69 vectors.
 End of Minotr F.D. properties file   721 does not exist.
 End of Minotr F.D. properties file   722 does not exist.
 End of Minotr F.D. properties file   788 does not exist.

 **********************************************************************

            Population analysis using the SCF Density.

 **********************************************************************

 Orbital symmetries:
       Occupied  (A) (A) (A) (A) (A) (A) (A) (A) (A) (A) (A) (A)
                 (A) (A) (A) (A) (A) (A) (A) (A) (A) (A) (A) (A)
                 (A) (A) (A) (A) (A) (A) (A) (A) (A) (A) (A) (A)
                 (A) (A)
       Virtual   (A) (A) (A) (A) (A) (A) (A) (A) (A) (A) (A) (A)
                 (A) (A) (A) (A) (A) (A) (A) (A) (A) (A) (A) (A)
                 (A) (A) (A) (A) (A) (A) (A) (A) (A) (A) (A) (A)
                 (A) (A) (A) (A) (A) (A) (A) (A) (A) (A) (A) (A)
                 (A) (A) (A) (A) (A) (A) (A) (A) (A) (A) (A) (A)
                 (A) (A) (A) (A) (A) (A) (A) (A) (A) (A) (A) (A)
                 (A) (A) (A) (A) (A) (A) (A) (A) (A) (A) (A) (A)
                 (A) (A) (A) (A) (A) (A) (A) (A) (A) (A) (A) (A)
                 (A) (A) (A) (A) (A) (A) (A) (A) (A) (A) (A) (A)
                 (A) (A) (A) (A) (A) (A) (A) (A) (A) (A) (A) (A)
                 (A) (A) (A) (A) (A) (A) (A) (A) (A) (A) (A) (A)
                 (A) (A) (A) (A)
 The electronic state is 1-A.
 Alpha  occ. eigenvalues --  -19.66725 -19.61864 -10.62315 -10.61318 -10.59707
 Alpha  occ. eigenvalues --  -10.57186 -10.56347 -10.56032 -10.55672 -10.55272
 Alpha  occ. eigenvalues --   -1.18811  -1.14828  -0.92556  -0.87547  -0.83066
 Alpha  occ. eigenvalues --   -0.80458  -0.72528  -0.70349  -0.64339  -0.61799
 Alpha  occ. eigenvalues --   -0.59819  -0.56014  -0.54860  -0.53160  -0.53019
 Alpha  occ. eigenvalues --   -0.50863  -0.48340  -0.47164  -0.46391  -0.45903
 Alpha  occ. eigenvalues --   -0.44578  -0.43401  -0.43066  -0.39427  -0.37445
 Alpha  occ. eigenvalues --   -0.31214  -0.28228  -0.27307
 Alpha virt. eigenvalues --   -0.01229   0.03184   0.08903   0.12980   0.14460
 Alpha virt. eigenvalues --    0.15331   0.16382   0.17149   0.17429   0.18770
 Alpha virt. eigenvalues --    0.20681   0.20835   0.22013   0.22305   0.24214
 Alpha virt. eigenvalues --    0.25681   0.28819   0.32638   0.33155   0.34992
 Alpha virt. eigenvalues --    0.35716   0.39837   0.41625   0.45465   0.51244
 Alpha virt. eigenvalues --    0.55208   0.56960   0.58113   0.59197   0.60464
 Alpha virt. eigenvalues --    0.62714   0.63506   0.64541   0.66448   0.67081
 Alpha virt. eigenvalues --    0.68474   0.69710   0.72323   0.74944   0.76505
 Alpha virt. eigenvalues --    0.78950   0.79286   0.80885   0.86130   0.86931
 Alpha virt. eigenvalues --    0.89986   0.90663   0.91977   0.92312   0.92600
 Alpha virt. eigenvalues --    0.93023   0.93857   0.95852   0.97998   0.99435
 Alpha virt. eigenvalues --    1.00517   1.02389   1.03666   1.04643   1.06673
 Alpha virt. eigenvalues --    1.08542   1.11585   1.13497   1.16083   1.17568
 Alpha virt. eigenvalues --    1.20277   1.22589   1.23366   1.26635   1.29742
 Alpha virt. eigenvalues --    1.35366   1.40697   1.40879   1.44232   1.47472
 Alpha virt. eigenvalues --    1.49275   1.54691   1.56019   1.61899   1.62979
 Alpha virt. eigenvalues --    1.67626   1.71567   1.75063   1.78561   1.82586
 Alpha virt. eigenvalues --    1.84427   1.90685   1.91315   1.92272   1.94071
 Alpha virt. eigenvalues --    1.97332   1.98610   1.99606   2.01704   2.05986
 Alpha virt. eigenvalues --    2.08223   2.10915   2.13461   2.14538   2.16403
 Alpha virt. eigenvalues --    2.17558   2.20370   2.22973   2.24643   2.26950
 Alpha virt. eigenvalues --    2.28447   2.31481   2.37666   2.38109   2.42030
 Alpha virt. eigenvalues --    2.45048   2.52759   2.56052   2.58875   2.60401
 Alpha virt. eigenvalues --    2.63477   2.65498   2.67799   2.69223   2.77092
 Alpha virt. eigenvalues --    2.89100   2.90126   2.99276   3.06600   3.11962
 Alpha virt. eigenvalues --    3.16107   3.97365   4.09500   4.19043   4.26068
 Alpha virt. eigenvalues --    4.32148   4.32558   4.34333   4.44163   4.55692
 Alpha virt. eigenvalues --    4.64168
          Condensed to atoms (all electrons):
               1          2          3          4          5          6
     1  C    5.208582   0.071908  -0.021767   0.474590   0.387468   0.375490
     2  C    0.071908   5.141323  -0.026530  -0.018820  -0.010461  -0.009251
     3  C   -0.021767  -0.026530   5.367970   0.057755   0.000670   0.000929
     4  C    0.474590  -0.018820   0.057755   5.278649  -0.045718  -0.025553
     5  H    0.387468  -0.010461   0.000670  -0.045718   0.513228  -0.032175
     6  H    0.375490  -0.009251   0.000929  -0.025553  -0.032175   0.507347
     7  H   -0.038316   0.000324  -0.006103   0.361690   0.004147  -0.004476
     8  C   -0.022549   0.553328  -0.086251  -0.024057  -0.003305   0.000622
     9  C   -0.017264  -0.031874   0.544330  -0.008562  -0.000012   0.000339
    10  H   -0.005871   0.375496   0.000477   0.001126  -0.000753  -0.000225
    11  H    0.000799   0.000398   0.367624  -0.007036  -0.000006  -0.000016
    12  H   -0.016559   0.379323   0.005921  -0.008199   0.001224  -0.002884
    13  H   -0.004547   0.003195   0.366502  -0.010009   0.000011   0.000133
    14  C   -0.016498  -0.000374  -0.004546   0.345972  -0.005097   0.002245
    15  O    0.003308   0.000001  -0.005807  -0.070699   0.000069  -0.000070
    16  H    0.010992  -0.000303  -0.003479  -0.128748   0.007753  -0.000173
    17  O    0.000155   0.002921  -0.081362   0.000108  -0.000032  -0.000000
    18  H    0.000333  -0.051163   0.006998  -0.000139   0.000567  -0.000042
    19  C    0.000030  -0.000133  -0.017426   0.000062  -0.000001  -0.000000
    20  H   -0.000047   0.000010  -0.003015  -0.000378   0.000002   0.000000
    21  H    0.000006  -0.000006   0.004148   0.000043  -0.000000  -0.000000
    22  H    0.000001   0.000003   0.001261  -0.000001  -0.000000  -0.000000
               7          8          9         10         11         12
     1  C   -0.038316  -0.022549  -0.017264  -0.005871   0.000799  -0.016559
     2  C    0.000324   0.553328  -0.031874   0.375496   0.000398   0.379323
     3  C   -0.006103  -0.086251   0.544330   0.000477   0.367624   0.005921
     4  C    0.361690  -0.024057  -0.008562   0.001126  -0.007036  -0.008199
     5  H    0.004147  -0.003305  -0.000012  -0.000753  -0.000006   0.001224
     6  H   -0.004476   0.000622   0.000339  -0.000225  -0.000016  -0.002884
     7  H    0.525806   0.000449   0.000516  -0.000021   0.000576   0.000543
     8  C    0.000449   4.920952   0.538416  -0.027565   0.004890  -0.031452
     9  C    0.000516   0.538416   4.426573   0.003719  -0.030972  -0.012070
    10  H   -0.000021  -0.027565   0.003719   0.511471  -0.000007  -0.033535
    11  H    0.000576   0.004890  -0.030972  -0.000007   0.501446   0.000006
    12  H    0.000543  -0.031452  -0.012070  -0.033535   0.000006   0.521721
    13  H   -0.001963  -0.007114  -0.020754   0.000070  -0.027859   0.004461
    14  C   -0.027709  -0.000935  -0.004302  -0.000022  -0.000129   0.000047
    15  O    0.002297   0.000058  -0.000490   0.000000   0.002010   0.000001
    16  H    0.005212   0.001212   0.003186  -0.000003   0.000912   0.000025
    17  O   -0.000020  -0.047568   0.278439  -0.000034  -0.012387  -0.000014
    18  H    0.000004   0.366566  -0.032341  -0.006038  -0.000113   0.004312
    19  C    0.000002   0.003466  -0.044350   0.000001   0.005456  -0.000006
    20  H   -0.000001  -0.000107  -0.004964   0.000000  -0.000786   0.000003
    21  H    0.000000   0.000093  -0.001945  -0.000000   0.000768  -0.000003
    22  H   -0.000000  -0.000051   0.003165  -0.000000   0.000205   0.000000
              13         14         15         16         17         18
     1  C   -0.004547  -0.016498   0.003308   0.010992   0.000155   0.000333
     2  C    0.003195  -0.000374   0.000001  -0.000303   0.002921  -0.051163
     3  C    0.366502  -0.004546  -0.005807  -0.003479  -0.081362   0.006998
     4  C   -0.010009   0.345972  -0.070699  -0.128748   0.000108  -0.000139
     5  H    0.000011  -0.005097   0.000069   0.007753  -0.000032   0.000567
     6  H    0.000133   0.002245  -0.000070  -0.000173  -0.000000  -0.000042
     7  H   -0.001963  -0.027709   0.002297   0.005212  -0.000020   0.000004
     8  C   -0.007114  -0.000935   0.000058   0.001212  -0.047568   0.366566
     9  C   -0.020754  -0.004302  -0.000490   0.003186   0.278439  -0.032341
    10  H    0.000070  -0.000022   0.000000  -0.000003  -0.000034  -0.006038
    11  H   -0.027859  -0.000129   0.002010   0.000912  -0.012387  -0.000113
    12  H    0.004461   0.000047   0.000001   0.000025  -0.000014   0.004312
    13  H    0.515861   0.000310   0.000112   0.000011   0.003628  -0.000067
    14  C    0.000310   4.543125   0.537444   0.368567   0.001304   0.000013
    15  O    0.000112   0.537444   8.035317  -0.055379   0.000029   0.000000
    16  H    0.000011   0.368567  -0.055379   0.676194   0.000143   0.000094
    17  O    0.003628   0.001304   0.000029   0.000143   8.252390  -0.000763
    18  H   -0.000067   0.000013   0.000000   0.000094  -0.000763   0.535419
    19  C    0.000123  -0.001338  -0.001391   0.000045   0.236411  -0.000115
    20  H    0.000062   0.002294   0.004913  -0.000461  -0.035803   0.000022
    21  H   -0.000080   0.000074   0.000020   0.000013  -0.037894   0.000019
    22  H   -0.000007   0.000000   0.000005  -0.000010  -0.033235  -0.000016
              19         20         21         22
     1  C    0.000030  -0.000047   0.000006   0.000001
     2  C   -0.000133   0.000010  -0.000006   0.000003
     3  C   -0.017426  -0.003015   0.004148   0.001261
     4  C    0.000062  -0.000378   0.000043  -0.000001
     5  H   -0.000001   0.000002  -0.000000  -0.000000
     6  H   -0.000000   0.000000  -0.000000  -0.000000
     7  H    0.000002  -0.000001   0.000000  -0.000000
     8  C    0.003466  -0.000107   0.000093  -0.000051
     9  C   -0.044350  -0.004964  -0.001945   0.003165
    10  H    0.000001   0.000000  -0.000000  -0.000000
    11  H    0.005456  -0.000786   0.000768   0.000205
    12  H   -0.000006   0.000003  -0.000003   0.000000
    13  H    0.000123   0.000062  -0.000080  -0.000007
    14  C   -0.001338   0.002294   0.000074   0.000000
    15  O   -0.001391   0.004913   0.000020   0.000005
    16  H    0.000045  -0.000461   0.000013  -0.000010
    17  O    0.236411  -0.035803  -0.037894  -0.033235
    18  H   -0.000115   0.000022   0.000019  -0.000016
    19  C    4.945179   0.372122   0.368565   0.388902
    20  H    0.372122   0.559751  -0.046376  -0.029173
    21  H    0.368565  -0.046376   0.576891  -0.027244
    22  H    0.388902  -0.029173  -0.027244   0.507867
 Mulliken charges:
               1
     1  C   -0.390244
     2  C   -0.379314
     3  C   -0.468301
     4  C   -0.172077
     5  H    0.182422
     6  H    0.187760
     7  H    0.177043
     8  C   -0.139099
     9  C    0.411218
    10  H    0.181715
    11  H    0.194221
    12  H    0.187133
    13  H    0.177922
    14  C    0.259554
    15  O   -0.451749
    16  H    0.114197
    17  O   -0.526415
    18  H    0.176451
    19  C   -0.255607
    20  H    0.181932
    21  H    0.162908
    22  H    0.188328
 Sum of Mulliken charges =  -0.00000
 Mulliken charges with hydrogens summed into heavy atoms:
               1
     1  C   -0.020062
     2  C   -0.010465
     3  C   -0.096158
     4  C    0.004967
     8  C    0.037352
     9  C    0.411218
    14  C    0.373751
    15  O   -0.451749
    17  O   -0.526415
    19  C    0.277562
 APT charges:
               1
     1  C   -0.943563
     2  C   -0.881845
     3  C   -0.823082
     4  C   -0.554823
     5  H    0.389063
     6  H    0.652319
     7  H    0.489615
     8  C   -0.473413
     9  C   -0.038166
    10  H    0.687311
    11  H    0.420022
    12  H    0.375023
    13  H    0.451676
    14  C   -0.496378
    15  O    0.094173
    16  H    0.240087
    17  O   -0.314055
    18  H    0.527810
    19  C   -1.194408
    20  H    0.241263
    21  H    0.445401
    22  H    0.705969
 Sum of APT charges =  -0.00000
 APT charges with hydrogens summed into heavy atoms:
               1
     1  C    0.097819
     2  C    0.180489
     3  C    0.048617
     4  C   -0.065208
     8  C    0.054397
     9  C   -0.038166
    14  C   -0.256291
    15  O    0.094173
    17  O   -0.314055
    19  C    0.198225
 Electronic spatial extent (au):  <R**2>=           1538.4786
 Charge=             -0.0000 electrons
 Dipole moment (field-independent basis, Debye):
    X=             -1.2153    Y=             -2.6661    Z=              0.7164  Tot=              3.0164
 Quadrupole moment (field-independent basis, Debye-Ang):
   XX=            -52.0012   YY=            -72.5863   ZZ=            -57.9351
   XY=              2.6812   XZ=              1.1705   YZ=              0.9811
 Traceless Quadrupole moment (field-independent basis, Debye-Ang):
   XX=              8.8397   YY=            -11.7455   ZZ=              2.9058
   XY=              2.6812   XZ=              1.1705   YZ=              0.9811
 Octapole moment (field-independent basis, Debye-Ang**2):
  XXX=             18.3282  YYY=            -27.2872  ZZZ=             -1.8227  XYY=             -7.1710
  XXY=              0.6289  XXZ=              3.5043  XZZ=             -1.4912  YZZ=              2.7498
  YYZ=             -3.8924  XYZ=             -1.5966
 Hexadecapole moment (field-independent basis, Debye-Ang**3):
 XXXX=           -888.8536 YYYY=           -934.0438 ZZZZ=           -194.3336 XXXY=             22.9208
 XXXZ=            -10.3175 YYYX=             -4.9273 YYYZ=             17.6411 ZZZX=             -5.9121
 ZZZY=              4.2913 XXYY=           -300.2252 XXZZ=           -192.0764 YYZZ=           -162.8973
 XXYZ=              1.5402 YYXZ=              3.5975 ZZXY=              1.4933
 N-N= 5.347291649757D+02 E-N=-2.145372214536D+03  KE= 4.583186437478D+02
  Exact polarizability:       0.000       0.000       0.000       0.000       0.000       0.000
 Approx polarizability:     139.003      10.636     139.823       2.511      19.496      99.767
 Calling FoFJK, ICntrl=    100127 FMM=F ISym2X=0 I1Cent= 0 IOpClX= 0 NMat=1 NMatS=1 NMatT=0.
 ***** Axes restored to original set *****
 -------------------------------------------------------------------
 Center     Atomic                   Forces (Hartrees/Bohr)
 Number     Number              X              Y              Z
 -------------------------------------------------------------------
      1        6           0.001947282   -0.002783288   -0.000292897
      2        6          -0.003004309   -0.002206959    0.002138191
      3        6           0.004159748    0.011064895    0.004817859
      4        6           0.002360364    0.000589035   -0.002427434
      5        1          -0.000158248    0.000080343    0.000154744
      6        1          -0.000372291    0.000167430    0.000337459
      7        1          -0.000158917    0.000042994    0.000122182
      8        6          -0.004596150   -0.003318026   -0.004502672
      9        6           0.014185595   -0.017962186    0.022197123
     10        1          -0.000387875   -0.000374785   -0.000101006
     11        1           0.005534278    0.008793149    0.002855987
     12        1           0.000567976   -0.000310373   -0.000130899
     13        1           0.002163472   -0.000542565   -0.000416756
     14        6          -0.001597225    0.005063526   -0.002139240
     15        8           0.000332451   -0.003557027    0.002186781
     16        1           0.000227776   -0.000252069    0.000457114
     17        8          -0.014710363    0.012398499   -0.019864259
     18        1          -0.002062338   -0.003547432   -0.000275368
     19        6          -0.002680113   -0.003249844   -0.002131651
     20        1          -0.001591361   -0.001673603   -0.001479925
     21        1           0.000328410    0.000887329   -0.000547849
     22        1          -0.000488161    0.000690958   -0.000957484
 -------------------------------------------------------------------
 Cartesian Forces:  Max     0.022197123 RMS     0.005853134
 FormGI is forming the generalized inverse of G from B-inverse, IUseBI=4.

 GradGradGradGradGradGradGradGradGradGradGradGradGradGradGradGradGradGrad
 Berny optimization.
 Internal  Forces:  Max     0.057944274 RMS     0.008609861
 Search for a saddle point.
 Step number   1 out of a maximum of  103
 All quantities printed in internal units (Hartrees-Bohrs-Radians)
 Swapping is turned off.
 Second derivative matrix not updated -- analytic derivatives used.
 ITU=  0
     Eigenvalues ---   -0.06302  -0.00188   0.00380   0.00886   0.01337
     Eigenvalues ---    0.01465   0.01905   0.02182   0.02629   0.02861
     Eigenvalues ---    0.03296   0.03476   0.03577   0.03916   0.04392
     Eigenvalues ---    0.05243   0.05593   0.06379   0.06464   0.07717
     Eigenvalues ---    0.08017   0.09136   0.09507   0.10022   0.10939
     Eigenvalues ---    0.11261   0.12865   0.13719   0.13907   0.14718
     Eigenvalues ---    0.16559   0.16818   0.18951   0.19189   0.21024
     Eigenvalues ---    0.22025   0.22353   0.28635   0.30730   0.33023
     Eigenvalues ---    0.33767   0.33996   0.35408   0.35818   0.36257
     Eigenvalues ---    0.36807   0.36854   0.36951   0.37196   0.37388
     Eigenvalues ---    0.38007   0.38173   0.38872   0.41656   0.50918
     Eigenvalues ---    0.54687   0.66195   0.70691   0.91735   0.97619
 Eigenvectors required to have negative eigenvalues:
                          R1        D24       D15       D25       D20
   1                    0.64108  -0.27783  -0.23913  -0.21376   0.21304
                          D12       R2        R13       D16       D21
   1                    0.18464  -0.16736   0.15713   0.14090   0.13956
 RFO step:  Lambda0=1.191054230D-03 Lambda=-1.51704679D-02.
 Linear search not attempted -- option 19 set.
 Iteration  1 RMS(Cart)=  0.15284841 RMS(Int)=  0.03536891
 Iteration  2 RMS(Cart)=  0.09695831 RMS(Int)=  0.00605456
 Iteration  3 RMS(Cart)=  0.01408047 RMS(Int)=  0.00037878
 Iteration  4 RMS(Cart)=  0.00020256 RMS(Int)=  0.00036179
 Iteration  5 RMS(Cart)=  0.00000004 RMS(Int)=  0.00036179
 Variable       Old X    -DE/DX   Delta X   Delta X   Delta X     New X
                                 (Linear)    (Quad)   (Total)
    R1        4.15464   0.00299   0.00000  -0.15138  -0.15138   4.00326
    R2        2.60818  -0.00228   0.00000   0.02265   0.02265   2.63083
    R3        2.05228  -0.00010   0.00000  -0.00045  -0.00045   2.05182
    R4        2.05044   0.00001   0.00000   0.00029   0.00029   2.05073
    R5        2.60103  -0.00275   0.00000   0.01339   0.01339   2.61442
    R6        2.05221  -0.00021   0.00000   0.00038   0.00038   2.05259
    R7        2.04791   0.00012   0.00000   0.00148   0.00148   2.04938
    R8        2.59678   0.01110   0.00000   0.01367   0.01367   2.61045
    R9        2.04983  -0.00599   0.00000  -0.00143  -0.00143   2.04840
   R10        2.04151   0.00027   0.00000   0.00037   0.00037   2.04188
   R11        2.05306  -0.00000   0.00000  -0.00071  -0.00071   2.05235
   R12        2.78280  -0.00115   0.00000  -0.00892  -0.00892   2.77388
   R13        2.67651  -0.00588   0.00000  -0.02495  -0.02495   2.65156
   R14        2.05042   0.00142   0.00000   0.00288   0.00288   2.05330
   R15        2.58098   0.00798   0.00000  -0.01555  -0.01555   2.56543
   R16        2.28619   0.00384   0.00000   0.00803   0.00803   2.29422
   R17        2.10752  -0.00049   0.00000   0.00015   0.00015   2.10767
   R18        2.66322  -0.00074   0.00000   0.00638   0.00638   2.66960
   R19        2.07272  -0.00067   0.00000   0.00218   0.00218   2.07490
   R20        2.07422  -0.00043   0.00000   0.00014   0.00014   2.07436
   R21        2.05965   0.00017   0.00000  -0.00118  -0.00118   2.05847
    A1        1.89857  -0.00023   0.00000   0.01070   0.01083   1.90939
    A2        1.62859  -0.00053   0.00000   0.01781   0.01795   1.64654
    A3        1.58602   0.00027   0.00000   0.04224   0.04228   1.62830
    A4        2.07783   0.00021   0.00000  -0.01380  -0.01439   2.06344
    A5        2.09497  -0.00002   0.00000  -0.01140  -0.01239   2.08258
    A6        2.01395   0.00003   0.00000  -0.00708  -0.00827   2.00568
    A7        1.79142  -0.00003   0.00000   0.00673   0.00683   1.79825
    A8        1.79201  -0.00058   0.00000   0.00677   0.00681   1.79882
    A9        1.51145   0.00044   0.00000   0.03883   0.03889   1.55034
   A10        2.07926  -0.00041   0.00000  -0.00322  -0.00352   2.07575
   A11        2.11533   0.00037   0.00000  -0.01039  -0.01101   2.10433
   A12        2.00228   0.00016   0.00000  -0.00928  -0.00988   1.99240
   A13        2.07898   0.01167   0.00000   0.04997   0.04967   2.12866
   A14        2.10546  -0.00346   0.00000  -0.03392  -0.03422   2.07124
   A15        2.04796  -0.00699   0.00000  -0.03248  -0.03281   2.01516
   A16        2.11564   0.00025   0.00000   0.00235   0.00234   2.11798
   A17        2.09513  -0.00009   0.00000  -0.01050  -0.01051   2.08462
   A18        2.02546   0.00020   0.00000   0.00574   0.00572   2.03118
   A19        2.11702   0.00044   0.00000  -0.00762  -0.00789   2.10913
   A20        2.05997   0.00323   0.00000   0.03494   0.03449   2.09445
   A21        2.07881  -0.00374   0.00000  -0.03703  -0.03713   2.04167
   A22        2.11357  -0.01096   0.00000  -0.00500  -0.00492   2.10865
   A23        2.01795   0.05794   0.00000   0.13525   0.13503   2.15297
   A24        2.13834  -0.04708   0.00000  -0.13330  -0.13318   2.00515
   A25        2.18754   0.00015   0.00000   0.01257   0.01235   2.19989
   A26        1.98238   0.00018   0.00000  -0.00476  -0.00498   1.97740
   A27        2.11320  -0.00032   0.00000  -0.00739  -0.00761   2.10559
   A28        2.06842   0.02342   0.00000  -0.02572  -0.02572   2.04270
   A29        1.94972   0.00155   0.00000  -0.01384  -0.01386   1.93586
   A30        1.94782  -0.00062   0.00000  -0.00382  -0.00385   1.94396
   A31        1.84895  -0.00250   0.00000  -0.00101  -0.00101   1.84794
   A32        1.90589   0.00125   0.00000   0.00535   0.00530   1.91119
   A33        1.90380  -0.00091   0.00000   0.01944   0.01944   1.92325
   A34        1.90622   0.00112   0.00000  -0.00561  -0.00562   1.90060
    D1       -1.01608  -0.00043   0.00000   0.02657   0.02659  -0.98949
    D2        3.09971   0.00028   0.00000   0.02442   0.02462   3.12433
    D3        1.09981   0.00005   0.00000   0.02513   0.02530   1.12511
    D4        1.11736  -0.00049   0.00000   0.02232   0.02208   1.13943
    D5       -1.05004   0.00022   0.00000   0.02016   0.02010  -1.02993
    D6       -3.04994  -0.00001   0.00000   0.02088   0.02078  -3.02915
    D7        3.13313  -0.00047   0.00000   0.01903   0.01892  -3.13113
    D8        0.96574   0.00025   0.00000   0.01687   0.01695   0.98269
    D9       -1.03416   0.00001   0.00000   0.01759   0.01763  -1.01653
   D10       -1.66401  -0.00014   0.00000  -0.03508  -0.03504  -1.69906
   D11        1.81477  -0.00143   0.00000  -0.02775  -0.02772   1.78706
   D12        2.78673   0.00056   0.00000  -0.05753  -0.05728   2.72945
   D13       -0.01767  -0.00072   0.00000  -0.05020  -0.04996  -0.06763
   D14        0.12363   0.00003   0.00000   0.01939   0.01912   0.14274
   D15       -2.68077  -0.00125   0.00000   0.02673   0.02644  -2.65433
   D16        1.08894   0.00090   0.00000  -0.02998  -0.03037   1.05856
   D17       -1.80106   0.00175   0.00000   0.01893   0.01920  -1.78186
   D18        3.05216  -0.00004   0.00000  -0.01842  -0.01885   3.03331
   D19        0.16216   0.00081   0.00000   0.03049   0.03073   0.19289
   D20       -0.54667   0.00030   0.00000  -0.07796  -0.07813  -0.62480
   D21        2.84652   0.00114   0.00000  -0.02905  -0.02856   2.81796
   D22       -2.98314   0.00277   0.00000  -0.04197  -0.04137  -3.02451
   D23       -0.01203  -0.00228   0.00000  -0.07407  -0.07456  -0.08659
   D24        0.50424   0.00007   0.00000   0.01821   0.01871   0.52295
   D25       -2.80784  -0.00498   0.00000  -0.01388  -0.01448  -2.82232
   D26        2.76738   0.00216   0.00000   0.05975   0.05974   2.82712
   D27       -0.36169   0.00046   0.00000   0.02069   0.02069  -0.34099
   D28       -0.05383   0.00093   0.00000   0.06715   0.06715   0.01332
   D29        3.10029  -0.00077   0.00000   0.02810   0.02810   3.12839
   D30        0.03155   0.00420   0.00000   0.03667   0.03704   0.06859
   D31       -2.92761  -0.00105   0.00000   0.04341   0.04194  -2.88567
   D32        2.91890   0.00433   0.00000  -0.00259  -0.00112   2.91778
   D33       -0.04026  -0.00092   0.00000   0.00415   0.00378  -0.03648
   D34        0.17315  -0.00159   0.00000  -0.40724  -0.40661  -0.23345
   D35        3.14159  -0.00263   0.00000  -0.42551  -0.42614   2.71546
   D36       -1.11938  -0.00326   0.00000   0.25574   0.25571  -0.86367
   D37        1.01991  -0.00096   0.00000   0.24988   0.24990   1.26981
   D38        3.09280  -0.00148   0.00000   0.24044   0.24046  -2.94993
         Item               Value     Threshold  Converged?
 Maximum Force            0.057944     0.000450     NO 
 RMS     Force            0.008610     0.000300     NO 
 Maximum Displacement     0.887497     0.001800     NO 
 RMS     Displacement     0.247627     0.001200     NO 
 Predicted change in Energy=-9.285373D-03
 GradGradGradGradGradGradGradGradGradGradGradGradGradGradGradGradGradGrad

                          Input orientation:                          
 ---------------------------------------------------------------------
 Center     Atomic      Atomic             Coordinates (Angstroms)
 Number     Number       Type             X           Y           Z
 ---------------------------------------------------------------------
      1          6           0        1.503029    1.290629   -0.733781
      2          6           0       -0.221248    2.294152   -0.021340
      3          6           0        0.086292    0.037609    1.643994
      4          6           0        1.787835    0.212282    0.099408
      5          1           0        1.080227    1.085633   -1.712621
      6          1           0        2.120400    2.181473   -0.679865
      7          1           0        2.527790    0.289547    0.890620
      8          6           0       -1.176484    1.293675    0.003651
      9          6           0       -1.002910    0.153085    0.802241
     10          1           0       -0.336784    3.113505   -0.724979
     11          1           0        0.296723   -0.876006    2.188060
     12          1           0        0.328465    2.554418    0.876541
     13          1           0        0.516223    0.936554    2.061815
     14          6           0        1.432274   -1.145380   -0.330684
     15          8           0        1.878265   -2.178729    0.124501
     16          1           0        0.659627   -1.165210   -1.134790
     17          8           0       -1.834250   -0.879968    0.511261
     18          1           0       -1.922581    1.235015   -0.784072
     19          6           0       -1.397557   -2.175513    0.867007
     20          1           0       -0.373349   -2.354603    0.514155
     21          1           0       -1.443158   -2.329061    1.952960
     22          1           0       -2.087850   -2.865866    0.383815
 ---------------------------------------------------------------------
                    Distance matrix (angstroms):
                    1          2          3          4          5
     1  C    0.000000
     2  C    2.118434   0.000000
     3  C    3.038259   2.821330   0.000000
     4  C    1.392175   2.895717   2.304671   0.000000
     5  H    1.085778   2.452506   3.654193   2.132347   0.000000
     6  H    1.085199   2.435091   3.759531   2.143731   1.830140
     7  H    2.165866   3.522402   2.567481   1.086056   3.083189
     8  C    2.779137   1.383493   2.421369   3.156860   2.842818
     9  C    3.151682   2.423520   1.381392   2.878496   3.396121
    10  H    2.589955   1.086184   3.905402   3.689270   2.663760
    11  H    3.832315   3.898672   1.083966   2.787517   4.435902
    12  H    2.360064   1.084487   2.642340   2.866932   3.070217
    13  H    2.985718   2.593544   1.080517   2.447980   3.819253
    14  C    2.470148   3.828865   2.666549   1.467872   2.647850
    15  O    3.593591   4.943267   3.229889   2.392852   3.829875
    16  H    2.627409   3.739371   3.081741   2.166467   2.361586
    17  O    4.171217   3.600066   2.411122   3.805539   4.159737
    18  H    3.426431   2.144310   3.371180   3.948887   3.146644
    19  C    4.794795   4.706460   2.775504   4.054318   4.840348
    20  H    4.285540   4.681966   2.685234   3.381069   4.348176
    21  H    5.385234   5.173492   2.834749   4.509256   5.609286
    22  H    5.605344   5.502194   3.839936   4.957501   5.481433
                    6          7          8          9         10
     6  H    0.000000
     7  H    2.492343   0.000000
     8  C    3.482072   3.939115   0.000000
     9  C    4.008250   3.534441   1.403146   0.000000
    10  H    2.628397   4.334821   2.132552   3.397088   0.000000
    11  H    4.571540   2.831877   3.413136   2.160688   4.980294
    12  H    2.402607   3.157034   2.148553   2.746722   1.822087
    13  H    3.411747   2.415930   2.688648   2.123233   3.637713
    14  C    3.415171   2.179622   3.586974   2.983228   4.628513
    15  O    4.440382   2.664809   4.626412   3.768005   5.799637
    16  H    3.679824   3.115868   3.273143   2.872981   4.412276
    17  O    5.141056   4.532005   2.327025   1.357569   4.440554
    18  H    4.153594   4.848123   1.086559   2.129026   2.459058
    19  C    5.809661   4.635237   3.581832   2.362691   5.624355
    20  H    5.312292   3.943331   3.770354   2.601507   5.606870
    21  H    6.322629   4.873818   4.122516   2.771105   6.165788
    22  H    6.657058   5.614055   4.275149   3.235157   6.328391
                   11         12         13         14         15
    11  H    0.000000
    12  H    3.672724   0.000000
    13  H    1.830162   2.014351   0.000000
    14  C    2.775988   4.045280   3.301159   0.000000
    15  O    2.908030   5.036876   3.913225   1.214048   0.000000
    16  H    3.355096   4.241550   3.828349   1.115331   2.024380
    17  O    2.711589   4.075018   3.350924   3.383710   3.952105
    18  H    4.267937   3.092841   3.759776   4.138465   5.188987
    19  C    2.510873   5.035026   3.843837   3.240923   3.358919
    20  H    2.331781   4.972157   3.744102   2.331576   2.291839
    21  H    2.278996   5.305251   3.809890   3.858010   3.794432
    22  H    3.591800   5.954900   4.904618   3.982694   4.033543
                   16         17         18         19         20
    16  H    0.000000
    17  O    3.001710   0.000000
    18  H    3.542863   2.481702   0.000000
    19  C    3.043010   1.412690   3.825364   0.000000
    20  H    2.280507   2.075762   4.119572   1.097990   0.000000
    21  H    3.912857   2.081183   4.519273   1.097703   1.793127
    22  H    3.570297   2.006078   4.267142   1.089296   1.793849
                   21         22
    21  H    0.000000
    22  H    1.779327   0.000000
 Stoichiometry    C8H12O2
 Framework group  C1[X(C8H12O2)]
 Deg. of freedom    60
 Full point group                 C1      NOp   1
 Largest Abelian subgroup         C1      NOp   1
 Largest concise Abelian subgroup C1      NOp   1
                         Standard orientation:                         
 ---------------------------------------------------------------------
 Center     Atomic      Atomic             Coordinates (Angstroms)
 Number     Number       Type             X           Y           Z
 ---------------------------------------------------------------------
      1          6           0       -1.989268    0.976332   -0.423349
      2          6           0       -2.231652   -1.081742    0.016358
      3          6           0        0.151085   -0.304151    1.311664
      4          6           0       -0.883380    1.468943    0.264036
      5          1           0       -1.901095    0.821683   -1.494433
      6          1           0       -2.986163    1.231552   -0.078790
      7          1           0       -0.992751    1.992182    1.209434
      8          6           0       -1.013261   -1.624769   -0.350652
      9          6           0        0.175577   -1.207685    0.267025
     10          1           0       -3.118776   -1.350926   -0.549636
     11          1           0        1.059523    0.112060    1.731771
     12          1           0       -2.428039   -0.815147    1.049059
     13          1           0       -0.711879   -0.286410    1.961661
     14          6           0        0.378447    1.679545   -0.455747
     15          8           0        1.305920    2.369525   -0.084758
     16          1           0        0.441544    1.108556   -1.411756
     17          8           0        1.312990   -1.571635   -0.378594
     18          1           0       -0.918428   -2.160664   -1.291096
     19          6           0        2.462455   -0.783368   -0.148249
     20          1           0        2.237315    0.283987   -0.273334
     21          1           0        2.871797   -0.956390    0.855471
     22          1           0        3.195665   -1.102227   -0.888044
 ---------------------------------------------------------------------
 Rotational constants (GHZ):           1.4993154           1.3900959           0.8370927
 Standard basis: 6-31G(d) (6D, 7F)
 There are   174 symmetry adapted cartesian basis functions of A   symmetry.
 There are   174 symmetry adapted basis functions of A   symmetry.
   174 basis functions,   328 primitive gaussians,   174 cartesian basis functions
    38 alpha electrons       38 beta electrons
       nuclear repulsion energy       543.2385262352 Hartrees.
 NAtoms=   22 NActive=   22 NUniq=   22 SFac= 1.00D+00 NAtFMM=   60 NAOKFM=F Big=F
 Integral buffers will be    131072 words long.
 Raffenetti 2 integral format.
 Two-electron integral symmetry is turned on.
 One-electron integrals computed using PRISM.
 NBasis=   174 RedAO= T EigKep=  1.88D-03  NBF=   174
 NBsUse=   174 1.00D-06 EigRej= -1.00D+00 NBFU=   174
 Initial guess from the checkpoint file:  "DATS_13_endo_iv.chk"
 B after Tr=     0.000000   -0.000000   -0.000000
         Rot=    0.982864    0.009485    0.014686    0.183500 Ang=  21.24 deg.
 ExpMin= 1.61D-01 ExpMax= 5.48D+03 ExpMxC= 8.25D+02 IAcc=3 IRadAn=         5 AccDes= 0.00D+00
 Harris functional with IExCor= 1009 and IRadAn=       5 diagonalized for initial guess.
 HarFok:  IExCor= 1009 AccDes= 0.00D+00 IRadAn=         5 IDoV= 1 UseB2=F ITyADJ=14
 ICtDFT=  3500011 ScaDFX=  1.000000  1.000000  1.000000  1.000000
 FoFCou: FMM=F IPFlag=           0 FMFlag=      100000 FMFlg1=           0
         NFxFlg=           0 DoJE=T BraDBF=F KetDBF=T FulRan=T
         wScrn=  0.000000 ICntrl=       500 IOpCl=  0 I1Cent=   200000004 NGrid=           0
         NMat0=    1 NMatS0=      1 NMatT0=    0 NMatD0=    1 NMtDS0=    0 NMtDT0=    0
 Petite list used in FoFCou.
 Requested convergence on RMS density matrix=1.00D-08 within 128 cycles.
 Requested convergence on MAX density matrix=1.00D-06.
 Requested convergence on             energy=1.00D-06.
 No special actions if energy rises.
 Integral accuracy reduced to 1.0D-05 until final iterations.
 Initial convergence to 1.0D-05 achieved.  Increase integral accuracy.
 SCF Done:  E(RM062X) =  -462.177191954     A.U. after   17 cycles
            NFock= 17  Conv=0.39D-08     -V/T= 2.0083
 Calling FoFJK, ICntrl=      2127 FMM=F ISym2X=0 I1Cent= 0 IOpClX= 0 NMat=1 NMatS=1 NMatT=0.
 ***** Axes restored to original set *****
 -------------------------------------------------------------------
 Center     Atomic                   Forces (Hartrees/Bohr)
 Number     Number              X              Y              Z
 -------------------------------------------------------------------
      1        6          -0.003208948    0.002324359    0.000650790
      2        6           0.003263161   -0.000774945   -0.001333228
      3        6           0.001029210    0.001416979   -0.000856645
      4        6           0.000371974   -0.001228352    0.001184167
      5        1           0.000726964   -0.000002548   -0.000421216
      6        1           0.000313979   -0.000167609   -0.000041395
      7        1           0.000636049   -0.000094901   -0.000550879
      8        6           0.000322994    0.001825436    0.000325606
      9        6          -0.001309061    0.001512341    0.004388263
     10        1          -0.000128969    0.000099780    0.000064562
     11        1           0.000589653   -0.000105940   -0.000969467
     12        1          -0.000349861    0.000591670    0.000319772
     13        1           0.000532209    0.000260004   -0.000080692
     14        6           0.004441850    0.001090801   -0.001014597
     15        8           0.001323224    0.001437597   -0.001083145
     16        1           0.000267618    0.000412478   -0.000275814
     17        8          -0.003215132   -0.001725538   -0.005546986
     18        1           0.000022703   -0.000672496    0.000257313
     19        6          -0.000144897   -0.001947190    0.002186234
     20        1          -0.005827430   -0.003779247    0.003051652
     21        1           0.000430515    0.000209175   -0.000037423
     22        1          -0.000087805   -0.000681855   -0.000216873
 -------------------------------------------------------------------
 Cartesian Forces:  Max     0.005827430 RMS     0.001763994

 GradGradGradGradGradGradGradGradGradGradGradGradGradGradGradGradGradGrad
 Berny optimization.
 FormGI is forming the generalized inverse of G from B-inverse, IUseBI=4.
 Internal  Forces:  Max     0.037823139 RMS     0.007341421
 Search for a saddle point.
 Step number   2 out of a maximum of  103
 All quantities printed in internal units (Hartrees-Bohrs-Radians)
 Swapping is turned off.
 Update second derivatives using D2CorX and points    1    2
 ITU=  0  0
     Eigenvalues ---   -0.06108  -0.01242   0.00393   0.00922   0.01334
     Eigenvalues ---    0.01520   0.01973   0.02309   0.02649   0.03003
     Eigenvalues ---    0.03461   0.03547   0.03830   0.04377   0.04664
     Eigenvalues ---    0.05250   0.05591   0.06442   0.06472   0.07759
     Eigenvalues ---    0.08267   0.09138   0.09521   0.10022   0.10904
     Eigenvalues ---    0.11209   0.12976   0.13715   0.13905   0.14757
     Eigenvalues ---    0.16548   0.16753   0.18906   0.19230   0.20954
     Eigenvalues ---    0.22151   0.22514   0.29368   0.30737   0.33023
     Eigenvalues ---    0.33771   0.34056   0.35646   0.35826   0.36232
     Eigenvalues ---    0.36807   0.36854   0.36951   0.37196   0.37390
     Eigenvalues ---    0.38073   0.38291   0.38848   0.41885   0.50915
     Eigenvalues ---    0.54686   0.66807   0.71379   0.91733   0.97462
 Eigenvectors required to have negative eigenvalues:
                          R1        D24       D15       D25       D20
   1                   -0.63129   0.28028   0.24026   0.21543  -0.20565
                          D12       R2        R13       D34       D21
   1                   -0.17844   0.16376  -0.15402   0.14243  -0.14008
 RFO step:  Lambda0=8.263761692D-04 Lambda=-2.24315973D-02.
 Linear search not attempted -- option 19 set.
 Maximum step size (   0.300) exceeded in Quadratic search.
    -- Step size scaled by   0.832
 Iteration  1 RMS(Cart)=  0.34870269 RMS(Int)=  0.01720606
 Iteration  2 RMS(Cart)=  0.04409059 RMS(Int)=  0.00122580
 Iteration  3 RMS(Cart)=  0.00099893 RMS(Int)=  0.00115151
 Iteration  4 RMS(Cart)=  0.00000161 RMS(Int)=  0.00115151
 Iteration  5 RMS(Cart)=  0.00000000 RMS(Int)=  0.00115151
 Variable       Old X    -DE/DX   Delta X   Delta X   Delta X     New X
                                 (Linear)    (Quad)   (Total)
    R1        4.00326   0.00270   0.00000  -0.20233  -0.20233   3.80093
    R2        2.63083  -0.00086   0.00000  -0.00957  -0.00957   2.62126
    R3        2.05182   0.00010   0.00000   0.00234   0.00234   2.05416
    R4        2.05073   0.00004   0.00000   0.00110   0.00110   2.05183
    R5        2.61442   0.00800   0.00000  -0.00378  -0.00378   2.61065
    R6        2.05259   0.00005   0.00000   0.00026   0.00026   2.05285
    R7        2.04938   0.00023   0.00000   0.00378   0.00378   2.05317
    R8        2.61045   0.00040   0.00000  -0.01312  -0.01312   2.59733
    R9        2.04840  -0.00028   0.00000   0.00323   0.00323   2.05163
   R10        2.04188   0.00040   0.00000  -0.00189  -0.00189   2.03999
   R11        2.05235   0.00003   0.00000   0.00058   0.00058   2.05293
   R12        2.77388  -0.00349   0.00000  -0.01908  -0.01908   2.75479
   R13        2.65156   0.00404   0.00000   0.01994   0.01994   2.67150
   R14        2.05330  -0.00017   0.00000   0.00121   0.00121   2.05451
   R15        2.56543   0.01157   0.00000   0.00879   0.00879   2.57423
   R16        2.29422  -0.00114   0.00000  -0.00382  -0.00382   2.29039
   R17        2.10767   0.00001   0.00000   0.00194   0.00194   2.10961
   R18        2.66960   0.00520   0.00000  -0.00153  -0.00153   2.66806
   R19        2.07490  -0.00580   0.00000  -0.01952  -0.01952   2.05538
   R20        2.07436  -0.00008   0.00000   0.00227   0.00227   2.07663
   R21        2.05847   0.00058   0.00000   0.00100   0.00100   2.05948
    A1        1.90939   0.02049   0.00000   0.07539   0.07502   1.98441
    A2        1.64654  -0.00408   0.00000   0.04760   0.04659   1.69313
    A3        1.62830  -0.01013   0.00000  -0.04145  -0.04027   1.58803
    A4        2.06344  -0.00173   0.00000  -0.01023  -0.01440   2.04904
    A5        2.08258  -0.00330   0.00000  -0.02469  -0.02442   2.05816
    A6        2.00568   0.00120   0.00000  -0.01025  -0.01046   1.99522
    A7        1.79825   0.03782   0.00000   0.13357   0.13419   1.93244
    A8        1.79882  -0.01731   0.00000  -0.05866  -0.05789   1.74093
    A9        1.55034  -0.01009   0.00000   0.02563   0.02591   1.57625
   A10        2.07575  -0.00773   0.00000  -0.02351  -0.02361   2.05213
   A11        2.10433  -0.00082   0.00000  -0.02453  -0.03016   2.07416
   A12        1.99240   0.00253   0.00000  -0.00468  -0.00574   1.98666
   A13        2.12866   0.00008   0.00000   0.00360   0.00355   2.13221
   A14        2.07124   0.00037   0.00000  -0.00013  -0.00018   2.07106
   A15        2.01516   0.00001   0.00000   0.00289   0.00284   2.01800
   A16        2.11798   0.00062   0.00000  -0.00740  -0.00751   2.11046
   A17        2.08462  -0.00185   0.00000   0.00806   0.00794   2.09256
   A18        2.03118  -0.00002   0.00000  -0.00915  -0.00927   2.02192
   A19        2.10913   0.02308   0.00000   0.04812   0.04742   2.15655
   A20        2.09445  -0.00895   0.00000   0.00900   0.00845   2.10290
   A21        2.04167  -0.01151   0.00000  -0.04023  -0.04106   2.00061
   A22        2.10865   0.00049   0.00000   0.01195   0.00951   2.11816
   A23        2.15297   0.00664   0.00000   0.03495   0.03261   2.18558
   A24        2.00515  -0.00620   0.00000  -0.02508  -0.02759   1.97756
   A25        2.19989  -0.00095   0.00000  -0.00911  -0.00943   2.19046
   A26        1.97740   0.00007   0.00000   0.00333   0.00301   1.98041
   A27        2.10559   0.00092   0.00000   0.00686   0.00654   2.11213
   A28        2.04270   0.01996   0.00000   0.02966   0.02966   2.07236
   A29        1.93586   0.00758   0.00000   0.04684   0.04674   1.98260
   A30        1.94396  -0.00151   0.00000  -0.00974  -0.00976   1.93420
   A31        1.84794  -0.00077   0.00000  -0.00125  -0.00139   1.84655
   A32        1.91119  -0.00221   0.00000  -0.02302  -0.02301   1.88818
   A33        1.92325  -0.00268   0.00000  -0.00996  -0.01017   1.91308
   A34        1.90060  -0.00052   0.00000  -0.00290  -0.00296   1.89764
    D1       -0.98949  -0.00229   0.00000  -0.00337  -0.00660  -0.99608
    D2        3.12433  -0.00267   0.00000  -0.01000  -0.01116   3.11318
    D3        1.12511  -0.00135   0.00000  -0.00659  -0.00611   1.11900
    D4        1.13943   0.00025   0.00000   0.03067   0.03009   1.16952
    D5       -1.02993  -0.00013   0.00000   0.02403   0.02553  -1.00440
    D6       -3.02915   0.00119   0.00000   0.02745   0.03057  -2.99858
    D7       -3.13113  -0.00008   0.00000   0.02047   0.01850  -3.11264
    D8        0.98269  -0.00046   0.00000   0.01383   0.01394   0.99662
    D9       -1.01653   0.00086   0.00000   0.01725   0.01898  -0.99755
   D10       -1.69906   0.00302   0.00000   0.06235   0.06229  -1.63677
   D11        1.78706   0.00727   0.00000   0.09272   0.09264   1.87970
   D12        2.72945  -0.00454   0.00000  -0.04168  -0.04107   2.68838
   D13       -0.06763  -0.00029   0.00000  -0.01132  -0.01072  -0.07834
   D14        0.14274   0.00247   0.00000   0.04858   0.04804   0.19078
   D15       -2.65433   0.00673   0.00000   0.07894   0.07839  -2.57594
   D16        1.05856   0.00991   0.00000   0.03857   0.03809   1.09666
   D17       -1.78186   0.00179   0.00000  -0.01993  -0.02118  -1.80304
   D18        3.03331   0.01112   0.00000   0.04772   0.04764   3.08095
   D19        0.19289   0.00299   0.00000  -0.01078  -0.01163   0.18125
   D20       -0.62480  -0.00122   0.00000  -0.06772  -0.06600  -0.69080
   D21        2.81796  -0.00934   0.00000  -0.12622  -0.12528   2.69268
   D22       -3.02451  -0.00154   0.00000  -0.04213  -0.04321  -3.06772
   D23       -0.08659   0.00345   0.00000   0.08892   0.09001   0.00342
   D24        0.52295  -0.00286   0.00000  -0.06084  -0.06194   0.46101
   D25       -2.82232   0.00213   0.00000   0.07021   0.07129  -2.75103
   D26        2.82712  -0.00355   0.00000  -0.04400  -0.04399   2.78313
   D27       -0.34099  -0.00157   0.00000   0.00335   0.00335  -0.33764
   D28        0.01332   0.00035   0.00000  -0.01524  -0.01524  -0.00192
   D29        3.12839   0.00232   0.00000   0.03211   0.03210  -3.12269
   D30        0.06859  -0.00629   0.00000  -0.11696  -0.11749  -0.04891
   D31       -2.88567  -0.01224   0.00000  -0.24381  -0.24218  -3.12785
   D32        2.91778   0.00179   0.00000  -0.05254  -0.05416   2.86361
   D33       -0.03648  -0.00416   0.00000  -0.17938  -0.17885  -0.21533
   D34       -0.23345   0.00755   0.00000  -0.19678  -0.19665  -0.43010
   D35        2.71546   0.01288   0.00000  -0.06932  -0.06946   2.64600
   D36       -0.86367  -0.00108   0.00000   0.22693   0.22710  -0.63657
   D37        1.26981   0.00038   0.00000   0.22360   0.22355   1.49336
   D38       -2.94993  -0.00152   0.00000   0.21419   0.21407  -2.73586
         Item               Value     Threshold  Converged?
 Maximum Force            0.037823     0.000450     NO 
 RMS     Force            0.007341     0.000300     NO 
 Maximum Displacement     1.528893     0.001800     NO 
 RMS     Displacement     0.376024     0.001200     NO 
 Predicted change in Energy=-1.527210D-02
 GradGradGradGradGradGradGradGradGradGradGradGradGradGradGradGradGradGrad

                          Input orientation:                          
 ---------------------------------------------------------------------
 Center     Atomic      Atomic             Coordinates (Angstroms)
 Number     Number       Type             X           Y           Z
 ---------------------------------------------------------------------
      1          6           0        1.537637    1.419016   -0.751438
      2          6           0       -0.200971    2.164570   -0.068078
      3          6           0        0.075274   -0.159759    1.632773
      4          6           0        2.037505    0.377242    0.015967
      5          1           0        1.194605    1.181177   -1.755115
      6          1           0        2.012232    2.391271   -0.659785
      7          1           0        2.754356    0.563387    0.810735
      8          6           0       -1.158664    1.172495    0.016407
      9          6           0       -1.045625    0.047317    0.864778
     10          1           0       -0.359805    2.956367   -0.794663
     11          1           0        0.205048   -1.052292    2.237123
     12          1           0        0.291901    2.496072    0.841669
     13          1           0        0.664937    0.694527    1.929169
     14          6           0        1.996113   -0.987088   -0.495886
     15          8           0        2.687321   -1.904905   -0.110078
     16          1           0        1.260320   -1.129387   -1.323297
     17          8           0       -2.101688   -0.807834    0.769401
     18          1           0       -1.943706    1.098480   -0.732082
     19          6           0       -1.892224   -2.177891    1.038605
     20          1           0       -0.926982   -2.545855    0.698143
     21          1           0       -1.976700   -2.381823    2.115113
     22          1           0       -2.689907   -2.707845    0.518439
 ---------------------------------------------------------------------
                    Distance matrix (angstroms):
                    1          2          3          4          5
     1  C    0.000000
     2  C    2.011364   0.000000
     3  C    3.211775   2.893391   0.000000
     4  C    1.387109   2.865725   2.598612   0.000000
     5  H    1.087017   2.400164   3.811666   2.119793   0.000000
     6  H    1.085781   2.302124   3.938957   2.124521   1.825538
     7  H    2.157056   3.474198   2.894161   1.086362   3.065628
     8  C    2.814319   1.381495   2.431078   3.293618   2.945546
     9  C    3.341699   2.463011   1.374450   3.214813   3.628789
    10  H    2.442458   1.086322   3.973912   3.613322   2.547540
    11  H    4.100568   3.978317   1.085678   3.214810   4.680340
    12  H    2.291265   1.086488   2.779606   2.866768   3.047477
    13  H    2.910695   2.626751   1.079517   2.375912   3.753842
    14  C    2.462690   3.865636   2.984173   1.457773   2.632384
    15  O    3.575132   4.990452   3.592471   2.376203   3.802401
    16  H    2.626459   3.815901   3.329094   2.160458   2.351488
    17  O    4.529514   3.626195   2.429934   4.370926   4.603792
    18  H    3.496121   2.148156   3.354397   4.114584   3.301883
    19  C    5.282607   4.789786   2.880441   4.797631   5.349460
    20  H    4.888336   4.827244   2.751637   4.218773   4.940686
    21  H    5.917267   5.346889   3.062812   5.304026   6.142541
    22  H    6.042822   5.502658   3.921825   5.667334   5.948360
                    6          7          8          9         10
     6  H    0.000000
     7  H    2.460556   0.000000
     8  C    3.463702   4.039021   0.000000
     9  C    4.143538   3.835245   1.413696   0.000000
    10  H    2.442148   4.242835   2.116178   3.418576   0.000000
    11  H    4.849342   3.338259   3.426509   2.157928   5.057680
    12  H    2.285801   3.130481   2.130036   2.790325   1.820487
    13  H    3.375919   2.373555   2.685635   2.116089   3.685821
    14  C    3.382370   2.164755   3.857312   3.489065   4.603309
    15  O    4.383497   2.635309   4.927269   4.323933   5.778027
    16  H    3.660691   3.106722   3.597909   3.389645   4.426923
    17  O    5.403812   5.046099   2.319051   1.362222   4.432794
    18  H    4.162449   4.973770   1.087200   2.112215   2.442213
    19  C    6.245522   5.399743   3.578838   2.387152   5.663018
    20  H    5.904080   4.819990   3.787422   2.601227   5.729276
    21  H    6.811318   5.723508   4.207960   2.886340   6.291058
    22  H    7.035575   6.358176   4.201640   3.227156   6.263938
                   11         12         13         14         15
    11  H    0.000000
    12  H    3.813885   0.000000
    13  H    1.832406   2.137142   0.000000
    14  C    3.268258   4.101926   3.237399   0.000000
    15  O    3.521077   5.100241   3.873708   1.212025   0.000000
    16  H    3.714316   4.332306   3.776200   1.116356   2.027229
    17  O    2.744995   4.080477   3.355051   4.292443   4.991157
    18  H    4.249605   3.070488   3.748393   4.464029   5.554603
    19  C    2.664951   5.162859   3.947526   4.346475   4.729294
    20  H    2.425012   5.189152   3.814408   3.521356   3.758619
    21  H    2.557843   5.528297   4.059156   4.954376   5.189606
    22  H    3.751733   6.006365   4.982096   5.093982   5.473055
                   16         17         18         19         20
    16  H    0.000000
    17  O    3.973145   0.000000
    18  H    3.946987   2.431757   0.000000
    19  C    4.076331   1.411878   3.724592   0.000000
    20  H    3.298013   2.098982   4.044804   1.087660   0.000000
    21  H    4.885648   2.074609   4.496678   1.098906   1.771050
    22  H    4.635496   2.004751   4.075381   1.089828   1.779450
                   21         22
    21  H    0.000000
    22  H    1.778855   0.000000
 Stoichiometry    C8H12O2
 Framework group  C1[X(C8H12O2)]
 Deg. of freedom    60
 Full point group                 C1      NOp   1
 Largest Abelian subgroup         C1      NOp   1
 Largest concise Abelian subgroup C1      NOp   1
                         Standard orientation:                         
 ---------------------------------------------------------------------
 Center     Atomic      Atomic             Coordinates (Angstroms)
 Number     Number       Type             X           Y           Z
 ---------------------------------------------------------------------
      1          6           0       -1.967365   -1.158113   -0.335024
      2          6           0       -0.360682   -2.314514    0.021193
      3          6           0        0.504737    0.168515    1.228390
      4          6           0       -1.922818    0.071030    0.306298
      5          1           0       -1.893939   -1.159462   -1.419557
      6          1           0       -2.628059   -1.918964    0.069340
[...]
 002904,0.03966123,0.06484048,0.00628083,-0.00771065,-0.00513972,-0.137
 91969,-0.05028042,-0.26198048,-0.00191631,0.00239429,0.00066472,0.0007
 9312,0.00361550,-0.00255808,0.00040063,0.00016895,0.00015314,-0.000190
 00,0.00050340,0.00027012,-0.00003954,-0.00007178,0.00003650,0.00187514
 ,0.00351493,0.00309171,0.00112280,-0.00120070,0.00034610,-0.00791073,-
 0.00496395,-0.01187012,0.00023485,0.00020961,0.00036706,0.13818272,0.0
 5094804,0.27553991,-0.00294776,0.00454972,-0.00084033,0.00482554,-0.00
 006838,-0.00168668,-0.07182222,-0.09281696,-0.06049262,-0.00557978,0.0
 0069398,0.01115503,0.00036668,-0.00000070,-0.00033743,0.00042893,-0.00
 032632,-0.00028366,-0.00018425,0.00030921,0.00055196,-0.00322853,-0.00
 395400,0.00360518,-0.01396457,-0.01960487,-0.01178016,-0.00047679,0.00
 045555,0.00058497,0.00408173,0.00562656,0.00354761,0.00118849,0.000418
 88,-0.00033377,0.08739973,0.00045357,-0.00070819,0.00030451,0.00130810
 ,-0.00059529,0.00389623,-0.09876541,-0.26705752,-0.10535549,-0.0002402
 6,0.00056237,-0.00094420,0.00004780,-0.00007620,-0.00002969,-0.0002321
 1,0.00005463,0.00015741,0.00024135,0.00030298,0.00045340,-0.00082806,-
 0.00190674,-0.00017689,0.00041080,0.00587781,0.00138016,0.00020164,0.0
 0015940,0.00019448,-0.00995230,-0.01517291,-0.01109197,0.00016949,-0.0
 0223563,0.00149229,0.10472588,0.28045533,0.00390491,-0.00493473,0.0006
 4423,-0.00547642,-0.00045053,0.00074631,-0.07225553,-0.10515550,-0.094
 55190,0.00572702,-0.00018103,-0.01120611,-0.00042515,0.00003492,0.0003
 0660,-0.00039594,0.00030796,0.00029672,-0.00051918,0.00010991,0.000782
 27,0.00250500,0.00457031,-0.00270582,0.00229355,-0.02083082,0.00127502
 ,0.00071614,-0.00019879,0.00024561,0.00580423,0.01130590,0.00877705,-0
 .00051950,0.00255863,-0.00070011,0.06360986,0.10868316,0.09433918,0.00
 826004,0.00344066,0.00640916,-0.00582715,0.00023286,0.00142396,-0.0096
 3329,0.00086365,0.00784285,-0.08854592,-0.03884121,-0.04988178,-0.0031
 5503,0.00406284,0.00149433,0.00447936,-0.00056823,-0.00392793,-0.00243
 048,-0.02198465,-0.00735268,-0.00086373,0.00267274,-0.00046943,-0.0013
 3228,0.00438997,0.00535035,0.00003874,0.00004366,-0.00015303,0.0001417
 9,0.00051347,-0.00000241,0.00027860,0.00002693,-0.00066578,0.00032971,
 0.00011991,-0.00062767,0.43564297,0.00637581,-0.03778001,0.00619242,-0
 .00577772,-0.00222990,0.00186107,0.01390514,-0.00209868,-0.00898178,-0
 .04015401,-0.19273384,-0.05387008,-0.00278345,-0.00023262,-0.00302420,
 0.00092275,-0.00109630,0.00035679,0.00227319,0.00228418,0.00275377,-0.
 00428912,0.00124003,0.00169886,0.00425399,0.01028418,-0.00428218,0.000
 08696,0.00023516,-0.00017483,-0.00279170,0.00066352,0.00425300,0.00000
 945,0.00032767,-0.00068365,-0.00084439,-0.00103169,0.00092573,-0.16413
 320,0.86948179,0.00716998,0.02265186,0.00892519,-0.00016354,0.00035236
 ,-0.00119172,0.00399823,-0.00087940,-0.00528833,-0.04516047,-0.0744916
 1,-0.11749357,0.00265204,0.00215626,-0.00084653,-0.00472142,0.00565273
 ,-0.00146485,-0.00423176,-0.02280333,-0.00728012,-0.00155354,0.0003397
 7,0.00023459,0.00410118,0.00483854,0.00269153,-0.00023331,0.00022969,0
 .00031161,0.00189100,-0.00030981,-0.00220252,-0.00011204,0.00009254,0.
 00004928,-0.00084332,0.00060193,0.00021010,0.26482610,-0.13078364,0.49
 278017,0.00407890,-0.00292663,0.00028532,-0.00059061,-0.00029551,-0.00
 001495,0.00181293,0.00285191,-0.00059314,0.01764182,0.01056891,0.00540
 048,0.00017410,-0.00131676,-0.00003720,-0.00151345,0.00065298,0.000801
 27,-0.00002179,0.00291552,0.00240406,0.00028994,0.00072643,0.00014808,
 0.00067903,-0.00089978,-0.00046938,-0.00000673,0.00001722,-0.00001493,
 0.00023671,-0.00021241,-0.00055936,0.00010265,-0.00016175,0.00006300,-
 0.00092080,0.00017061,0.00060452,-0.19118087,0.22501983,-0.12578883,0.
 17272333,-0.01066014,0.00366774,-0.00924797,0.00600718,0.00090159,-0.0
 0091648,-0.00164796,-0.00255152,0.00300999,0.02343440,-0.07460229,0.01
 496773,0.00144567,0.00052569,0.00024838,0.00090917,-0.00167259,0.00114
 031,-0.00100258,0.00281028,0.00005102,0.00108922,-0.00358693,0.0003640
 1,-0.00497281,-0.00408764,-0.00218911,0.00013960,-0.00012275,0.0000271
 4,0.00060655,-0.00033733,-0.00138005,-0.00051736,0.00020936,0.00049874
 ,0.00087197,0.00045841,-0.00064092,0.22956298,-0.57638620,0.21629753,-
 0.26872379,0.65364688,0.00033558,-0.00613033,0.00133814,-0.00180326,-0
 .00041260,0.00061197,0.00299944,-0.00117862,-0.00161369,0.00513665,0.0
 0659578,0.02469633,-0.00083323,-0.00090283,0.00054346,0.00088195,-0.00
 101427,0.00059055,0.00226117,0.00340904,0.00067262,0.00014445,0.000678
 81,-0.00006636,0.00033926,-0.00040834,-0.00146886,0.00000934,-0.000003
 60,-0.00007125,-0.00168762,-0.00008621,0.00198504,0.00017773,-0.000018
 91,-0.00020537,0.00017852,-0.00063125,0.00023460,-0.12362490,0.2093861
 3,-0.18909003,0.14059596,-0.24333268,0.16623422,-0.00140738,0.00168714
 ,-0.00040551,0.00090061,0.00010820,-0.00019372,0.00090382,0.00012891,-
 0.00073924,0.00346998,0.00036752,-0.01228366,0.00023892,-0.00075128,0.
 00049368,-0.00020742,0.00004856,0.00058502,0.00147133,-0.00096354,-0.0
 0153073,0.00052835,-0.00074840,-0.00025737,-0.00015147,-0.00096514,-0.
 00022352,0.00001111,-0.00002551,0.00002196,-0.00024216,0.00001077,0.00
 017243,-0.00005998,0.00001445,0.00012958,-0.00003488,0.00005549,0.0001
 8275,-0.14593246,-0.02454718,-0.10109821,-0.00273573,0.01960270,-0.024
 12245,0.14305014,-0.00043489,0.00109209,-0.00172407,-0.00046135,-0.000
 09763,0.00011229,-0.00071961,0.00066706,0.00068397,-0.01850417,-0.0018
 3909,-0.02194920,0.00031751,-0.00013030,0.00112068,-0.00002405,0.00040
 884,0.00027253,-0.00042837,-0.00499053,-0.00198360,0.00037823,0.000177
 27,-0.00009086,0.00068241,-0.00003381,0.00040145,0.00003305,-0.0000063
 7,-0.00001580,0.00016223,0.00000160,-0.00018065,-0.00003395,0.00000404
 ,0.00002478,-0.00031808,0.00005757,0.00023909,-0.01698996,-0.06340662,
 -0.02047565,0.03107041,-0.00259455,0.03400023,0.00508442,0.07076029,0.
 00113367,-0.00091385,0.00047597,-0.00044316,0.00002506,0.00011349,-0.0
 0124883,-0.00007941,0.00087855,-0.01507529,0.00026957,-0.00534847,0.00
 014750,-0.00083394,0.00035666,0.00022545,-0.00027052,0.00049387,-0.001
 68287,-0.00239569,0.00070118,0.00054470,0.00050157,0.00024923,-0.00063
 584,-0.00145208,-0.00050271,-0.00000295,-0.00000857,-0.00000976,-0.000
 03382,-0.00004880,-0.00004450,0.00002360,-0.00004440,-0.00004673,-0.00
 001681,-0.00002221,-0.00002800,-0.09973799,-0.02561937,-0.17801634,-0.
 02297422,0.02011912,-0.00493862,0.13926247,0.00955158,0.18520976,-0.00
 210461,-0.00034695,0.00128885,0.00253851,0.00205107,-0.00291130,-0.022
 10001,-0.03552022,-0.01977159,0.00109737,0.00068000,0.00128491,-0.0001
 3113,-0.00002055,0.00008935,-0.00030918,0.00009228,0.00020874,0.000352
 32,0.00030199,-0.00007351,0.00740878,-0.01175674,0.00217807,-0.1573387
 8,-0.08471330,-0.07168657,0.00036586,0.00012462,-0.00001451,0.00014116
 ,0.00029518,0.00232466,-0.00025137,0.00029247,0.00055442,0.00042951,0.
 00236549,-0.00598065,0.00044915,-0.00401247,-0.00094312,-0.00035791,0.
 00242702,-0.00025778,-0.00009002,0.00009236,0.00046795,0.24476437,-0.0
 0579728,0.00172098,0.00175055,0.00794501,0.00132976,0.00308333,-0.0120
 0056,-0.00394306,-0.01048544,-0.00209656,-0.00037327,0.00737430,0.0000
 4514,-0.00031928,-0.00010576,-0.00030585,0.00027660,0.00026829,0.00066
 952,0.00073585,0.00000710,-0.03187140,-0.05994060,-0.01029405,-0.11603
 417,-0.21599897,-0.04804354,-0.00168717,-0.00090633,0.00058288,0.00014
 052,-0.00213964,-0.00117442,-0.00078194,0.00051368,-0.00007428,-0.0004
 5084,0.00127309,0.00182448,-0.00136570,-0.01093620,-0.00369034,0.00059
 285,0.00697552,-0.00130173,0.00056335,-0.00006884,0.00099639,0.1090677
 9,0.56154846,0.00153738,-0.00418846,0.00077163,-0.00708258,0.00364885,
 0.00030913,-0.02503662,-0.02302362,-0.00547455,0.00189547,0.00087624,-
 0.00222947,-0.00019793,-0.00006925,0.00016320,-0.00083568,0.00046794,0
 .00048416,0.00010528,0.00037412,0.00049563,0.01527218,0.01975154,0.008
 64122,-0.06196017,-0.02301981,-0.08982561,0.00094986,0.00072723,-0.000
 09666,0.00358244,0.00023206,-0.00099565,0.00065251,-0.00009959,-0.0001
 6791,-0.00659323,0.00153071,0.00134342,-0.00255050,0.00062055,-0.00300
 978,0.00025469,-0.00022447,0.00151601,0.00048964,-0.00011490,0.0008152
 7,0.12331114,-0.07098225,0.21045299,-0.00085085,0.00100768,-0.00025597
 ,-0.00753759,-0.00121939,-0.01658155,0.00321262,-0.00032773,-0.0020883
 5,0.00009972,-0.00117926,0.00077445,-0.00003475,0.00015184,0.00023215,
 0.00020751,-0.00009421,-0.00013031,0.00005150,-0.00001586,-0.00000137,
 -0.17457919,-0.01461186,-0.14895139,0.00078141,0.00032069,-0.00381803,
 -0.00191173,0.00170355,0.00237090,-0.00019263,-0.00012977,0.00010258,0
 .00193093,-0.00379095,-0.00069470,-0.00010220,0.00007466,0.00023506,0.
 00001386,0.00029681,-0.00040789,0.00013291,-0.00030670,0.00013593,-0.0
 0000826,0.00005657,0.00014809,-0.00169343,-0.00101801,0.00156852,0.180
 68782,-0.00003678,-0.00023941,0.00006916,-0.01597175,0.00080580,-0.019
 73215,-0.00122861,-0.00448615,0.00241474,-0.00015104,0.00010650,0.0001
 5095,-0.00009386,0.00008544,-0.00007040,0.00007013,0.00008273,0.000048
 82,0.00004920,-0.00006568,-0.00005301,-0.01739989,-0.05205103,-0.00421
 387,0.01730041,0.00388617,0.02084399,0.00239136,-0.00020823,-0.0014741
 2,0.00135188,0.00000230,0.00061353,-0.00602448,-0.00132096,0.00156420,
 -0.00013303,-0.00002623,0.00002350,0.00012299,-0.00002015,0.00043246,-
 0.00012621,0.00008365,-0.00011984,-0.00002964,0.00000610,-0.00014852,0
 .00121076,0.00184940,-0.00123861,0.01869346,0.05161958,0.00129822,-0.0
 0183593,0.00015080,-0.00090808,0.00117033,0.00481103,-0.00256415,0.004
 78539,0.00054554,0.00057210,0.00099780,-0.00100963,-0.00035066,-0.0000
 4913,-0.00007597,-0.00027948,0.00021837,0.00026828,0.00001887,0.000034
 07,0.00001235,-0.15191048,-0.00026888,-0.21264366,-0.01470647,-0.00538
 218,-0.00942482,0.00242666,-0.00158528,-0.00114358,-0.00068663,-0.0001
 2343,-0.00044729,-0.00267952,0.00213062,0.00226475,0.00036040,-0.00032
 480,-0.00000314,-0.00015394,0.00000593,-0.00010573,-0.00003902,0.00015
 146,0.00012515,0.00002922,-0.00000732,-0.00004879,0.00227119,-0.000982
 38,-0.00008098,0.16693194,0.00121166,0.21666795,0.00040506,-0.00036870
 ,0.00027495,0.00069923,-0.00099386,0.00035649,-0.00163061,-0.00441934,
 0.00095263,-0.00025901,0.00077677,0.00064689,-0.00004729,-0.00007061,0
 .00000430,-0.00007112,0.00009206,0.00005371,0.00000947,0.00014584,0.00
 007555,-0.00185216,-0.00326609,-0.00309725,-0.00023570,-0.02398826,0.0
 1259633,-0.00036303,-0.00017371,0.00010931,-0.00161516,-0.00255601,-0.
 00004777,0.00000502,-0.00001865,0.00000265,0.00011512,-0.00006970,0.00
 009760,-0.00054747,-0.00367010,-0.00023073,0.00081269,0.00226118,-0.00
 093024,0.00014545,-0.00003989,0.00022027,-0.08478597,0.03963896,-0.035
 40989,-0.00025300,0.00010960,0.00036198,0.61970463,0.00093024,0.000473
 48,-0.00083228,-0.00026326,-0.00108816,0.00079089,0.00214214,0.0050249
 3,0.00067968,0.00010409,-0.00113246,-0.00136205,0.00000478,0.00008130,
 0.00006075,0.00026903,-0.00015154,-0.00016350,-0.00004466,-0.00023792,
 -0.00010459,-0.00237916,0.00401597,-0.00101574,-0.00854629,-0.05380420
 ,0.00975654,0.00003675,0.00004162,-0.00010459,-0.00005671,-0.00147970,
 0.00028435,0.00024137,0.00000905,0.00002140,0.00125711,-0.00076051,0.0
 0194872,-0.00146722,0.00683977,-0.00040258,-0.00055990,-0.00503556,0.0
 0221888,0.00015420,0.00003712,0.00009698,0.01458157,-0.20726472,0.0611
 4125,0.00051542,-0.00044984,0.00000284,0.03475121,0.53673324,-0.000260
 74,-0.00061885,0.00027677,-0.00071425,0.00021699,0.00140098,-0.0027364
 2,-0.00637728,-0.00050818,0.00009939,0.00017110,0.00003769,-0.00003991
 ,0.00002118,-0.00002552,-0.00020667,0.00009682,0.00009246,-0.00004641,
 0.00007119,0.00003861,-0.00257402,-0.00220329,-0.00083205,0.00826886,-
 0.00560301,0.00555904,-0.00025143,-0.00024417,0.00010211,-0.00084026,-
 0.00137929,-0.00059054,0.00006892,0.00010026,-0.00015761,-0.00056871,0
 .00011182,-0.00026145,0.00116855,-0.00156907,0.00033761,-0.00014560,0.
 00152536,-0.00054013,-0.00023087,-0.00000783,-0.00021441,-0.02643245,0
 .08381615,-0.11638515,0.00037329,-0.00007458,0.00006635,0.01141551,0.0
 5258406,0.57957224,0.00032750,-0.00003553,0.00008115,-0.00015955,-0.00
 017323,0.00001328,-0.00013358,0.00043819,-0.00111210,-0.00022850,0.000
 72997,-0.00004143,-0.00001839,0.00001050,0.00000639,0.00006106,-0.0000
 3172,-0.00002784,0.00003326,-0.00002644,-0.00002598,-0.00008751,0.0006
 7471,0.00032452,0.00006146,-0.00170937,-0.00083771,0.00003092,0.000022
 41,0.00000149,0.00044183,-0.00123135,-0.00068516,0.00004161,0.00002322
 ,-0.00002318,-0.00016158,-0.00023355,0.00062749,-0.00012828,-0.0016789
 1,0.00099897,-0.00081333,0.00058900,-0.00051879,0.00016825,0.00009635,
 -0.00022685,0.00211080,0.00804343,-0.00444692,0.00003195,-0.00006392,0
 .00003425,-0.27669568,0.07895890,0.05699153,0.29450342,-0.00048101,0.0
 0047217,0.00008777,0.00066617,0.00031667,-0.00001523,-0.00047171,0.000
 08117,-0.00096651,-0.00046165,-0.00017871,0.00076535,0.00002733,-0.000
 03336,-0.00002121,0.00003316,0.00000333,-0.00002086,0.00003018,0.00006
 744,0.00000809,-0.00091011,-0.00151352,0.00052398,0.00627772,0.0057809
 1,0.00105623,-0.00002129,-0.00002655,0.00000618,-0.00012675,-0.0013907
 9,-0.00160499,-0.00012316,0.00006050,-0.00002803,-0.00038371,0.0002224
 3,0.00020792,-0.00072507,-0.00195303,0.00031801,0.00042207,0.00083596,
 -0.00049237,0.00014796,-0.00001779,0.00020511,0.02940694,-0.02875392,0
 .00098433,0.00007217,0.00012430,-0.00017439,0.07191079,-0.07888485,-0.
 02056551,-0.09022304,0.09475402,0.00001518,0.00007127,-0.00006989,0.00
 010235,-0.00003446,-0.00008149,0.00102809,-0.00026088,0.00054247,-0.00
 001231,-0.00014070,-0.00029334,0.00001950,0.00003146,-0.00001519,0.000
 00782,-0.00001984,-0.00002315,-0.00006970,-0.00008888,-0.00000972,0.00
 019977,0.00021369,-0.00010796,-0.00163593,-0.00218016,-0.00034954,-0.0
 0000989,0.00003066,-0.00000432,-0.00028612,-0.00067805,-0.00067818,0.0
 0000455,-0.00001836,-0.00000928,0.00000934,0.00022606,-0.00017172,0.00
 081031,0.00119770,0.00054421,-0.00020496,-0.00061282,-0.00053194,-0.00
 031393,0.00013852,-0.00018532,-0.01854700,0.01436713,0.00364938,-0.000
 06305,-0.00002228,0.00005381,0.05874284,-0.02276560,-0.06932221,-0.057
 42662,0.01680251,0.06929698,-0.00043080,0.00050066,-0.00013888,0.00052
 700,0.00011743,-0.00014266,0.00024525,0.00023372,0.00018469,-0.0002873
 4,-0.00045963,0.00025908,0.00005147,0.00001306,-0.00002373,0.00006586,
 -0.00004484,-0.00005010,0.00002045,-0.00006046,-0.00005061,-0.00020293
 ,-0.00038144,0.00025232,0.00033775,0.00002722,0.00085273,-0.00001221,0
 .00002535,0.00000406,-0.00144938,-0.00051450,0.00046315,-0.00003880,0.
 00002070,0.00003640,0.00014461,0.00017288,-0.00024706,0.00005793,0.000
 98390,0.00022651,-0.00028201,-0.00075766,0.00016806,-0.00005595,0.0000
 3941,-0.00010215,0.00230526,0.00089821,-0.00905668,0.00001615,-0.00002
 231,-0.00002370,-0.05819043,0.00337607,0.03158566,-0.00164752,0.003079
 97,0.03011363,0.05436782,-0.00068034,0.00083638,-0.00002665,0.00127663
 ,0.00012325,-0.00045593,-0.00029474,0.00039686,-0.00188689,-0.00041294
 ,-0.00022143,0.00083587,0.00007526,-0.00003476,-0.00003352,0.00010531,
 -0.00004935,-0.00005794,0.00008001,0.00001449,-0.00004139,-0.00009068,
 -0.00214257,0.00021502,0.00323155,0.00660857,0.00306099,-0.00004171,0.
 00002241,0.00004696,-0.00134939,-0.00072697,0.00068072,-0.00017109,0.0
 0005474,0.00009060,0.00014719,-0.00001790,-0.00014269,0.00003702,-0.00
 072482,-0.00006389,0.00013846,0.00040139,-0.00008238,0.00004063,-0.000
 01921,0.00004542,-0.00366987,-0.01107539,0.04096338,-0.00020256,0.0001
 9579,-0.00003375,0.00373859,-0.05657590,-0.03746242,-0.00088777,0.0006
 6597,-0.01078572,-0.00540793,0.06253086,0.00031284,-0.00007759,-0.0000
 7753,-0.00029974,-0.00024230,0.00018522,-0.00023381,0.00087323,-0.0002
 7344,0.00013982,0.00017115,-0.00013202,-0.00002090,-0.00001439,0.00002
 723,0.00002865,-0.00000648,0.00001070,0.00000970,-0.00000367,-0.000003
 25,0.00014552,0.00107357,0.00017370,-0.00264770,-0.00412315,-0.0000341
 6,0.00010863,-0.00000666,-0.00006249,0.00000450,-0.00045160,0.00048905
 ,0.00005454,0.00002853,0.00003552,0.00019172,-0.00028512,0.00018412,-0
 .00021482,-0.00011136,-0.00019932,0.00025586,0.00000261,0.00007528,0.0
 0004952,-0.00000815,0.00010090,-0.00103998,0.01571502,-0.01634366,0.00
 014313,-0.00020530,0.00002621,0.03186246,-0.03154239,-0.30413964,-0.00
 008584,-0.00261339,-0.00609239,-0.03095451,0.02393401,0.33496906,-0.00
 001454,-0.00005308,-0.00004377,-0.00008560,0.00001153,-0.00001801,-0.0
 0028229,0.00010546,-0.00059220,0.00015108,-0.00000054,-0.00003181,-0.0
 0000181,-0.00000085,0.00000515,-0.00000803,-0.00000391,0.00001856,0.00
 001443,0.00000932,-0.00000165,0.00031422,0.00018613,-0.00001119,0.0007
 3352,0.00223959,-0.00032103,0.00002254,0.00002020,0.00001063,0.0000530
 5,-0.00025465,0.00047127,0.00003306,-0.00000458,0.00001758,0.00011332,
 -0.00019630,0.00013898,-0.00011517,0.00055443,-0.00037582,-0.00026174,
 -0.00035764,0.00041425,0.00003774,-0.00005862,0.00000707,0.00719935,0.
 00580469,0.00355109,-0.00000276,-0.00001828,-0.00000271,-0.19535005,-0
 .12400568,-0.07492395,-0.01773813,-0.01814698,-0.01248383,0.00445783,0
 .00433836,0.00219041,0.20072998,-0.00007261,0.00001317,0.00004235,0.00
 034621,-0.00023739,0.00037863,0.00071454,-0.00018720,0.00056350,-0.000
 07207,0.00014808,0.00025605,-0.00000673,-0.00001341,-0.00000515,-0.000
 00762,0.00001029,0.00001649,0.00000964,0.00002746,0.00001262,-0.001239
 68,-0.00117854,-0.00071481,0.00256664,-0.00198915,0.00396842,-0.000130
 16,-0.00011835,0.00001198,0.00002388,0.00036935,-0.00025630,-0.0000184
 6,0.00003629,-0.00003326,-0.00015476,0.00016480,-0.00020522,-0.0000144
 3,-0.00072625,-0.00006342,0.00007552,0.00046086,-0.00017289,0.00001639
 ,-0.00000725,0.00002655,-0.02294946,-0.03450313,-0.00835723,0.00000346
 ,0.00001991,0.00005900,-0.11379010,-0.14639114,-0.06260964,0.00670818,
 0.00936766,0.00452875,-0.00183983,-0.00026241,-0.00210658,0.12983144,0
 .17499635,0.00018853,-0.00022165,0.00004336,-0.00038781,-0.00000752,-0
 .00006107,-0.00084251,0.00018424,-0.00012533,0.00015988,0.00011102,-0.
 00020264,-0.00001976,0.00000030,0.00001261,-0.00002611,0.00000851,0.00
 002182,-0.00000448,-0.00000193,0.00000197,0.00044787,0.00088474,0.0004
 0609,-0.00065496,0.00236883,-0.00109087,0.00012242,0.00000468,-0.00005
 473,0.00039116,-0.00059250,0.00001165,-0.00000715,-0.00000304,0.000016
 60,-0.00001787,-0.00017054,0.00024305,0.00003723,-0.00015178,0.0001045
 5,0.00002837,0.00014111,-0.00009714,-0.00001709,0.00001290,-0.00001124
 ,0.01367918,0.01734855,0.00596738,-0.00002343,-0.00002032,-0.00000861,
 -0.07805758,-0.07129300,-0.09450696,0.00637936,0.00553703,0.00385879,-
 0.02335621,-0.01879978,-0.00891907,0.08198098,0.06466016,0.09438978\\-
 0.00003733,0.00001297,0.00001583,0.00003815,-0.00002492,-0.00001680,-0
 .00000950,-0.00001326,-0.00001552,-0.00000846,0.00000067,0.00001467,0.
 00000845,-0.00000288,-0.00000110,0.00000469,-0.00000047,-0.00000965,0.
 00000438,0.00000346,-0.00000127,-0.00000968,0.00000210,-0.00000074,-0.
 00001944,0.00001023,0.00000149,-0.00000275,0.00000600,0.00000717,-0.00
 001239,-0.00002095,0.00000670,-0.00001153,0.00000664,0.00000306,-0.000
 00255,-0.00000112,0.00000082,0.00000590,0.00000139,-0.00000632,-0.0000
 0306,0.00000072,0.00000841,0.00000937,-0.00000109,-0.00000176,0.000023
 58,0.00001328,-0.00001618,-0.00000213,-0.00000359,-0.00000097,0.000012
 46,0.00000599,0.00001254,0.00000779,0.00000579,-0.00000089,0.00000381,
 0.00000143,-0.00000175,0.00000023,-0.00000238,0.00000227\\\@
 The archive entry for this job was punched.


 ALMOST ANYTHING IS EASIER TO GET INTO THAN OUT OF.

                         -- AGNES ALLEN'S LAW FROM
                PAUL DICKSON'S "THE OFFICIAL RULES"
 Job cpu time:       0 days  0 hours 24 minutes 27.4 seconds.
 Elapsed time:       0 days  0 hours  1 minutes 33.3 seconds.
 File lengths (MBytes):  RWF=     84 Int=      0 D2E=      0 Chk=      5 Scr=      1
 Normal termination of Gaussian 16 at Tue Jun 21 11:11:39 2022.
