Job Start Time: Tue Jun 21 10:16:20 MDT 2022
SLURM Job ID: 40860
SLURM Job Name: DATS_14_endo_iv
 Entering Gaussian System, Link 0=/opt/apps/Gaussian/G16C/g16/g16
 Initial command:
 /opt/apps/Gaussian/G16C/g16/l1.exe "/tmp/Gau-3358123.inp" -scrdir="/tmp/"
 Entering Link 1 = /opt/apps/Gaussian/G16C/g16/l1.exe PID=   3358139.
  
 Copyright (c) 1988-2019, Gaussian, Inc.  All Rights Reserved.
  
 This is part of the Gaussian(R) 16 program.  It is based on
 the Gaussian(R) 09 system (copyright 2009, Gaussian, Inc.),
 the Gaussian(R) 03 system (copyright 2003, Gaussian, Inc.),
 the Gaussian(R) 98 system (copyright 1998, Gaussian, Inc.),
 the Gaussian(R) 94 system (copyright 1995, Gaussian, Inc.),
 the Gaussian 92(TM) system (copyright 1992, Gaussian, Inc.),
 the Gaussian 90(TM) system (copyright 1990, Gaussian, Inc.),
 the Gaussian 88(TM) system (copyright 1988, Gaussian, Inc.),
 the Gaussian 86(TM) system (copyright 1986, Carnegie Mellon
 University), and the Gaussian 82(TM) system (copyright 1983,
 Carnegie Mellon University). Gaussian is a federally registered
 trademark of Gaussian, Inc.
  
 This software contains proprietary and confidential information,
 including trade secrets, belonging to Gaussian, Inc.
  
 This software is provided under written license and may be
 used, copied, transmitted, or stored only in accord with that
 written license.
  
 The following legend is applicable only to US Government
 contracts under FAR:
  
                    RESTRICTED RIGHTS LEGEND
  
 Use, reproduction and disclosure by the US Government is
 subject to restrictions as set forth in subparagraphs (a)
 and (c) of the Commercial Computer Software - Restricted
 Rights clause in FAR 52.227-19.
  
 Gaussian, Inc.
 340 Quinnipiac St., Bldg. 40, Wallingford CT 06492
  
  
 ---------------------------------------------------------------
 Warning -- This program may not be used in any manner that
 competes with the business of Gaussian, Inc. or will provide
 assistance to any competitor of Gaussian, Inc.  The licensee
 of this program is prohibited from giving any competitor of
 Gaussian, Inc. access to this program.  By using this program,
 the user acknowledges that Gaussian, Inc. is engaged in the
 business of creating and licensing software in the field of
 computational chemistry and represents and warrants to the
 licensee that it is not a competitor of Gaussian, Inc. and that
 it will not use this program in any manner prohibited above.
 ---------------------------------------------------------------
  

 Cite this work as:
 Gaussian 16, Revision C.01,
 M. J. Frisch, G. W. Trucks, H. B. Schlegel, G. E. Scuseria, 
 M. A. Robb, J. R. Cheeseman, G. Scalmani, V. Barone, 
 G. A. Petersson, H. Nakatsuji, X. Li, M. Caricato, A. V. Marenich, 
 J. Bloino, B. G. Janesko, R. Gomperts, B. Mennucci, H. P. Hratchian, 
 J. V. Ortiz, A. F. Izmaylov, J. L. Sonnenberg, D. Williams-Young, 
 F. Ding, F. Lipparini, F. Egidi, J. Goings, B. Peng, A. Petrone, 
 T. Henderson, D. Ranasinghe, V. G. Zakrzewski, J. Gao, N. Rega, 
 G. Zheng, W. Liang, M. Hada, M. Ehara, K. Toyota, R. Fukuda, 
 J. Hasegawa, M. Ishida, T. Nakajima, Y. Honda, O. Kitao, H. Nakai, 
 T. Vreven, K. Throssell, J. A. Montgomery, Jr., J. E. Peralta, 
 F. Ogliaro, M. J. Bearpark, J. J. Heyd, E. N. Brothers, K. N. Kudin, 
 V. N. Staroverov, T. A. Keith, R. Kobayashi, J. Normand, 
 K. Raghavachari, A. P. Rendell, J. C. Burant, S. S. Iyengar, 
 J. Tomasi, M. Cossi, J. M. Millam, M. Klene, C. Adamo, R. Cammi, 
 J. W. Ochterski, R. L. Martin, K. Morokuma, O. Farkas, 
 J. B. Foresman, and D. J. Fox, Gaussian, Inc., Wallingford CT, 2019.
 
 ******************************************
 Gaussian 16:  AS64L-G16RevC.01  3-Jul-2019
                21-Jun-2022 
 ******************************************
 %chk=DATS_14_endo_iv.chk
 %nprocshared=16
 Will use up to   16 processors via shared memory.
 -------------------------------------------------
 # opt=(calcfc,ts,noeigentest) freq 6-31g(d) m062x
 -------------------------------------------------
 1/5=1,10=4,11=1,18=20,26=3,38=1/1,3;
 2/9=110,12=2,17=6,18=5,40=1/2;
 3/5=1,6=6,7=1,11=2,25=1,30=1,71=2,74=-55,140=1/1,2,3;
 4//1;
 5/5=2,38=5/2;
 8/6=4,10=90,11=11/1;
 11/6=1,8=1,9=11,15=111,16=1/1,2,10;
 10/6=1,13=1/2;
 6/7=2,8=2,9=2,10=2,28=1/1;
 7/10=1,25=1/1,2,3,16;
 1/5=1,10=4,11=1,18=20,26=3/3(2);
 2/9=110/2;
 99//99;
 2/9=110/2;
 3/5=1,6=6,7=1,11=2,25=1,30=1,71=1,74=-55/1,2,3;
 4/5=5,16=3,69=1/1;
 5/5=2,38=5/2;
 7//1,2,3,16;
 1/5=1,11=1,18=20,26=3/3(-5);
 2/9=110/2;
 6/7=2,8=2,9=2,10=2,19=2,28=1/1;
 99/9=1/99;
 -------------------
 Title Card Required
 -------------------
 Symbolic Z-matrix:
 Charge =  0 Multiplicity = 1
 C                    -1.46442  -0.56807  -1.32635 
 C                     0.09333  -1.72764  -0.63331 
 C                    -0.6618   -0.69789   1.96113 
 C                    -2.10543   0.14941  -0.32654 
 H                    -0.79352  -0.00613  -1.97025 
 H                    -1.97319  -1.40925  -1.78957 
 H                    -3.02228  -0.19298   0.14161 
 C                     0.87261  -0.81866   0.0633 
 C                     0.5031   -0.35359   1.37092 
 H                     0.48015  -2.07894  -1.58449 
 H                    -0.94845  -0.2551    2.90938 
 H                     1.11468   0.41255   1.83475 
 H                    -0.51082  -2.43206  -0.07673 
 H                    -1.30902  -1.4761    1.57811 
 O                     1.91672  -0.30717  -0.61036 
 C                     2.22272  -0.81754  -1.90048 
 H                     1.47263  -0.50292  -2.63482 
 H                     3.1842   -0.3788   -2.16634 
 H                     2.29865  -1.90811  -1.86459 
 C                    -1.52803   1.4075    0.06487 
 O                    -2.01005   2.12728   0.93898 
 H                    -0.61474   1.72882  -0.47428 
 
 Add virtual bond connecting atoms C2         and C1         Dist= 3.90D+00.

 GradGradGradGradGradGradGradGradGradGradGradGradGradGradGradGradGradGrad
 Berny optimization.
 Initialization pass.
                           ----------------------------
                           !    Initial Parameters    !
                           ! (Angstroms and Degrees)  !
 --------------------------                            --------------------------
 ! Name  Definition              Value          Derivative Info.                !
 --------------------------------------------------------------------------------
 ! R1    R(1,2)                  2.0619         calculate D2E/DX2 analytically  !
 ! R2    R(1,4)                  1.3876         calculate D2E/DX2 analytically  !
 ! R3    R(1,5)                  1.0865         calculate D2E/DX2 analytically  !
 ! R4    R(1,6)                  1.0867         calculate D2E/DX2 analytically  !
 ! R5    R(2,8)                  1.3852         calculate D2E/DX2 analytically  !
 ! R6    R(2,10)                 1.0853         calculate D2E/DX2 analytically  !
 ! R7    R(2,13)                 1.0821         calculate D2E/DX2 analytically  !
 ! R8    R(3,9)                  1.3505         calculate D2E/DX2 analytically  !
 ! R9    R(3,11)                 1.0851         calculate D2E/DX2 analytically  !
 ! R10   R(3,14)                 1.0822         calculate D2E/DX2 analytically  !
 ! R11   R(4,7)                  1.0849         calculate D2E/DX2 analytically  !
 ! R12   R(4,20)                 1.4385         calculate D2E/DX2 analytically  !
 ! R13   R(8,9)                  1.4362         calculate D2E/DX2 analytically  !
 ! R14   R(8,15)                 1.3437         calculate D2E/DX2 analytically  !
 ! R15   R(9,12)                 1.0845         calculate D2E/DX2 analytically  !
 ! R16   R(15,16)                1.4208         calculate D2E/DX2 analytically  !
 ! R17   R(16,17)                1.0958         calculate D2E/DX2 analytically  !
 ! R18   R(16,18)                1.0898         calculate D2E/DX2 analytically  !
 ! R19   R(16,19)                1.0938         calculate D2E/DX2 analytically  !
 ! R20   R(20,21)                1.2306         calculate D2E/DX2 analytically  !
 ! R21   R(20,22)                1.1082         calculate D2E/DX2 analytically  !
 ! A1    A(2,1,4)              113.4295         calculate D2E/DX2 analytically  !
 ! A2    A(2,1,5)               91.3497         calculate D2E/DX2 analytically  !
 ! A3    A(2,1,6)               93.5351         calculate D2E/DX2 analytically  !
 ! A4    A(4,1,5)              116.4141         calculate D2E/DX2 analytically  !
 ! A5    A(4,1,6)              119.4123         calculate D2E/DX2 analytically  !
 ! A6    A(5,1,6)              115.9008         calculate D2E/DX2 analytically  !
 ! A7    A(1,2,8)              103.0036         calculate D2E/DX2 analytically  !
 ! A8    A(1,2,10)              99.0173         calculate D2E/DX2 analytically  !
 ! A9    A(1,2,13)              96.7289         calculate D2E/DX2 analytically  !
 ! A10   A(8,2,10)             116.9147         calculate D2E/DX2 analytically  !
 ! A11   A(8,2,13)             118.8543         calculate D2E/DX2 analytically  !
 ! A12   A(10,2,13)            116.0454         calculate D2E/DX2 analytically  !
 ! A13   A(9,3,11)             120.3807         calculate D2E/DX2 analytically  !
 ! A14   A(9,3,14)             122.9906         calculate D2E/DX2 analytically  !
 ! A15   A(11,3,14)            116.4069         calculate D2E/DX2 analytically  !
 ! A16   A(1,4,7)              122.5587         calculate D2E/DX2 analytically  !
 ! A17   A(1,4,20)             117.5707         calculate D2E/DX2 analytically  !
 ! A18   A(7,4,20)             119.8549         calculate D2E/DX2 analytically  !
 ! A19   A(2,8,9)              121.7106         calculate D2E/DX2 analytically  !
 ! A20   A(2,8,15)             115.7722         calculate D2E/DX2 analytically  !
 ! A21   A(9,8,15)             122.2151         calculate D2E/DX2 analytically  !
 ! A22   A(3,9,8)              122.4973         calculate D2E/DX2 analytically  !
 ! A23   A(3,9,12)             118.6603         calculate D2E/DX2 analytically  !
 ! A24   A(8,9,12)             118.2339         calculate D2E/DX2 analytically  !
 ! A25   A(8,15,16)            119.0684         calculate D2E/DX2 analytically  !
 ! A26   A(15,16,17)           110.9735         calculate D2E/DX2 analytically  !
 ! A27   A(15,16,18)           105.4809         calculate D2E/DX2 analytically  !
 ! A28   A(15,16,19)           110.0796         calculate D2E/DX2 analytically  !
 ! A29   A(17,16,18)           108.9558         calculate D2E/DX2 analytically  !
 ! A30   A(17,16,19)           110.8408         calculate D2E/DX2 analytically  !
 ! A31   A(18,16,19)           110.375          calculate D2E/DX2 analytically  !
 ! A32   A(4,20,21)            123.1996         calculate D2E/DX2 analytically  !
 ! A33   A(4,20,22)            116.8726         calculate D2E/DX2 analytically  !
 ! A34   A(21,20,22)           119.9195         calculate D2E/DX2 analytically  !
 ! D1    D(4,1,2,8)            -53.5423         calculate D2E/DX2 analytically  !
 ! D2    D(4,1,2,10)          -174.0091         calculate D2E/DX2 analytically  !
 ! D3    D(4,1,2,13)            68.191          calculate D2E/DX2 analytically  !
 ! D4    D(5,1,2,8)             66.139          calculate D2E/DX2 analytically  !
 ! D5    D(5,1,2,10)           -54.3278         calculate D2E/DX2 analytically  !
 ! D6    D(5,1,2,13)          -172.1277         calculate D2E/DX2 analytically  !
 ! D7    D(6,1,2,8)           -177.8066         calculate D2E/DX2 analytically  !
 ! D8    D(6,1,2,10)            61.7266         calculate D2E/DX2 analytically  !
 ! D9    D(6,1,2,13)           -56.0733         calculate D2E/DX2 analytically  !
 ! D10   D(2,1,4,7)            -97.5761         calculate D2E/DX2 analytically  !
 ! D11   D(2,1,4,20)            83.8673         calculate D2E/DX2 analytically  !
 ! D12   D(5,1,4,7)            158.3062         calculate D2E/DX2 analytically  !
 ! D13   D(5,1,4,20)           -20.2503         calculate D2E/DX2 analytically  !
 ! D14   D(6,1,4,7)             11.1744         calculate D2E/DX2 analytically  !
 ! D15   D(6,1,4,20)          -167.3822         calculate D2E/DX2 analytically  !
 ! D16   D(1,2,8,9)             76.8388         calculate D2E/DX2 analytically  !
 ! D17   D(1,2,8,15)           -96.9793         calculate D2E/DX2 analytically  !
 ! D18   D(10,2,8,9)          -175.8457         calculate D2E/DX2 analytically  !
 ! D19   D(10,2,8,15)           10.3362         calculate D2E/DX2 analytically  !
 ! D20   D(13,2,8,9)           -28.501          calculate D2E/DX2 analytically  !
 ! D21   D(13,2,8,15)          157.6809         calculate D2E/DX2 analytically  !
 ! D22   D(11,3,9,8)          -174.3303         calculate D2E/DX2 analytically  !
 ! D23   D(11,3,9,12)           -3.4377         calculate D2E/DX2 analytically  !
 ! D24   D(14,3,9,8)            11.2779         calculate D2E/DX2 analytically  !
 ! D25   D(14,3,9,12)         -177.8294         calculate D2E/DX2 analytically  !
 ! D26   D(1,4,20,21)          180.0            calculate D2E/DX2 analytically  !
 ! D27   D(1,4,20,22)            1.0468         calculate D2E/DX2 analytically  !
 ! D28   D(7,4,20,21)            1.4027         calculate D2E/DX2 analytically  !
 ! D29   D(7,4,20,22)         -177.5505         calculate D2E/DX2 analytically  !
 ! D30   D(2,8,9,3)             -4.6293         calculate D2E/DX2 analytically  !
 ! D31   D(2,8,9,12)          -175.5589         calculate D2E/DX2 analytically  !
 ! D32   D(15,8,9,3)           168.7891         calculate D2E/DX2 analytically  !
 ! D33   D(15,8,9,12)           -2.1406         calculate D2E/DX2 analytically  !
 ! D34   D(2,8,15,16)           -6.2161         calculate D2E/DX2 analytically  !
 ! D35   D(9,8,15,16)          180.0            calculate D2E/DX2 analytically  !
 ! D36   D(8,15,16,17)          71.3844         calculate D2E/DX2 analytically  !
 ! D37   D(8,15,16,18)        -170.7659         calculate D2E/DX2 analytically  !
 ! D38   D(8,15,16,19)         -51.6949         calculate D2E/DX2 analytically  !
 --------------------------------------------------------------------------------
 Trust Radius=3.00D-01 FncErr=1.00D-07 GrdErr=1.00D-06 EigMax=2.50D+02 EigMin=1.00D-04
 Number of steps in this run=    103 maximum allowed number of steps=    132.
 Search for a saddle point of order  1.
 GradGradGradGradGradGradGradGradGradGradGradGradGradGradGradGradGradGrad

                          Input orientation:                          
 ---------------------------------------------------------------------
 Center     Atomic      Atomic             Coordinates (Angstroms)
 Number     Number       Type             X           Y           Z
 ---------------------------------------------------------------------
      1          6           0       -1.464415   -0.568069   -1.326353
      2          6           0        0.093334   -1.727641   -0.633314
      3          6           0       -0.661802   -0.697890    1.961129
      4          6           0       -2.105435    0.149406   -0.326537
      5          1           0       -0.793518   -0.006127   -1.970248
      6          1           0       -1.973191   -1.409247   -1.789571
      7          1           0       -3.022283   -0.192977    0.141608
      8          6           0        0.872608   -0.818663    0.063303
      9          6           0        0.503101   -0.353587    1.370921
     10          1           0        0.480154   -2.078938   -1.584489
     11          1           0       -0.948452   -0.255096    2.909377
     12          1           0        1.114683    0.412547    1.834752
     13          1           0       -0.510818   -2.432057   -0.076729
     14          1           0       -1.309017   -1.476100    1.578107
     15          8           0        1.916719   -0.307165   -0.610363
     16          6           0        2.222716   -0.817542   -1.900484
     17          1           0        1.472629   -0.502915   -2.634818
     18          1           0        3.184202   -0.378798   -2.166337
     19          1           0        2.298652   -1.908107   -1.864591
     20          6           0       -1.528032    1.407502    0.064869
     21          8           0       -2.010049    2.127276    0.938984
     22          1           0       -0.614741    1.728824   -0.474279
 ---------------------------------------------------------------------
                    Distance matrix (angstroms):
                    1          2          3          4          5
     1  C    0.000000
     2  C    2.061915   0.000000
     3  C    3.386529   2.891669   0.000000
     4  C    1.387555   2.907233   2.834679   0.000000
     5  H    1.086500   2.353191   3.993947   2.108815   0.000000
     6  H    1.086740   2.389316   4.036523   2.141811   1.842015
     7  H    2.173144   3.558478   3.022824   1.084895   3.076076
     8  C    2.730498   1.385202   2.443511   3.155610   2.751640
     9  C    3.345506   2.464324   1.350514   3.152590   3.600744
    10  H    2.476027   1.085253   3.972753   3.637751   2.463249
    11  H    4.278502   3.975471   1.085085   3.460256   4.888428
    12  H    4.195943   3.422705   2.098795   3.887103   4.277212
    13  H    2.438311   1.082122   2.680111   3.044529   3.090383
    14  H    3.047057   2.630636   1.082222   2.627588   3.875227
    15  O    3.465946   2.311496   3.662514   4.057923   3.047178
    16  C    3.739893   2.639748   4.821496   4.705868   3.124249
    17  H    3.215984   2.721843   5.071148   4.307694   2.413270
    18  H    4.727688   3.704457   5.650623   5.625311   3.999948
    19  H    4.030642   2.532201   4.986487   5.098525   3.631832
    20  C    2.417111   3.597973   2.962909   1.438540   2.584484
    21  O    3.562914   4.664411   3.293040   2.350024   3.807229
    22  H    2.593009   3.531829   3.438367   2.176823   2.297812
                    6          7          8          9         10
     6  H    0.000000
     7  H    2.511844   0.000000
     8  C    3.446811   3.945604   0.000000
     9  C    4.151524   3.737023   1.436209   0.000000
    10  H    2.551362   4.336280   2.111287   3.422252   0.000000
    11  H    4.945934   3.459072   3.425493   2.117440   5.055902
    12  H    5.098001   4.510863   2.170832   1.084497   4.278006
    13  H    2.473561   3.371736   2.129910   2.728325   1.838494
    14  H    3.433198   2.577831   2.736118   2.141666   3.683281
    15  O    4.211474   4.997223   1.343735   2.434329   2.480286
    16  C    4.238874   5.663059   2.383119   3.724839   2.174281
    17  H    3.661906   5.292337   2.782010   4.124104   2.138234
    18  H    5.272805   6.624318   3.241642   4.438596   3.246675
    19  H    4.301527   5.939601   2.633869   4.013611   1.847857
    20  C    3.401645   2.190938   3.273971   2.988764   4.348386
    21  O    4.466919   2.654054   4.213679   3.557693   5.501024
    22  H    3.663723   3.141479   2.998482   2.998461   4.114658
                   11         12         13         14         15
    11  H    0.000000
    12  H    2.420143   0.000000
    13  H    3.721224   3.793123   0.000000
    14  H    1.842047   3.083371   2.071101   0.000000
    15  O    4.538776   2.672047   3.269995   4.069543   0.000000
    16  C    5.788559   4.085688   3.661277   5.000744   1.420750
    17  H    6.054845   4.576380   3.768218   5.141340   2.081815
    18  H    6.546526   4.573604   4.715454   5.950962   2.008158
    19  H    6.005573   4.524639   3.371068   5.005405   2.069294
    20  C    3.345351   3.332621   3.974542   3.263896   3.906703
    21  O    3.268812   3.675139   4.905801   3.726157   4.873037
    22  H    3.936550   3.170980   4.181121   3.868571   3.251471
                   16         17         18         19         20
    16  C    0.000000
    17  H    1.095841   0.000000
    18  H    1.089784   1.778865   0.000000
    19  H    1.093794   1.802811   1.792773   0.000000
    20  C    4.783466   4.465643   5.511288   5.418449   0.000000
    21  O    5.886496   5.640835   6.550089   6.535232   1.230647
    22  H    4.070529   3.742419   4.662306   4.862931   1.108164
                   21         22
    21  O    0.000000
    22  H    2.025577   0.000000
 Stoichiometry    C8H12O2
 Framework group  C1[X(C8H12O2)]
 Deg. of freedom    60
 Full point group                 C1      NOp   1
 Largest Abelian subgroup         C1      NOp   1
 Largest concise Abelian subgroup C1      NOp   1
                         Standard orientation:                         
 ---------------------------------------------------------------------
 Center     Atomic      Atomic             Coordinates (Angstroms)
 Number     Number       Type             X           Y           Z
 ---------------------------------------------------------------------
      1          6           0       -0.331720   -1.634774    0.709190
      2          6           0        1.117497   -0.247981    1.186756
      3          6           0       -1.033038    1.669947    0.944879
      4          6           0       -1.578525   -1.072044    0.476552
      5          1           0        0.225783   -1.953633   -0.167167
      6          1           0       -0.168710   -2.215954    1.612883
      7          1           0       -2.352742   -1.034001    1.235589
      8          6           0        1.039961    0.656707    0.140662
      9          6           0       -0.011454    1.631947    0.062376
     10          1           0        1.981497   -0.904429    1.205507
     11          1           0       -1.856660    2.361677    0.801472
     12          1           0       -0.060338    2.264169   -0.817419
     13          1           0        0.712464    0.031963    2.150378
     14          1           0       -1.041335    1.095151    1.861800
     15          8           0        1.927822    0.479275   -0.852235
     16          6           0        2.941420   -0.505210   -0.704118
     17          1           0        2.520539   -1.514751   -0.771609
     18          1           0        3.622879   -0.349158   -1.540115
     19          1           0        3.465420   -0.364757    0.245662
     20          6           0       -1.839884   -0.553470   -0.839567
     21          8           0       -2.908473   -0.033254   -1.158919
     22          1           0       -1.029125   -0.655174   -1.588135
 ---------------------------------------------------------------------
 Rotational constants (GHZ):           1.9628261           0.8967491           0.8259830
 Standard basis: 6-31G(d) (6D, 7F)
 There are   174 symmetry adapted cartesian basis functions of A   symmetry.
 There are   174 symmetry adapted basis functions of A   symmetry.
   174 basis functions,   328 primitive gaussians,   174 cartesian basis functions
    38 alpha electrons       38 beta electrons
       nuclear repulsion energy       532.4973870407 Hartrees.
 NAtoms=   22 NActive=   22 NUniq=   22 SFac= 1.00D+00 NAtFMM=   60 NAOKFM=F Big=F
 Integral buffers will be    131072 words long.
 Raffenetti 2 integral format.
 Two-electron integral symmetry is turned on.
 One-electron integrals computed using PRISM.
 NBasis=   174 RedAO= T EigKep=  1.93D-03  NBF=   174
 NBsUse=   174 1.00D-06 EigRej= -1.00D+00 NBFU=   174
 ExpMin= 1.61D-01 ExpMax= 5.48D+03 ExpMxC= 8.25D+02 IAcc=3 IRadAn=         5 AccDes= 0.00D+00
 Harris functional with IExCor= 1009 and IRadAn=       5 diagonalized for initial guess.
 HarFok:  IExCor= 1009 AccDes= 0.00D+00 IRadAn=         5 IDoV= 1 UseB2=F ITyADJ=14
 ICtDFT=  3500011 ScaDFX=  1.000000  1.000000  1.000000  1.000000
 FoFCou: FMM=F IPFlag=           0 FMFlag=      100000 FMFlg1=           0
         NFxFlg=           0 DoJE=T BraDBF=F KetDBF=T FulRan=T
         wScrn=  0.000000 ICntrl=       500 IOpCl=  0 I1Cent=   200000004 NGrid=           0
         NMat0=    1 NMatS0=      1 NMatT0=    0 NMatD0=    1 NMtDS0=    0 NMtDT0=    0
 Petite list used in FoFCou.
 Requested convergence on RMS density matrix=1.00D-08 within 128 cycles.
 Requested convergence on MAX density matrix=1.00D-06.
 Requested convergence on             energy=1.00D-06.
 No special actions if energy rises.
 Integral accuracy reduced to 1.0D-05 until final iterations.
 Initial convergence to 1.0D-05 achieved.  Increase integral accuracy.
 SCF Done:  E(RM062X) =  -462.164447623     A.U. after   17 cycles
            NFock= 17  Conv=0.40D-08     -V/T= 2.0083
 DoSCS=F DFT=T ScalE2(SS,OS)=  1.000000  1.000000
 Range of M.O.s used for correlation:     1   174
 NBasis=   174 NAE=    38 NBE=    38 NFC=     0 NFV=     0
 NROrb=    174 NOA=    38 NOB=    38 NVA=   136 NVB=   136
 Symmetrizing basis deriv contribution to polar:
 IMax=3 JMax=2 DiffMx= 0.00D+00
 G2DrvN: will do    23 centers at a time, making    1 passes.
 Calling FoFCou, ICntrl=  3107 FMM=F I1Cent=   0 AccDes= 0.00D+00.
 End of G2Drv F.D. properties file   721 does not exist.
 End of G2Drv F.D. properties file   722 does not exist.
 End of G2Drv F.D. properties file   788 does not exist.
          IDoAtm=1111111111111111111111
          Differentiating once with respect to nuclear coordinates.
 CalDSu exits because no D1Ps are significant.
          There are    69 degrees of freedom in the 1st order CPHF.  IDoFFX=6 NUNeed=     0.
     63 vectors produced by pass  0 Test12= 7.49D-15 1.45D-09 XBig12= 8.99D-02 1.32D-01.
 AX will form    63 AO Fock derivatives at one time.
     63 vectors produced by pass  1 Test12= 7.49D-15 1.45D-09 XBig12= 5.39D-03 1.72D-02.
     63 vectors produced by pass  2 Test12= 7.49D-15 1.45D-09 XBig12= 9.62D-05 1.69D-03.
     63 vectors produced by pass  3 Test12= 7.49D-15 1.45D-09 XBig12= 7.48D-07 1.10D-04.
     63 vectors produced by pass  4 Test12= 7.49D-15 1.45D-09 XBig12= 3.15D-09 5.55D-06.
     63 vectors produced by pass  5 Test12= 7.49D-15 1.45D-09 XBig12= 9.04D-12 3.73D-07.
     31 vectors produced by pass  6 Test12= 7.49D-15 1.45D-09 XBig12= 2.33D-14 1.40D-08.
 InvSVY:  IOpt=1 It=  1 EMax= 5.55D-16
 Solved reduced A of dimension   409 with    69 vectors.
 End of Minotr F.D. properties file   721 does not exist.
 End of Minotr F.D. properties file   722 does not exist.
 End of Minotr F.D. properties file   788 does not exist.

 **********************************************************************

            Population analysis using the SCF Density.

 **********************************************************************

 Orbital symmetries:
       Occupied  (A) (A) (A) (A) (A) (A) (A) (A) (A) (A) (A) (A)
                 (A) (A) (A) (A) (A) (A) (A) (A) (A) (A) (A) (A)
                 (A) (A) (A) (A) (A) (A) (A) (A) (A) (A) (A) (A)
                 (A) (A)
       Virtual   (A) (A) (A) (A) (A) (A) (A) (A) (A) (A) (A) (A)
                 (A) (A) (A) (A) (A) (A) (A) (A) (A) (A) (A) (A)
                 (A) (A) (A) (A) (A) (A) (A) (A) (A) (A) (A) (A)
                 (A) (A) (A) (A) (A) (A) (A) (A) (A) (A) (A) (A)
                 (A) (A) (A) (A) (A) (A) (A) (A) (A) (A) (A) (A)
                 (A) (A) (A) (A) (A) (A) (A) (A) (A) (A) (A) (A)
                 (A) (A) (A) (A) (A) (A) (A) (A) (A) (A) (A) (A)
                 (A) (A) (A) (A) (A) (A) (A) (A) (A) (A) (A) (A)
                 (A) (A) (A) (A) (A) (A) (A) (A) (A) (A) (A) (A)
                 (A) (A) (A) (A) (A) (A) (A) (A) (A) (A) (A) (A)
                 (A) (A) (A) (A) (A) (A) (A) (A) (A) (A) (A) (A)
                 (A) (A) (A) (A)
 The electronic state is 1-A.
 Alpha  occ. eigenvalues --  -19.68925 -19.59122 -10.62741 -10.61752 -10.60077
 Alpha  occ. eigenvalues --  -10.56920 -10.56870 -10.56447 -10.55516 -10.52860
 Alpha  occ. eigenvalues --   -1.21137  -1.11309  -0.92770  -0.87327  -0.83939
 Alpha  occ. eigenvalues --   -0.82112  -0.71913  -0.70447  -0.63606  -0.63071
 Alpha  occ. eigenvalues --   -0.60218  -0.57401  -0.56576  -0.52403  -0.51783
 Alpha  occ. eigenvalues --   -0.51044  -0.49029  -0.47242  -0.46143  -0.44766
 Alpha  occ. eigenvalues --   -0.44583  -0.43478  -0.42469  -0.40364  -0.36874
 Alpha  occ. eigenvalues --   -0.32875  -0.29119  -0.23520
 Alpha virt. eigenvalues --   -0.03261   0.04859   0.09388   0.12415   0.13565
 Alpha virt. eigenvalues --    0.14546   0.16258   0.17233   0.17417   0.18356
 Alpha virt. eigenvalues --    0.19244   0.20662   0.21767   0.23427   0.24708
 Alpha virt. eigenvalues --    0.25963   0.28216   0.32860   0.33065   0.34821
 Alpha virt. eigenvalues --    0.37858   0.39443   0.42832   0.44450   0.50600
 Alpha virt. eigenvalues --    0.55659   0.56266   0.56775   0.59427   0.60463
 Alpha virt. eigenvalues --    0.61909   0.63122   0.64522   0.65066   0.65561
 Alpha virt. eigenvalues --    0.67902   0.70004   0.71647   0.73448   0.76525
 Alpha virt. eigenvalues --    0.79302   0.79773   0.82439   0.85756   0.88039
 Alpha virt. eigenvalues --    0.89216   0.89545   0.91410   0.91931   0.92715
 Alpha virt. eigenvalues --    0.94191   0.95109   0.95753   0.97830   0.99056
 Alpha virt. eigenvalues --    1.01405   1.02472   1.03729   1.05808   1.08478
 Alpha virt. eigenvalues --    1.09085   1.10993   1.13097   1.14761   1.15726
 Alpha virt. eigenvalues --    1.18619   1.23513   1.27644   1.27950   1.31583
 Alpha virt. eigenvalues --    1.37570   1.39739   1.40360   1.43975   1.45147
 Alpha virt. eigenvalues --    1.48188   1.54561   1.55491   1.60972   1.63994
 Alpha virt. eigenvalues --    1.64265   1.69883   1.72102   1.77506   1.81064
 Alpha virt. eigenvalues --    1.84858   1.85681   1.90999   1.92343   1.94131
 Alpha virt. eigenvalues --    1.97480   1.98936   1.99481   2.03937   2.06036
 Alpha virt. eigenvalues --    2.07822   2.11876   2.14312   2.15030   2.16101
 Alpha virt. eigenvalues --    2.16850   2.20058   2.21732   2.26443   2.26913
 Alpha virt. eigenvalues --    2.30332   2.31331   2.35990   2.37880   2.41757
 Alpha virt. eigenvalues --    2.49101   2.50628   2.54147   2.57902   2.60360
 Alpha virt. eigenvalues --    2.61662   2.66294   2.66670   2.68276   2.75344
 Alpha virt. eigenvalues --    2.88256   2.91730   3.00942   3.09393   3.10974
 Alpha virt. eigenvalues --    3.15417   3.96951   4.09783   4.15731   4.27043
 Alpha virt. eigenvalues --    4.27824   4.31141   4.36928   4.47000   4.52680
 Alpha virt. eigenvalues --    4.62335
          Condensed to atoms (all electrons):
               1          2          3          4          5          6
     1  C    5.217150   0.029116  -0.006254   0.453895   0.391257   0.374609
     2  C    0.029116   5.447432  -0.018096  -0.041118  -0.032053  -0.014348
     3  C   -0.006254  -0.018096   5.063010   0.022518   0.000295   0.000195
     4  C    0.453895  -0.041118   0.022518   5.322653  -0.047426  -0.023110
     5  H    0.391257  -0.032053   0.000295  -0.047426   0.545062  -0.031519
     6  H    0.374609  -0.014348   0.000195  -0.023110  -0.031519   0.511563
     7  H   -0.044185   0.000194  -0.001026   0.373548   0.004150  -0.003464
     8  C   -0.017735   0.547729  -0.032009  -0.026161  -0.009699   0.001328
     9  C   -0.008129  -0.082910   0.597585   0.001345   0.000187   0.000110
    10  H   -0.007940   0.372798   0.000308   0.001456  -0.002473  -0.001320
    11  H    0.000140   0.000184   0.377007  -0.000532  -0.000004  -0.000002
    12  H   -0.000032   0.006622  -0.046087   0.000105  -0.000004   0.000002
    13  H   -0.014574   0.373568   0.002494  -0.006289   0.001701  -0.003137
    14  H   -0.001172   0.006658   0.373209  -0.000135   0.000015   0.000042
    15  O   -0.000317  -0.084566   0.002936   0.000084   0.002661   0.000026
    16  C   -0.001626  -0.021183  -0.000129   0.000129  -0.000255   0.000037
    17  H   -0.000157   0.002183   0.000012  -0.000024   0.000763  -0.000140
    18  H    0.000004   0.001325   0.000002   0.000000   0.000000  -0.000000
    19  H    0.000460  -0.001778  -0.000016   0.000028   0.000313   0.000027
    20  C   -0.010565  -0.001701   0.001105   0.367632  -0.007045   0.002457
    21  O    0.004680   0.000085  -0.006060  -0.077599   0.000096  -0.000075
    22  H    0.013766  -0.001228  -0.000656  -0.135072   0.009195  -0.000061
               7          8          9         10         11         12
     1  C   -0.044185  -0.017735  -0.008129  -0.007940   0.000140  -0.000032
     2  C    0.000194   0.547729  -0.082910   0.372798   0.000184   0.006622
     3  C   -0.001026  -0.032009   0.597585   0.000308   0.377007  -0.046087
     4  C    0.373548  -0.026161   0.001345   0.001456  -0.000532   0.000105
     5  H    0.004150  -0.009699   0.000187  -0.002473  -0.000004  -0.000004
     6  H   -0.003464   0.001328   0.000110  -0.001320  -0.000002   0.000002
     7  H    0.524620  -0.000126   0.000349  -0.000017   0.000036  -0.000001
     8  C   -0.000126   4.461536   0.502866  -0.034183   0.003503  -0.035022
     9  C    0.000349   0.502866   4.887845   0.004541  -0.024436   0.366703
    10  H   -0.000017  -0.034183   0.004541   0.527742  -0.000004  -0.000120
    11  H    0.000036   0.003503  -0.024436  -0.000004   0.482078  -0.005762
    12  H   -0.000001  -0.035022   0.366703  -0.000120  -0.005762   0.520781
    13  H    0.000220  -0.019562  -0.006602  -0.029705   0.000058  -0.000065
    14  H    0.000393  -0.014180  -0.032587   0.000002  -0.031819   0.004374
    15  O   -0.000003   0.286459  -0.045209  -0.012871  -0.000036  -0.000579
    16  C   -0.000001  -0.044666   0.003609   0.003740   0.000002  -0.000144
    17  H    0.000002  -0.004349  -0.000200  -0.002421   0.000000   0.000014
    18  H   -0.000000   0.002894  -0.000048   0.000378  -0.000000  -0.000016
    19  H    0.000000  -0.000183   0.000016   0.001755  -0.000000   0.000026
    20  C   -0.024582  -0.001586  -0.005744  -0.000020  -0.000221   0.000085
    21  O   -0.000407   0.000330  -0.001485   0.000000   0.000543   0.000037
    22  H    0.004351   0.000865  -0.001615   0.000013   0.000033   0.000141
              13         14         15         16         17         18
     1  C   -0.014574  -0.001172  -0.000317  -0.001626  -0.000157   0.000004
     2  C    0.373568   0.006658  -0.084566  -0.021183   0.002183   0.001325
     3  C    0.002494   0.373209   0.002936  -0.000129   0.000012   0.000002
     4  C   -0.006289  -0.000135   0.000084   0.000129  -0.000024   0.000000
     5  H    0.001701   0.000015   0.002661  -0.000255   0.000763   0.000000
     6  H   -0.003137   0.000042   0.000026   0.000037  -0.000140  -0.000000
     7  H    0.000220   0.000393  -0.000003  -0.000001   0.000002  -0.000000
     8  C   -0.019562  -0.014180   0.286459  -0.044666  -0.004349   0.002894
     9  C   -0.006602  -0.032587  -0.045209   0.003609  -0.000200  -0.000048
    10  H   -0.029705   0.000002  -0.012871   0.003740  -0.002421   0.000378
    11  H    0.000058  -0.031819  -0.000036   0.000002   0.000000  -0.000000
    12  H   -0.000065   0.004374  -0.000579  -0.000144   0.000014  -0.000016
    13  H    0.505525   0.002846   0.003563   0.000226  -0.000029  -0.000010
    14  H    0.002846   0.518147  -0.000003  -0.000006  -0.000000   0.000000
    15  O    0.003563  -0.000003   8.227692   0.233625  -0.036160  -0.032398
    16  C    0.000226  -0.000006   0.233625   4.945231   0.377783   0.389351
    17  H   -0.000029  -0.000000  -0.036160   0.377783   0.564686  -0.030895
    18  H   -0.000010   0.000000  -0.032398   0.389351  -0.030895   0.494326
    19  H    0.000020  -0.000001  -0.037783   0.366563  -0.043999  -0.024178
    20  C    0.000028  -0.000577  -0.000235   0.000007   0.000009   0.000000
    21  O    0.000006   0.000016  -0.000000  -0.000000  -0.000000  -0.000000
    22  H    0.000006   0.000084   0.001201  -0.000021  -0.000040  -0.000000
              19         20         21         22
     1  C    0.000460  -0.010565   0.004680   0.013766
     2  C   -0.001778  -0.001701   0.000085  -0.001228
     3  C   -0.000016   0.001105  -0.006060  -0.000656
     4  C    0.000028   0.367632  -0.077599  -0.135072
     5  H    0.000313  -0.007045   0.000096   0.009195
     6  H    0.000027   0.002457  -0.000075  -0.000061
     7  H    0.000000  -0.024582  -0.000407   0.004351
     8  C   -0.000183  -0.001586   0.000330   0.000865
     9  C    0.000016  -0.005744  -0.001485  -0.001615
    10  H    0.001755  -0.000020   0.000000   0.000013
    11  H   -0.000000  -0.000221   0.000543   0.000033
    12  H    0.000026   0.000085   0.000037   0.000141
    13  H    0.000020   0.000028   0.000006   0.000006
    14  H   -0.000001  -0.000577   0.000016   0.000084
    15  O   -0.037783  -0.000235  -0.000000   0.001201
    16  C    0.366563   0.000007  -0.000000  -0.000021
    17  H   -0.043999   0.000009  -0.000000  -0.000040
    18  H   -0.024178   0.000000  -0.000000  -0.000000
    19  H    0.563674  -0.000001  -0.000000   0.000013
    20  C   -0.000001   4.549096   0.525198   0.368207
    21  O   -0.000000   0.525198   8.091984  -0.052826
    22  H    0.000013   0.368207  -0.052826   0.691089
 Mulliken charges:
               1
     1  C   -0.372392
     2  C   -0.488915
     3  C   -0.330343
     4  C   -0.185927
     5  H    0.174783
     6  H    0.186779
     7  H    0.165948
     8  C    0.431951
     9  C   -0.156194
    10  H    0.178340
    11  H    0.199232
    12  H    0.188941
    13  H    0.189711
    14  H    0.174696
    15  O   -0.508086
    16  C   -0.252272
    17  H    0.172960
    18  H    0.199265
    19  H    0.175042
    20  C    0.238452
    21  O   -0.484525
    22  H    0.102555
 Sum of Mulliken charges =  -0.00000
 Mulliken charges with hydrogens summed into heavy atoms:
               1
     1  C   -0.010831
     2  C   -0.120864
     3  C    0.043585
     4  C   -0.019979
     8  C    0.431951
     9  C    0.032747
    15  O   -0.508086
    16  C    0.294995
    20  C    0.341006
    21  O   -0.484525
 APT charges:
               1
     1  C   -0.952331
     2  C   -0.845472
     3  C   -0.741465
     4  C   -0.510632
     5  H    0.312949
     6  H    0.581286
     7  H    0.569451
     8  C   -0.009579
     9  C   -0.581492
    10  H    0.506840
    11  H    0.657241
    12  H    0.498074
    13  H    0.463018
    14  H    0.349865
    15  O   -0.253514
    16  C   -1.248557
    17  H    0.284556
    18  H    0.734465
    19  H    0.433672
    20  C   -0.611506
    21  O    0.145288
    22  H    0.217845
 Sum of APT charges =  -0.00000
 APT charges with hydrogens summed into heavy atoms:
               1
     1  C   -0.058096
     2  C    0.124387
     3  C    0.265641
     4  C    0.058818
     8  C   -0.009579
     9  C   -0.083419
    15  O   -0.253514
    16  C    0.204136
    20  C   -0.393661
    21  O    0.145288
 Electronic spatial extent (au):  <R**2>=           1582.6309
 Charge=             -0.0000 electrons
 Dipole moment (field-independent basis, Debye):
    X=              4.9764    Y=             -0.8945    Z=              2.4320  Tot=              5.6107
 Quadrupole moment (field-independent basis, Debye-Ang):
   XX=            -66.7981   YY=            -58.0953   ZZ=            -59.8641
   XY=             -5.4066   XZ=             -7.4376   YZ=              0.2033
 Traceless Quadrupole moment (field-independent basis, Debye-Ang):
   XX=             -5.2122   YY=              3.4905   ZZ=              1.7217
   XY=             -5.4066   XZ=             -7.4376   YZ=              0.2033
 Octapole moment (field-independent basis, Debye-Ang**2):
  XXX=             67.1626  YYY=              6.2620  ZZZ=              0.4371  XYY=             -3.1517
  XXY=             -6.1491  XXZ=             13.7106  XZZ=              5.2878  YZZ=             -3.2438
  YYZ=             -4.3030  XYZ=             -0.5719
 Hexadecapole moment (field-independent basis, Debye-Ang**3):
 XXXX=          -1251.4718 YYYY=           -493.1230 ZZZZ=           -336.2765 XXXY=            -25.1297
 XXXZ=            -84.0096 YYYX=            -23.7990 YYYZ=            -12.4378 ZZZX=            -15.8195
 ZZZY=             -4.3855 XXYY=           -276.4032 XXZZ=           -268.9319 YYZZ=           -135.1079
 XXYZ=              8.3307 YYXZ=             -1.8368 ZZXY=             -2.5381
 N-N= 5.324973870407D+02 E-N=-2.140940797164D+03  KE= 4.583715945108D+02
  Exact polarizability:       0.000       0.000       0.000       0.000       0.000       0.000
 Approx polarizability:     163.441      -3.873     119.336      -1.651     -12.790     106.571
 Calling FoFJK, ICntrl=    100127 FMM=F ISym2X=0 I1Cent= 0 IOpClX= 0 NMat=1 NMatS=1 NMatT=0.
 ***** Axes restored to original set *****
 -------------------------------------------------------------------
 Center     Atomic                   Forces (Hartrees/Bohr)
 Number     Number              X              Y              Z
 -------------------------------------------------------------------
      1        6          -0.018664090    0.014665890    0.004641638
      2        6           0.005988449   -0.007612735    0.014093417
      3        6           0.003649816   -0.003060955   -0.001088660
      4        6           0.007657348   -0.015426375   -0.018212431
      5        1           0.000481400   -0.001715448   -0.001805800
      6        1           0.001864502    0.000031200   -0.000989025
      7        1           0.001820365    0.000859051    0.002566042
      8        6          -0.010361115   -0.039019701   -0.021459821
      9        6           0.006988396    0.007132040   -0.003371323
     10        1          -0.010711413   -0.003997622    0.005289130
     11        1          -0.000171126    0.001344383   -0.001456389
     12        1           0.002829577    0.001002192   -0.001323616
     13        1          -0.002737285    0.001224278   -0.001643563
     14        1          -0.000318213    0.000230185   -0.000562475
     15        8           0.013083083    0.022983125    0.010276466
     16        6           0.005084512    0.007440909    0.007328357
     17        1           0.000096947   -0.002662254    0.000130601
     18        1           0.000042926   -0.000016364    0.000620261
     19        1           0.003647945    0.000760208   -0.003116949
     20        6          -0.023838411    0.022056082    0.026594165
     21        8           0.010300505   -0.003771209   -0.014603310
     22        1           0.003265882   -0.002446877   -0.001906716
 -------------------------------------------------------------------
 Cartesian Forces:  Max     0.039019701 RMS     0.010316993
 FormGI is forming the generalized inverse of G from B-inverse, IUseBI=4.

 GradGradGradGradGradGradGradGradGradGradGradGradGradGradGradGradGradGrad
 Berny optimization.
 Internal  Forces:  Max     0.065365298 RMS     0.011231304
 Search for a saddle point.
 Step number   1 out of a maximum of  103
 All quantities printed in internal units (Hartrees-Bohrs-Radians)
 Swapping is turned off.
 Second derivative matrix not updated -- analytic derivatives used.
 ITU=  0
     Eigenvalues ---   -0.02191  -0.00132   0.00034   0.00953   0.01055
     Eigenvalues ---    0.01403   0.01990   0.02021   0.02592   0.02694
     Eigenvalues ---    0.03230   0.03667   0.03816   0.03987   0.04116
     Eigenvalues ---    0.05155   0.05487   0.06336   0.07011   0.07973
     Eigenvalues ---    0.08155   0.09010   0.09349   0.09888   0.10555
     Eigenvalues ---    0.10691   0.11123   0.13398   0.13639   0.13827
     Eigenvalues ---    0.14154   0.16909   0.18306   0.19023   0.19217
     Eigenvalues ---    0.22389   0.23272   0.29173   0.31727   0.32299
     Eigenvalues ---    0.34202   0.34750   0.35809   0.35989   0.36282
     Eigenvalues ---    0.36751   0.37227   0.37339   0.37435   0.37620
     Eigenvalues ---    0.37854   0.38628   0.39935   0.41107   0.49251
     Eigenvalues ---    0.53288   0.60669   0.63700   0.81161   1.06589
 Eigenvectors required to have negative eigenvalues:
                          R1        D20       D12       D24       D15
   1                   -0.69271  -0.25585  -0.22713   0.22594   0.21925
                          D21       A2        D31       D16       R2
   1                   -0.18300   0.16215   0.14123  -0.13624   0.11593
 RFO step:  Lambda0=7.449835634D-03 Lambda=-2.62757031D-02.
 Linear search not attempted -- option 19 set.
 Maximum step size (   0.300) exceeded in Quadratic search.
    -- Step size scaled by   0.803
 Iteration  1 RMS(Cart)=  0.17512391 RMS(Int)=  0.01847373
 Iteration  2 RMS(Cart)=  0.05243539 RMS(Int)=  0.00222976
 Iteration  3 RMS(Cart)=  0.00277507 RMS(Int)=  0.00138485
 Iteration  4 RMS(Cart)=  0.00000651 RMS(Int)=  0.00138484
 Iteration  5 RMS(Cart)=  0.00000000 RMS(Int)=  0.00138484
 Variable       Old X    -DE/DX   Delta X   Delta X   Delta X     New X
                                 (Linear)    (Quad)   (Total)
    R1        3.89645   0.02219   0.00000  -0.20267  -0.20267   3.69378
    R2        2.62210  -0.00298   0.00000   0.02318   0.02318   2.64528
    R3        2.05319   0.00048   0.00000   0.00641   0.00641   2.05960
    R4        2.05364  -0.00048   0.00000   0.00104   0.00104   2.05469
    R5        2.61765   0.00423   0.00000   0.01996   0.01996   2.63761
    R6        2.05083  -0.00716   0.00000   0.00080   0.00080   2.05163
    R7        2.04491  -0.00011   0.00000   0.00162   0.00162   2.04653
    R8        2.55210  -0.00370   0.00000   0.01392   0.01392   2.56603
    R9        2.05051  -0.00068   0.00000  -0.00025  -0.00025   2.05026
   R10        2.04510   0.00023   0.00000  -0.00209  -0.00209   2.04301
   R11        2.05015  -0.00070   0.00000   0.00163   0.00163   2.05178
   R12        2.71845   0.01247   0.00000   0.02041   0.02041   2.73885
   R13        2.71404  -0.00829   0.00000  -0.04384  -0.04384   2.67020
   R14        2.53929   0.02027   0.00000   0.00447   0.00447   2.54376
   R15        2.04940   0.00174   0.00000   0.00242   0.00242   2.05182
   R16        2.68483  -0.00458   0.00000  -0.00791  -0.00791   2.67692
   R17        2.07084  -0.00092   0.00000   0.00157   0.00157   2.07241
   R18        2.05939  -0.00012   0.00000   0.00025   0.00025   2.05964
   R19        2.06697  -0.00061   0.00000   0.00170   0.00170   2.06867
   R20        2.32559  -0.01661   0.00000  -0.01878  -0.01878   2.30681
   R21        2.09413   0.00291   0.00000   0.01109   0.01109   2.10522
    A1        1.97972   0.02077   0.00000   0.05396   0.05355   2.03327
    A2        1.59435  -0.00454   0.00000   0.06946   0.06775   1.66210
    A3        1.63250  -0.01160   0.00000   0.00859   0.01000   1.64249
    A4        2.03181  -0.00027   0.00000   0.00576   0.00045   2.03226
    A5        2.08414  -0.00245   0.00000  -0.05058  -0.05204   2.03210
    A6        2.02285  -0.00034   0.00000  -0.02942  -0.03205   1.99080
    A7        1.79775   0.01332   0.00000   0.02146   0.02140   1.81915
    A8        1.72818  -0.00774   0.00000   0.02423   0.02419   1.75237
    A9        1.68824  -0.00632   0.00000   0.03637   0.03638   1.72461
   A10        2.04055   0.00468   0.00000  -0.00408  -0.00505   2.03549
   A11        2.07440  -0.00266   0.00000  -0.00985  -0.01105   2.06335
   A12        2.02537  -0.00197   0.00000  -0.03223  -0.03339   1.99198
   A13        2.10104  -0.00059   0.00000   0.00309   0.00284   2.10388
   A14        2.14659   0.00019   0.00000  -0.00344  -0.00369   2.14290
   A15        2.03168   0.00057   0.00000  -0.00308  -0.00333   2.02835
   A16        2.13905  -0.00421   0.00000  -0.02259  -0.02401   2.11505
   A17        2.05200   0.01277   0.00000   0.05403   0.05263   2.10463
   A18        2.09186  -0.00863   0.00000  -0.03363  -0.03501   2.05685
   A19        2.12425  -0.01382   0.00000   0.00582   0.00324   2.12749
   A20        2.02061   0.06537   0.00000   0.07539   0.07194   2.09254
   A21        2.13306  -0.05182   0.00000  -0.09398  -0.09546   2.03760
   A22        2.13798  -0.00214   0.00000  -0.02537  -0.02609   2.11189
   A23        2.07101   0.00396   0.00000   0.02594   0.02511   2.09613
   A24        2.06357  -0.00185   0.00000  -0.00996  -0.01060   2.05297
   A25        2.07814   0.03373   0.00000  -0.01762  -0.01762   2.06052
   A26        1.93685   0.00173   0.00000   0.00200   0.00198   1.93883
   A27        1.84099  -0.00244   0.00000   0.00983   0.00978   1.85077
   A28        1.92125   0.00536   0.00000   0.00518   0.00515   1.92640
   A29        1.90164   0.00037   0.00000  -0.00308  -0.00311   1.89853
   A30        1.93454  -0.00197   0.00000  -0.01604  -0.01605   1.91849
   A31        1.92641  -0.00314   0.00000   0.00340   0.00334   1.92975
   A32        2.15024   0.01312   0.00000   0.03745   0.03743   2.18767
   A33        2.03981  -0.00969   0.00000  -0.04299  -0.04301   1.99680
   A34        2.09299  -0.00344   0.00000   0.00536   0.00535   2.09834
    D1       -0.93449   0.00061   0.00000  -0.09183  -0.09278  -1.02727
    D2       -3.03703  -0.00588   0.00000  -0.10307  -0.10394  -3.14097
    D3        1.19016  -0.00064   0.00000  -0.08374  -0.08450   1.10566
    D4        1.15434   0.00368   0.00000  -0.03498  -0.03413   1.12021
    D5       -0.94820  -0.00281   0.00000  -0.04622  -0.04529  -0.99349
    D6       -3.00420   0.00243   0.00000  -0.02689  -0.02585  -3.03005
    D7       -3.10331   0.00232   0.00000  -0.05844  -0.05861   3.12126
    D8        1.07733  -0.00417   0.00000  -0.06968  -0.06977   1.00756
    D9       -0.97866   0.00107   0.00000  -0.05035  -0.05033  -1.02900
   D10       -1.70302   0.00394   0.00000   0.03083   0.03131  -1.67171
   D11        1.46376   0.00727   0.00000   0.13196   0.13255   1.59631
   D12        2.76297  -0.00312   0.00000  -0.09312  -0.09237   2.67060
   D13       -0.35343   0.00022   0.00000   0.00801   0.00887  -0.34456
   D14        0.19503   0.00247   0.00000   0.04939   0.04799   0.24302
   D15       -2.92137   0.00580   0.00000   0.15052   0.14923  -2.77214
   D16        1.34109  -0.00226   0.00000  -0.10253  -0.10508   1.23601
   D17       -1.69261   0.00350   0.00000   0.03344   0.03587  -1.65674
   D18       -3.06909  -0.00156   0.00000  -0.06235  -0.06514  -3.13422
   D19        0.18040   0.00420   0.00000   0.07362   0.07581   0.25621
   D20       -0.49744  -0.00205   0.00000  -0.15618  -0.15831  -0.65575
   D21        2.75205   0.00371   0.00000  -0.02022  -0.01737   2.73468
   D22       -3.04264   0.00176   0.00000   0.07608   0.07641  -2.96623
   D23       -0.06000   0.00134   0.00000   0.00554   0.00523  -0.05476
   D24        0.19684  -0.00030   0.00000   0.11940   0.11971   0.31655
   D25       -3.10371  -0.00072   0.00000   0.04887   0.04853  -3.05517
   D26        3.14159  -0.00411   0.00000  -0.11471  -0.11454   3.02705
   D27        0.01827  -0.00321   0.00000  -0.10333  -0.10316  -0.08489
   D28        0.02448  -0.00093   0.00000  -0.01655  -0.01671   0.00777
   D29       -3.09884  -0.00003   0.00000  -0.00517  -0.00534  -3.10418
   D30       -0.08080  -0.00031   0.00000   0.02523   0.02201  -0.05878
   D31       -3.06408  -0.00040   0.00000   0.09236   0.08833  -2.97575
   D32        2.94593   0.00097   0.00000  -0.10857  -0.10455   2.84138
   D33       -0.03736   0.00088   0.00000  -0.04145  -0.03823  -0.07559
   D34       -0.10849  -0.00745   0.00000  -0.37662  -0.37560  -0.48409
   D35        3.14159  -0.00428   0.00000  -0.24674  -0.24775   2.89384
   D36        1.24589  -0.00230   0.00000   0.20839   0.20837   1.45427
   D37       -2.98043  -0.00238   0.00000   0.21146   0.21143  -2.76900
   D38       -0.90225  -0.00471   0.00000   0.22381   0.22385  -0.67840
         Item               Value     Threshold  Converged?
 Maximum Force            0.065365     0.000450     NO 
 RMS     Force            0.011231     0.000300     NO 
 Maximum Displacement     0.668869     0.001800     NO 
 RMS     Displacement     0.208217     0.001200     NO 
 Predicted change in Energy=-1.009561D-02
 GradGradGradGradGradGradGradGradGradGradGradGradGradGradGradGradGradGrad

                          Input orientation:                          
 ---------------------------------------------------------------------
 Center     Atomic      Atomic             Coordinates (Angstroms)
 Number     Number       Type             X           Y           Z
 ---------------------------------------------------------------------
      1          6           0       -1.486316   -0.527632   -1.237877
      2          6           0        0.001314   -1.693444   -0.739326
      3          6           0       -0.605268   -0.608546    1.826267
      4          6           0       -2.157545    0.111589   -0.188901
      5          1           0       -0.896633    0.109772   -1.896557
      6          1           0       -2.032009   -1.313967   -1.753729
      7          1           0       -3.066122   -0.305853    0.234300
      8          6           0        0.882007   -0.852940   -0.056620
      9          6           0        0.586147   -0.347639    1.229353
     10          1           0        0.317921   -2.037204   -1.719264
     11          1           0       -0.891846   -0.090023    2.735181
     12          1           0        1.239697    0.420776    1.630997
     13          1           0       -0.549626   -2.430450   -0.168248
     14          1           0       -1.253638   -1.414344    1.511443
     15          8           0        1.902107   -0.272395   -0.715675
     16          6           0        2.423229   -0.935284   -1.853950
     17          1           0        1.826578   -0.713879   -2.747076
     18          1           0        3.429269   -0.541372   -1.997581
     19          1           0        2.454082   -2.016351   -1.684556
     20          6           0       -1.745419    1.427609    0.256998
     21          8           0       -2.333250    2.110301    1.080722
     22          1           0       -0.827637    1.815914   -0.240964
 ---------------------------------------------------------------------
                    Distance matrix (angstroms):
                    1          2          3          4          5
     1  C    0.000000
     2  C    1.954665   0.000000
     3  C    3.189321   2.850826   0.000000
     4  C    1.399822   2.867365   2.643684   0.000000
     5  H    1.089894   2.323162   3.802669   2.122732   0.000000
     6  H    1.087293   2.303784   3.917854   2.120531   1.826612
     7  H    2.170778   3.504642   2.946487   1.085758   3.069199
     8  C    2.666486   1.395763   2.411842   3.191660   2.734180
     9  C    3.227185   2.455386   1.357883   3.122528   3.489867
    10  H    2.401211   1.085676   3.932446   3.617632   2.473071
    11  H    4.041050   3.929489   1.084951   3.192632   4.636047
    12  H    4.069529   3.409098   2.121681   3.866379   4.135730
    13  H    2.375334   1.082978   2.701947   3.007955   3.091956
    14  H    2.898130   2.592057   1.081114   2.456968   3.750313
    15  O    3.437914   2.373385   3.586279   4.111656   3.061614
    16  C    3.978727   2.771799   4.777295   4.985160   3.480724
    17  H    3.645222   2.884823   5.180776   4.806131   2.969455
    18  H    4.973964   3.829015   5.559120   5.908483   4.375799
    19  H    4.235864   2.648359   4.864917   5.294546   3.973995
    20  C    2.474824   3.712777   2.812202   1.449339   2.663631
    21  O    3.612739   4.819879   3.306643   2.374376   3.863958
    22  H    2.630570   3.640208   3.193884   2.162427   2.378375
                    6          7          8          9         10
     6  H    0.000000
     7  H    2.457222   0.000000
     8  C    3.403559   3.996457   0.000000
     9  C    4.085010   3.785623   1.413008   0.000000
    10  H    2.458950   4.273844   2.117796   3.408948   0.000000
    11  H    4.790440   3.320913   3.394518   2.125640   5.009704
    12  H    5.016948   4.584630   2.144376   1.085775   4.256241
    13  H    2.440849   3.317937   2.133207   2.753429   1.820146
    14  H    3.358167   2.478900   2.708316   2.145283   3.646262
    15  O    4.199964   5.058347   1.346102   2.349585   2.575149
    16  C    4.472426   5.906771   2.369080   3.636888   2.380061
    17  H    4.029336   5.744007   2.854839   4.181483   2.254692
    18  H    5.521044   6.872181   3.217599   4.305111   3.463446
    19  H    4.541271   6.089373   2.544626   3.842480   2.136544
    20  C    3.411949   2.179373   3.493226   3.087584   4.490871
    21  O    4.455386   2.662955   4.517989   3.819219   5.663076
    22  H    3.679011   3.120671   3.174846   2.973479   4.283012
                   11         12         13         14         15
    11  H    0.000000
    12  H    2.454305   0.000000
    13  H    3.744945   3.816864   0.000000
    14  H    1.839090   3.098173   2.085538   0.000000
    15  O    4.443854   2.534984   3.311778   4.027757   0.000000
    16  C    5.724011   3.922308   3.730278   5.007466   1.416566
    17  H    6.150949   4.560636   3.904269   5.302204   2.080193
    18  H    6.424545   4.345864   4.769347   5.916497   2.011928
    19  H    5.868565   4.290363   3.390122   4.931938   2.069974
    20  C    3.028726   3.436933   4.061450   3.145183   4.140115
    21  O    3.107459   3.990395   5.035837   3.711361   5.180978
    22  H    3.534707   3.118416   4.256076   3.699590   3.469565
                   16         17         18         19         20
    16  C    0.000000
    17  H    1.096671   0.000000
    18  H    1.089914   1.777672   0.000000
    19  H    1.094693   1.794197   1.795699   0.000000
    20  C    5.236123   5.135134   5.978077   5.767695   0.000000
    21  O    6.364902   6.319193   7.050812   6.898882   1.220711
    22  H    4.554003   4.441318   5.173369   5.247846   1.114033
                   21         22
    21  O    0.000000
    22  H    2.024942   0.000000
 Stoichiometry    C8H12O2
 Framework group  C1[X(C8H12O2)]
 Deg. of freedom    60
 Full point group                 C1      NOp   1
 Largest Abelian subgroup         C1      NOp   1
 Largest concise Abelian subgroup C1      NOp   1
                         Standard orientation:                         
 ---------------------------------------------------------------------
 Center     Atomic      Atomic             Coordinates (Angstroms)
 Number     Number       Type             X           Y           Z
 ---------------------------------------------------------------------
      1          6           0       -0.417933   -1.659120    0.307369
      2          6           0        1.079637   -0.653275    1.059879
      3          6           0       -0.918897    1.378069    1.141808
      4          6           0       -1.660337   -1.014297    0.295690
      5          1           0        0.051436   -1.825809   -0.662052
      6          1           0       -0.310212   -2.489643    1.000791
      7          1           0       -2.385564   -1.176865    1.087200
      8          6           0        1.150870    0.496748    0.272142
      9          6           0        0.172263    1.513415    0.345004
     10          1           0        1.881104   -1.375711    0.939762
     11          1           0       -1.742368    2.081135    1.073169
     12          1           0        0.205642    2.298969   -0.403795
     13          1           0        0.719928   -0.556018    2.076732
     14          1           0       -0.967340    0.663377    1.951546
     15          8           0        1.991832    0.539541   -0.778067
     16          6           0        3.159702   -0.260700   -0.729558
     17          1           0        2.946728   -1.289106   -1.045328
     18          1           0        3.859928    0.185258   -1.435757
     19          1           0        3.580235   -0.260368    0.281137
     20          6           0       -2.074906   -0.232899   -0.852410
     21          8           0       -3.177154    0.269283   -1.004061
     22          1           0       -1.299335   -0.133452   -1.645927
 ---------------------------------------------------------------------
 Rotational constants (GHZ):           2.2045258           0.8183069           0.7654286
 Standard basis: 6-31G(d) (6D, 7F)
 There are   174 symmetry adapted cartesian basis functions of A   symmetry.
 There are   174 symmetry adapted basis functions of A   symmetry.
   174 basis functions,   328 primitive gaussians,   174 cartesian basis functions
    38 alpha electrons       38 beta electrons
       nuclear repulsion energy       530.0030975315 Hartrees.
 NAtoms=   22 NActive=   22 NUniq=   22 SFac= 1.00D+00 NAtFMM=   60 NAOKFM=F Big=F
 Integral buffers will be    131072 words long.
 Raffenetti 2 integral format.
 Two-electron integral symmetry is turned on.
 One-electron integrals computed using PRISM.
 NBasis=   174 RedAO= T EigKep=  1.97D-03  NBF=   174
 NBsUse=   174 1.00D-06 EigRej= -1.00D+00 NBFU=   174
 Initial guess from the checkpoint file:  "DATS_14_endo_iv.chk"
 B after Tr=     0.000000   -0.000000    0.000000
         Rot=    0.993710   -0.110548   -0.006520    0.016655 Ang= -12.86 deg.
 ExpMin= 1.61D-01 ExpMax= 5.48D+03 ExpMxC= 8.25D+02 IAcc=3 IRadAn=         5 AccDes= 0.00D+00
 Harris functional with IExCor= 1009 and IRadAn=       5 diagonalized for initial guess.
 HarFok:  IExCor= 1009 AccDes= 0.00D+00 IRadAn=         5 IDoV= 1 UseB2=F ITyADJ=14
 ICtDFT=  3500011 ScaDFX=  1.000000  1.000000  1.000000  1.000000
 FoFCou: FMM=F IPFlag=           0 FMFlag=      100000 FMFlg1=           0
         NFxFlg=           0 DoJE=T BraDBF=F KetDBF=T FulRan=T
         wScrn=  0.000000 ICntrl=       500 IOpCl=  0 I1Cent=   200000004 NGrid=           0
         NMat0=    1 NMatS0=      1 NMatT0=    0 NMatD0=    1 NMtDS0=    0 NMtDT0=    0
 Petite list used in FoFCou.
 Requested convergence on RMS density matrix=1.00D-08 within 128 cycles.
 Requested convergence on MAX density matrix=1.00D-06.
 Requested convergence on             energy=1.00D-06.
 No special actions if energy rises.
 Integral accuracy reduced to 1.0D-05 until final iterations.
 Initial convergence to 1.0D-05 achieved.  Increase integral accuracy.
 SCF Done:  E(RM062X) =  -462.174478160     A.U. after   15 cycles
            NFock= 15  Conv=0.10D-07     -V/T= 2.0083
 Calling FoFJK, ICntrl=      2127 FMM=F ISym2X=0 I1Cent= 0 IOpClX= 0 NMat=1 NMatS=1 NMatT=0.
 ***** Axes restored to original set *****
 -------------------------------------------------------------------
 Center     Atomic                   Forces (Hartrees/Bohr)
 Number     Number              X              Y              Z
 -------------------------------------------------------------------
      1        6          -0.005837850    0.005531390   -0.000719125
      2        6           0.000501770   -0.001961138    0.001525654
      3        6          -0.004205016   -0.000391876    0.000129894
      4        6           0.005833333   -0.005801572    0.000295916
      5        1           0.000271599   -0.001015448   -0.000226391
      6        1           0.000546774    0.000689396   -0.001945181
      7        1           0.001022640   -0.000331775    0.001869675
      8        6          -0.003487164   -0.011292983   -0.004664329
      9        6           0.002239814    0.004006492   -0.002919694
     10        1          -0.003531851   -0.002405965    0.001378147
     11        1          -0.000424198    0.000270834   -0.000461300
     12        1           0.000946315    0.000104114   -0.000851537
     13        1          -0.000868445    0.000364131    0.000533185
     14        1           0.000897641   -0.001462708    0.001159868
     15        8           0.008729705    0.005559752    0.004516004
     16        6           0.000054007    0.003759908   -0.000020708
     17        1          -0.000067343   -0.001323970    0.000491526
     18        1           0.000346960   -0.000490314   -0.000027578
     19        1           0.002137129    0.000255675   -0.001302320
     20        6          -0.009040600    0.007864762    0.004942045
     21        8           0.002369609   -0.000620332   -0.003728494
     22        1           0.001565169   -0.001308372    0.000024742
 -------------------------------------------------------------------
 Cartesian Forces:  Max     0.011292983 RMS     0.003322992

 GradGradGradGradGradGradGradGradGradGradGradGradGradGradGradGradGradGrad
 Berny optimization.
 FormGI is forming the generalized inverse of G from B-inverse, IUseBI=4.
 Internal  Forces:  Max     0.021169797 RMS     0.003608427
 Search for a saddle point.
 Step number   2 out of a maximum of  103
 All quantities printed in internal units (Hartrees-Bohrs-Radians)
 Swapping is turned off.
 Update second derivatives using D2CorX and points    1    2
 ITU=  0  0
     Eigenvalues ---   -0.02908  -0.00008   0.00424   0.00958   0.01046
     Eigenvalues ---    0.01399   0.01965   0.02019   0.02582   0.02671
     Eigenvalues ---    0.03234   0.03683   0.03811   0.03998   0.04111
     Eigenvalues ---    0.05167   0.05478   0.06338   0.07018   0.07959
     Eigenvalues ---    0.08149   0.09010   0.09347   0.09867   0.10572
     Eigenvalues ---    0.10679   0.11123   0.13388   0.13629   0.13824
     Eigenvalues ---    0.14146   0.16906   0.18307   0.19020   0.19229
     Eigenvalues ---    0.22461   0.23316   0.29167   0.31727   0.32307
     Eigenvalues ---    0.34201   0.34736   0.35800   0.35985   0.36281
     Eigenvalues ---    0.36751   0.37225   0.37340   0.37435   0.37613
     Eigenvalues ---    0.37855   0.38640   0.39921   0.41089   0.49255
     Eigenvalues ---    0.53271   0.60605   0.63679   0.81159   1.06179
 Eigenvectors required to have negative eigenvalues:
                          R1        D20       D24       D15       D12
   1                    0.67210   0.25201  -0.24502  -0.22893   0.20557
                          D21       A2        D31       D16       D11
   1                    0.16160  -0.16008  -0.15101   0.14774  -0.12702
 RFO step:  Lambda0=8.370274293D-07 Lambda=-6.82537493D-03.
 Linear search not attempted -- option 19 set.
 Iteration  1 RMS(Cart)=  0.11005897 RMS(Int)=  0.00464286
 Iteration  2 RMS(Cart)=  0.00909445 RMS(Int)=  0.00052638
 Iteration  3 RMS(Cart)=  0.00006325 RMS(Int)=  0.00052452
 Iteration  4 RMS(Cart)=  0.00000002 RMS(Int)=  0.00052452
 Variable       Old X    -DE/DX   Delta X   Delta X   Delta X     New X
                                 (Linear)    (Quad)   (Total)
    R1        3.69378   0.00534   0.00000   0.15376   0.15376   3.84754
    R2        2.64528   0.00162   0.00000  -0.01454  -0.01454   2.63074
    R3        2.05960  -0.00031   0.00000  -0.00200  -0.00200   2.05760
    R4        2.05469   0.00015   0.00000  -0.00063  -0.00063   2.05406
    R5        2.63761   0.00198   0.00000  -0.00927  -0.00927   2.62834
    R6        2.05163  -0.00151   0.00000   0.00228   0.00228   2.05391
    R7        2.04653   0.00048   0.00000  -0.00002  -0.00002   2.04651
    R8        2.56603   0.00394   0.00000   0.00951   0.00951   2.57554
    R9        2.05026  -0.00014   0.00000   0.00018   0.00018   2.05044
   R10        2.04301   0.00021   0.00000   0.00070   0.00070   2.04370
   R11        2.05178   0.00000   0.00000   0.00102   0.00102   2.05281
   R12        2.73885   0.00432   0.00000   0.02043   0.02043   2.75929
   R13        2.67020  -0.00166   0.00000  -0.00629  -0.00629   2.66390
   R14        2.54376   0.01004   0.00000   0.01820   0.01820   2.56196
   R15        2.05182   0.00033   0.00000   0.00141   0.00141   2.05323
   R16        2.67692   0.00057   0.00000  -0.00623  -0.00623   2.67070
   R17        2.07241  -0.00063   0.00000   0.00036   0.00036   2.07277
   R18        2.05964   0.00015   0.00000   0.00023   0.00023   2.05987
   R19        2.06867  -0.00039   0.00000   0.00126   0.00126   2.06993
   R20        2.30681  -0.00400   0.00000  -0.01123  -0.01123   2.29558
   R21        2.10522   0.00082   0.00000   0.00257   0.00257   2.10778
    A1        2.03327  -0.00017   0.00000  -0.04321  -0.04293   1.99034
    A2        1.66210   0.00121   0.00000   0.01180   0.01241   1.67452
    A3        1.64249  -0.00156   0.00000  -0.03960  -0.03960   1.60290
    A4        2.03226   0.00031   0.00000   0.03049   0.03017   2.06242
    A5        2.03210   0.00080   0.00000   0.02274   0.02078   2.05287
    A6        1.99080  -0.00091   0.00000  -0.00614  -0.00671   1.98409
    A7        1.81915  -0.00165   0.00000  -0.02003  -0.02038   1.79878
    A8        1.75237   0.00092   0.00000   0.04004   0.04015   1.79251
    A9        1.72461  -0.00106   0.00000  -0.07674  -0.07691   1.64770
   A10        2.03549   0.00334   0.00000   0.02884   0.02852   2.06402
   A11        2.06335  -0.00101   0.00000   0.00870   0.00638   2.06973
   A12        1.99198  -0.00121   0.00000  -0.00144  -0.00102   1.99096
   A13        2.10388   0.00034   0.00000   0.00216   0.00147   2.10535
   A14        2.14290  -0.00037   0.00000  -0.00498  -0.00568   2.13723
   A15        2.02835  -0.00011   0.00000  -0.00541  -0.00611   2.02224
   A16        2.11505  -0.00096   0.00000   0.00007  -0.00117   2.11388
   A17        2.10463   0.00347   0.00000   0.00838   0.00722   2.11185
   A18        2.05685  -0.00271   0.00000  -0.01821  -0.01933   2.03752
   A19        2.12749  -0.00998   0.00000  -0.00344  -0.00365   2.12384
   A20        2.09254   0.02117   0.00000   0.03695   0.03655   2.12909
   A21        2.03760  -0.01166   0.00000  -0.04216  -0.04223   1.99537
   A22        2.11189  -0.00138   0.00000   0.00446   0.00432   2.11621
   A23        2.09613   0.00219   0.00000   0.00766   0.00748   2.10361
   A24        2.05297  -0.00087   0.00000  -0.01839  -0.01851   2.03447
   A25        2.06052   0.01131   0.00000  -0.01494  -0.01494   2.04558
   A26        1.93883   0.00047   0.00000   0.00027   0.00026   1.93909
   A27        1.85077  -0.00018   0.00000   0.00714   0.00711   1.85789
   A28        1.92640   0.00259   0.00000   0.01277   0.01276   1.93916
   A29        1.89853   0.00019   0.00000   0.00765   0.00762   1.90615
   A30        1.91849  -0.00106   0.00000  -0.01385  -0.01386   1.90463
   A31        1.92975  -0.00203   0.00000  -0.01343  -0.01345   1.91629
   A32        2.18767   0.00325   0.00000   0.00827   0.00826   2.19593
   A33        1.99680  -0.00286   0.00000  -0.01757  -0.01758   1.97922
   A34        2.09834  -0.00038   0.00000   0.00948   0.00947   2.10781
    D1       -1.02727   0.00144   0.00000  -0.05392  -0.05408  -1.08135
    D2       -3.14097  -0.00198   0.00000  -0.09444  -0.09419   3.04803
    D3        1.10566  -0.00065   0.00000  -0.08182  -0.08041   1.02525
    D4        1.12021   0.00253   0.00000  -0.02839  -0.02899   1.09123
    D5       -0.99349  -0.00089   0.00000  -0.06891  -0.06909  -1.06258
    D6       -3.03005   0.00044   0.00000  -0.05629  -0.05532  -3.08536
    D7        3.12126   0.00155   0.00000  -0.03846  -0.03969   3.08157
    D8        1.00756  -0.00187   0.00000  -0.07898  -0.07980   0.92777
    D9       -1.02900  -0.00054   0.00000  -0.06637  -0.06602  -1.09502
   D10       -1.67171   0.00214   0.00000   0.06853   0.06849  -1.60322
   D11        1.59631   0.00413   0.00000   0.16201   0.16222   1.75853
   D12        2.67060   0.00042   0.00000   0.06202   0.06232   2.73291
   D13       -0.34456   0.00242   0.00000   0.15550   0.15604  -0.18852
   D14        0.24302   0.00052   0.00000   0.00174   0.00111   0.24413
   D15       -2.77214   0.00251   0.00000   0.09522   0.09484  -2.67730
   D16        1.23601  -0.00409   0.00000  -0.12195  -0.12238   1.11363
   D17       -1.65674  -0.00031   0.00000  -0.07476  -0.07455  -1.73129
   D18       -3.13422  -0.00252   0.00000  -0.07326  -0.07365   3.07531
   D19        0.25621   0.00127   0.00000  -0.02607  -0.02582   0.23039
   D20       -0.65575  -0.00127   0.00000  -0.01925  -0.01939  -0.67514
   D21        2.73468   0.00252   0.00000   0.02794   0.02845   2.76313
   D22       -2.96623   0.00079   0.00000   0.05334   0.05349  -2.91273
   D23       -0.05476   0.00034   0.00000   0.01892   0.01888  -0.03588
   D24        0.31655   0.00199   0.00000   0.12553   0.12557   0.44212
   D25       -3.05517   0.00153   0.00000   0.09111   0.09096  -2.96422
   D26        3.02705  -0.00203   0.00000  -0.10969  -0.10938   2.91767
   D27       -0.08489  -0.00230   0.00000  -0.11657  -0.11627  -0.20116
   D28        0.00777  -0.00020   0.00000  -0.02047  -0.02078  -0.01301
   D29       -3.10418  -0.00048   0.00000  -0.02736  -0.02766  -3.13184
   D30       -0.05878   0.00060   0.00000   0.09439   0.09395   0.03517
   D31       -2.97575   0.00065   0.00000   0.12474   0.12407  -2.85168
   D32        2.84138   0.00137   0.00000   0.05912   0.05980   2.90118
   D33       -0.07559   0.00142   0.00000   0.08947   0.08991   0.01433
   D34       -0.48409  -0.00259   0.00000   0.07627   0.07625  -0.40784
   D35        2.89384   0.00108   0.00000   0.11640   0.11642   3.01026
   D36        1.45427  -0.00130   0.00000  -0.06169  -0.06171   1.39255
   D37       -2.76900  -0.00093   0.00000  -0.04819  -0.04819  -2.81718
   D38       -0.67840  -0.00206   0.00000  -0.05309  -0.05306  -0.73146
         Item               Value     Threshold  Converged?
 Maximum Force            0.021170     0.000450     NO 
 RMS     Force            0.003608     0.000300     NO 
 Maximum Displacement     0.304422     0.001800     NO 
 RMS     Displacement     0.112873     0.001200     NO 
 Predicted change in Energy=-4.430346D-03
 GradGradGradGradGradGradGradGradGradGradGradGradGradGradGradGradGradGrad

                          Input orientation:                          
 ---------------------------------------------------------------------
 Center     Atomic      Atomic             Coordinates (Angstroms)
 Number     Number       Type             X           Y           Z
 ---------------------------------------------------------------------
      1          6           0       -1.501309   -0.449584   -1.220740
      2          6           0        0.026598   -1.718850   -0.773646
      3          6           0       -0.622316   -0.554851    1.742948
      4          6           0       -2.140985    0.083094   -0.104902
      5          1           0       -0.912081    0.220902   -1.844298
      6          1           0       -2.024083   -1.220347   -1.781203
      7          1           0       -3.011608   -0.401556    0.327736
      8          6           0        0.919489   -0.905369   -0.084101
      9          6           0        0.582414   -0.316896    1.151728
     10          1           0        0.320433   -2.092792   -1.750959
     11          1           0       -0.960322    0.055303    2.574087
     12          1           0        1.206418    0.508508    1.483174
     13          1           0       -0.595258   -2.401665   -0.208073
     14          1           0       -1.194422   -1.452871    1.553584
     15          8           0        2.004530   -0.358594   -0.685545
     16          6           0        2.495066   -1.003695   -1.843369
     17          1           0        1.897799   -0.740699   -2.724967
     18          1           0        3.516754   -0.650743   -1.983920
     19          1           0        2.492293   -2.092038   -1.719605
     20          6           0       -1.844729    1.436117    0.357273
     21          8           0       -2.491065    2.067447    1.169267
     22          1           0       -0.946573    1.883816   -0.129531
 ---------------------------------------------------------------------
                    Distance matrix (angstroms):
                    1          2          3          4          5
     1  C    0.000000
     2  C    2.036033   0.000000
     3  C    3.093083   2.847671   0.000000
     4  C    1.392130   2.897004   2.475455   0.000000
     5  H    1.088837   2.406253   3.681589   2.134173   0.000000
     6  H    1.086962   2.338582   3.850646   2.126642   1.821463
     7  H    2.163582   3.489842   2.781195   1.086299   3.084348
     8  C    2.712923   1.390856   2.416223   3.216208   2.778746
     9  C    3.160398   2.445704   1.362915   3.025890   3.391005
    10  H    2.509982   1.086882   3.932102   3.674583   2.623163
    11  H    3.866302   3.915220   1.085047   2.927750   4.421751
    12  H    3.944727   3.383243   2.131309   3.729352   3.955101
    13  H    2.378454   1.082965   2.686622   2.928129   3.107325
    14  H    2.966081   2.641521   1.081482   2.450662   3.798268
    15  O    3.547622   2.402140   3.582794   4.209220   3.191418
    16  C    4.082367   2.783719   4.772966   5.069156   3.620537
    17  H    3.728456   2.875035   5.133009   4.884173   3.097689
    18  H    5.079750   3.845362   5.570515   6.006599   4.515954
    19  H    4.346882   2.667164   4.904387   5.367097   4.117646
    20  C    2.482726   3.838575   2.716311   1.460152   2.682069
    21  O    3.609321   4.944652   3.270746   2.384056   3.870981
    22  H    2.635000   3.786971   3.091669   2.160978   2.388912
                    6          7          8          9         10
     6  H    0.000000
     7  H    2.468450   0.000000
     8  C    3.412328   3.984591   0.000000
     9  C    4.026429   3.688242   1.409678   0.000000
    10  H    2.501765   4.275950   2.132430   3.412921   0.000000
    11  H    4.661268   3.076132   3.394488   2.131121   4.996065
    12  H    4.907263   4.467101   2.130193   1.086521   4.243977
    13  H    2.431417   3.182181   2.132775   2.753585   1.820546
    14  H    3.444301   2.431077   2.729540   2.146875   3.691109
    15  O    4.262958   5.117639   1.355732   2.323730   2.641730
    16  C    4.524766   5.949767   2.363712   3.619466   2.433865
    17  H    4.062254   5.791053   2.821060   4.115654   2.294544
    18  H    5.573725   6.930033   3.227992   4.307446   3.514291
    19  H    4.600141   6.110832   2.560619   3.878571   2.172087
    20  C    3.414974   2.177044   3.649420   3.097618   4.646048
    21  O    4.442177   2.659909   4.694725   3.889945   5.808600
    22  H    3.677618   3.113902   3.356159   2.970280   4.477471
                   11         12         13         14         15
    11  H    0.000000
    12  H    2.467843   0.000000
    13  H    3.729662   3.817781   0.000000
    14  H    1.835978   3.100966   2.088694   0.000000
    15  O    4.425705   2.468236   3.340810   4.055173   0.000000
    16  C    5.707460   3.874694   3.765450   5.035212   1.413272
    17  H    6.073092   4.443757   3.912658   5.326820   2.077653
    18  H    6.427919   4.324610   4.809158   5.945798   2.014435
    19  H    5.913325   4.321354   3.451604   4.971334   2.076541
    20  C    2.757370   3.381953   4.075458   3.193792   4.373243
    21  O    2.892303   4.024948   5.046198   3.771156   5.434738
    22  H    3.263924   3.021202   4.300574   3.745368   3.747875
                   16         17         18         19         20
    16  C    0.000000
    17  H    1.096863   0.000000
    18  H    1.090035   1.782767   0.000000
    19  H    1.095361   1.786139   1.787935   0.000000
    20  C    5.443282   5.314626   6.211414   5.964148   0.000000
    21  O    6.585544   6.504835   7.309243   7.104981   1.214769
    22  H    4.808309   4.659917   5.457475   5.491954   1.115390
                   21         22
    21  O    0.000000
    22  H    2.026340   0.000000
 Stoichiometry    C8H12O2
 Framework group  C1[X(C8H12O2)]
 Deg. of freedom    60
 Full point group                 C1      NOp   1
 Largest Abelian subgroup         C1      NOp   1
 Largest concise Abelian subgroup C1      NOp   1
                         Standard orientation:                         
 ---------------------------------------------------------------------
 Center     Atomic      Atomic             Coordinates (Angstroms)
 Number     Number       Type             X           Y           Z
 ---------------------------------------------------------------------
      1          6           0       -0.481028   -1.655730    0.091546
      2          6           0        1.121590   -0.773821    0.985572
      3          6           0       -0.909845    1.213867    1.163315
      4          6           0       -1.673988   -0.955389    0.247732
      5          1           0       -0.041311   -1.706583   -0.903255
      6          1           0       -0.350118   -2.564285    0.673677
      7          1           0       -2.344878   -1.166892    1.075511
[...]
 7,-0.21055636,-0.08131690,-0.00054831,-0.00008933,-0.00029519,0.002093
 83,-0.00172074,0.00289994,0.14555551,0.21473262,0.00033321,0.00001264,
 0.00040255,0.00418878,-0.00260916,-0.00327462,0.01064987,0.01259463,0.
 00716532,-0.00007551,0.00053595,-0.00007577,-0.00011220,0.00004928,-0.
 00010456,0.00021048,-0.00009928,0.00003254,-0.00011932,-0.00001422,0.0
 0000288,-0.01653548,-0.02148288,-0.00714667,-0.04739458,-0.07634251,-0
 .07637685,-0.00123009,-0.00070216,-0.00067834,-0.00226069,0.00223615,-
 0.00191074,0.04943963,0.08607883,0.07826347,-0.00639855,0.01416107,-0.
 00432254,-0.14780582,-0.11687638,0.11153697,0.00410931,0.00053635,0.00
 186996,0.00121304,-0.00065247,-0.00513096,-0.00114807,0.00080582,-0.00
 003837,0.00091480,0.00004083,0.00010288,-0.00001340,-0.00032555,0.0004
 3317,-0.01882213,-0.01368957,0.00728217,-0.00482437,0.00245073,0.00270
 507,-0.00316223,-0.00334582,0.00205219,-0.00018950,0.00053549,-0.00046
 483,-0.00016404,0.00020647,0.00012327,0.17324994,0.00733606,-0.0145178
 8,0.00385579,-0.13073304,-0.13693771,0.08260498,-0.00476974,0.00037294
 ,-0.00110660,-0.00033562,0.00126057,0.00550644,0.00100237,-0.00040137,
 0.00010348,-0.00087727,0.00109489,-0.00064426,0.00014575,0.00000196,-0
 .00011833,-0.00350931,-0.00154417,0.01832068,0.00377128,-0.00154284,-0
 .00324582,0.00874222,0.00940229,-0.00672793,0.00054304,0.00026715,0.00
 038033,0.00023550,-0.00007380,0.00010219,0.12145351,0.14130713,-0.0023
 3935,0.00584001,-0.00132858,0.11532019,0.08810649,-0.14142701,0.000473
 48,-0.00341327,-0.00099311,0.00027194,-0.00182211,-0.00222214,-0.00050
 866,-0.00010072,-0.00004770,0.00011166,-0.00006920,-0.00031969,0.00003
 477,0.00005754,0.00008924,-0.01195385,-0.00864195,0.01192620,0.0001794
 2,0.00138580,-0.00062310,0.01479095,0.01543590,-0.01075683,-0.00005322
 ,-0.00002901,0.00001707,-0.00013599,0.00041378,0.00003142,-0.11601876,
 -0.09265763,0.14963912,-0.00250986,0.00287078,0.00156718,0.00292940,-0
 .00127942,0.00196149,-0.12334126,-0.13602905,-0.01376485,-0.00224065,0
 .00488889,-0.00814300,0.00014340,-0.00011480,0.00027121,0.00025735,-0.
 00030814,0.00012648,-0.00033652,0.00071763,-0.00064650,-0.00154160,-0.
 00154800,-0.00663181,-0.01563775,-0.02373389,-0.00317375,-0.00000457,0
 .00061344,-0.00032740,0.00669025,0.00773518,0.00137612,-0.00160502,-0.
 00274469,0.00543269,0.00067860,0.00067894,0.00137772,0.13745513,0.0033
 4262,-0.00328944,-0.00202556,-0.00151856,0.00165300,-0.00315969,-0.146
 56761,-0.26064754,-0.05111068,0.00195752,-0.00411041,0.00827692,-0.000
 10551,0.00002770,-0.00018066,-0.00043547,0.00052861,-0.00027832,0.0002
 2285,0.00070233,-0.00040594,0.00070907,-0.00002738,0.00331438,0.002551
 97,0.00014824,-0.00537638,0.00048474,0.00023836,0.00003984,-0.00919484
 ,-0.00891094,-0.00142921,-0.00132706,0.00339733,-0.00188400,0.00001173
 ,-0.00004322,-0.00114631,0.14846910,0.26970441,-0.00487770,0.00482388,
 0.00205857,0.00602003,-0.00037612,0.00110323,-0.00538631,-0.05030746,-
 0.05152484,-0.00378801,0.00631221,-0.01177313,0.00035746,-0.00024639,0
 .00034811,0.00034463,-0.00046546,0.00017041,0.00025612,0.00007081,0.00
 041340,-0.00234748,-0.00251469,-0.00770466,-0.00159569,0.01251827,0.01
 295258,-0.00041455,0.00026627,0.00016034,-0.01268962,-0.01886736,0.000
 34467,0.00415797,-0.00337887,0.00241340,0.00119237,-0.00204439,-0.0025
 6926,0.01977899,0.05558752,0.05292876,0.00416116,-0.00392902,0.0026827
 4,-0.03967418,-0.02451785,0.01422521,0.00942099,-0.00092199,0.00014011
 ,-0.00429925,0.01022211,-0.00016310,0.00051371,0.00117268,-0.00084245,
 0.00016853,0.00040000,-0.00046859,-0.00034747,0.00046174,-0.00070839,-
 0.24115526,-0.09975637,0.06515717,-0.02440467,-0.00602353,0.03259618,0
 .00035920,0.00071429,0.00067882,-0.00044881,0.00021505,-0.00007023,-0.
 00111937,0.00159978,-0.00241915,0.00168087,-0.00437607,-0.00287632,-0.
 00039944,0.00115073,-0.00099090,0.38856618,0.00472762,-0.00469041,-0.0
 0084272,-0.03167677,-0.00647847,0.00788854,-0.00178145,0.00029500,-0.0
 0507250,-0.00168932,0.00520839,0.00401268,-0.00167430,0.00027279,-0.00
 077932,0.00000560,0.00113171,-0.00071759,0.00003587,0.00017360,-0.0002
 1394,-0.08477366,-0.10247770,-0.00168924,0.01409211,0.01032031,-0.0040
 5835,0.00381241,-0.00131009,0.00183913,0.00088536,0.00017757,-0.000329
 41,0.00081425,-0.00020861,0.00149279,-0.00505799,0.00148213,-0.0038045
 2,0.00047052,0.00011502,0.00002970,0.10136090,0.20604141,0.00169525,-0
 .00034525,-0.00200764,-0.00532366,-0.00304393,0.01420770,-0.00807986,-
 0.00434476,-0.00358628,0.00315391,-0.00717350,0.00258107,0.00065259,-0
 .00034661,0.00054534,-0.00029862,-0.00044430,0.00058575,-0.00014602,-0
 .00009776,0.00018760,0.09431757,0.01958088,-0.12511099,0.05242730,0.01
 631834,-0.03262719,0.00059271,0.00242104,-0.00134957,0.00183721,-0.000
 06949,-0.00022565,-0.00020591,0.00169285,0.00151449,-0.00104870,-0.003
 03690,-0.00109180,0.00055537,-0.00023585,0.00087360,-0.19718470,0.0934
 2601,0.42685889,-0.00076181,0.00015738,0.00020686,-0.00026685,0.000955
 20,0.00158373,-0.00040372,0.00048678,0.00143381,0.00069975,-0.00118673
 ,-0.00012793,-0.00014533,0.00024525,-0.00011353,0.00006688,0.00000995,
 0.00005947,0.00001572,-0.00002839,-0.00005018,-0.02579012,0.01116864,0
 .03858040,-0.00186972,-0.00351362,-0.00085399,-0.00315363,-0.00017628,
 0.00215754,-0.00029200,0.00002390,-0.00002100,-0.00005186,0.00032835,0
 .00012336,0.00048109,0.00085330,0.00075317,0.00009139,-0.00006668,0.00
 009168,-0.09072457,-0.00183692,0.02949528,0.62367258,0.00126462,-0.000
 95043,-0.00006686,-0.00510342,-0.00118124,0.00323407,-0.00057264,0.001
 39471,0.00002239,-0.00059868,0.00137541,0.00079976,0.00020441,-0.00003
 967,-0.00001240,-0.00013769,0.00005677,-0.00011996,-0.00008144,0.00007
 636,-0.00009738,0.00181316,0.00633943,0.01354141,-0.00358801,-0.000914
 82,0.00016205,-0.00197513,-0.00072755,0.00100176,-0.00030930,-0.000015
 09,0.00014967,0.00035350,0.00000779,0.00026583,-0.00031277,-0.00028185
 ,-0.00016559,0.00013328,-0.00009802,-0.00011691,0.01426349,-0.10700161
 ,-0.08026834,0.03592279,0.59066101,0.00179648,-0.00270361,0.00069698,-
 0.00780973,-0.00004709,0.00386933,0.00238786,-0.00074431,-0.00039696,-
 0.00152173,0.00425345,0.00038369,0.00008324,0.00073917,-0.00016897,-0.
 00030178,0.00041063,-0.00029310,-0.00017144,0.00018591,-0.00039139,0.0
 2524555,0.00160226,-0.03050198,-0.00109167,-0.00060108,0.00664796,0.00
 019343,-0.00077780,-0.00063905,-0.00022559,0.00022188,-0.00011209,-0.0
 0037214,0.00019167,-0.00061024,-0.00024987,-0.00172678,-0.00113098,-0.
 00021350,0.00025022,-0.00019060,0.05060768,-0.06290082,-0.21216980,0.0
 1573316,-0.03556532,0.52194804,-0.00060532,0.00051903,-0.00017496,0.00
 039820,-0.00145661,-0.00092792,0.00020221,0.00003418,0.00001174,0.0000
 7822,-0.00010373,-0.00023086,-0.00026696,0.00011321,0.00008981,0.00007
 398,-0.00002497,-0.00000942,0.00010900,-0.00009269,0.00009229,0.002313
 92,-0.00030144,0.00058220,-0.00049935,0.00047057,0.00003519,-0.0007428
 0,-0.00130051,0.00173980,0.00001550,-0.00001052,0.00000855,0.00004584,
 -0.00003987,0.00002178,-0.00040574,0.00062906,0.00007725,-0.00001259,-
 0.00004478,-0.00005271,0.01274403,-0.00468287,0.01188967,-0.17069942,0
 .04529875,-0.12369118,0.17558075,-0.00012238,0.00014045,-0.00007302,0.
 00067555,0.00053100,0.00078564,-0.00001950,-0.00008285,0.00002551,0.00
 004391,-0.00037755,-0.00005064,0.00023603,-0.00000631,-0.00001812,-0.0
 0010891,-0.00003195,0.00006958,-0.00004817,0.00001323,-0.00002036,-0.0
 0158293,-0.00026634,0.00091649,0.00024120,-0.00011082,-0.00017664,-0.0
 0039415,-0.00088188,0.00041668,-0.00000147,0.00000208,-0.00002418,-0.0
 0005005,0.00004175,-0.00001023,0.00007745,-0.00010683,-0.00025214,-0.0
 0000445,-0.00002526,0.00002894,-0.00894417,0.00479465,-0.01731023,0.04
 499114,-0.07152539,0.04957447,-0.04742182,0.06980920,0.00025694,0.0002
 3509,-0.00033495,0.00082716,0.00042321,0.00019879,-0.00076303,-0.00008
 706,0.00010882,0.00024704,-0.00078135,0.00031907,0.00022009,-0.0003365
 7,0.00009099,-0.00000703,-0.00007469,0.00009681,-0.00000738,0.00000159
 ,0.00008936,-0.00841443,-0.00258738,0.00286294,0.00155553,-0.00012505,
 -0.00118917,0.00035159,0.00121221,-0.00021637,0.00004652,0.00002281,-0
 .00004486,-0.00012968,0.00018348,0.00014153,0.00003994,0.00017378,0.00
 041132,0.00009265,-0.00003425,0.00009331,-0.00798490,-0.00041466,-0.04
 037547,-0.11895539,0.04809091,-0.17676681,0.13193448,-0.04653425,0.207
 20044,0.00015723,-0.00004907,-0.00001418,0.00010765,-0.00027577,-0.000
 04115,0.00015249,0.00012902,0.00019167,-0.00006455,0.00025808,-0.00000
 199,0.00003200,-0.00008336,-0.00000304,0.00001899,0.00000580,-0.000007
 41,0.00000424,0.00001761,0.00001653,0.00194383,0.00179581,-0.00007622,
 -0.00048498,-0.00034478,0.00028226,-0.00004708,0.00027591,0.00010657,-
 0.00005157,0.00000479,0.00000251,-0.00000878,0.00002451,0.00000117,-0.
 00002012,0.00002396,0.00010552,0.00001232,0.00001279,-0.00002137,-0.00
 977132,-0.00221126,0.00822838,-0.27529305,-0.10603609,0.04315561,-0.01
 686198,-0.00976892,0.00316468,0.29458802,0.00027472,-0.00020749,0.0000
 3598,-0.00055861,-0.00001931,-0.00050881,-0.00030828,-0.00006220,-0.00
 013854,0.00000149,0.00009027,0.00019571,-0.00007314,0.00005748,-0.0000
 0887,0.00000051,0.00000174,-0.00000383,-0.00000632,0.00000496,-0.00000
 755,0.00046754,-0.00072243,-0.00210323,0.00060758,0.00045544,-0.000479
 68,0.00004403,-0.00003151,0.00071146,0.00009484,-0.00003730,0.00003594
 ,-0.00002220,-0.00001194,0.00001521,-0.00010931,0.00019888,0.00012646,
 -0.00000488,0.00001504,-0.00000432,0.01717913,0.00660135,-0.00710332,-
 0.11247842,-0.10635569,0.02507866,0.00914026,0.00464367,-0.00164860,0.
 11477875,0.10582308,0.00003827,0.00008908,-0.00008146,-0.00035264,-0.0
 0086910,-0.00062142,-0.00033512,-0.00030141,-0.00038623,0.00010280,-0.
 00031262,0.00006974,0.00005945,-0.00009779,0.00000375,0.00003299,-0.00
 003977,0.00003839,-0.00000500,-0.00000514,0.00002466,-0.00017852,-0.00
 376080,-0.00347328,0.00155638,0.00076623,-0.00052330,-0.00034458,0.000
 48222,0.00052906,0.00015440,0.00002169,-0.00004245,-0.00000474,-0.0000
 5091,0.00003022,-0.00000799,0.00028704,0.00032950,0.00002135,0.0000116
 7,0.00005345,0.03754238,0.01237269,-0.01848344,0.03286870,0.01870127,-
 0.05518574,-0.02027444,-0.01081644,0.00670523,-0.05319485,-0.01896331,
 0.07064428,-0.00110788,0.00097708,0.00013262,0.00038707,-0.00061873,-0
 .00020305,0.00099806,-0.00021709,0.00016831,-0.00004951,-0.00029262,-0
 .00082365,0.00014956,-0.00013607,0.00007172,0.00005168,-0.00007246,0.0
 0006691,0.00003761,-0.00003628,0.00005803,0.00316913,0.00267963,-0.001
 81452,-0.00086233,0.00012193,0.00119495,-0.00199632,0.00049856,-0.0002
 3667,-0.00000194,0.00000324,-0.00001281,-0.00005195,-0.00001675,-0.000
 12523,0.00020192,-0.00022199,-0.00009678,-0.00010252,0.00008592,-0.000
 07063,-0.00245705,0.01124137,0.00543120,-0.05597545,0.01993149,-0.0024
 9498,-0.00150258,0.02204791,-0.00264613,0.00569296,-0.02899768,0.00224
 818,0.05329551,-0.00024473,0.00017534,0.00014413,0.00043074,-0.0003352
 2,-0.00054395,-0.00034827,0.00013055,0.00017062,0.00028661,-0.00054985
 ,-0.00022288,-0.00000611,0.00002651,-0.00000481,0.00006110,-0.00005536
 ,0.00005861,0.00001756,-0.00000914,0.00002208,-0.00405186,-0.00027891,
 0.00212889,0.00048546,0.00025635,-0.00078705,-0.00036993,0.00049337,0.
 00044020,0.00008887,-0.00005804,0.00005866,0.00004125,0.00000116,0.000
 22489,-0.00002677,0.00018862,0.00029341,0.00004018,0.00002231,-0.00000
 357,0.00633627,-0.01175873,-0.01429006,0.02332483,-0.30999248,0.025217
 76,-0.00086734,-0.00677507,0.00184694,0.00166742,-0.01043836,0.0022800
 8,-0.02702290,0.33861652,0.00052276,-0.00019809,-0.00023634,0.00027056
 ,0.00165494,0.00049926,-0.00100312,0.00028557,-0.00019535,0.00007068,-
 0.00027970,0.00061659,-0.00005264,-0.00007319,-0.00003248,-0.00005985,
 0.00001403,-0.00002530,-0.00002077,0.00001693,0.00000831,-0.00539332,-
 0.00309621,0.00407575,0.00073314,0.00014313,-0.00177080,0.00063852,-0.
 00029592,-0.00013875,0.00002383,-0.00003071,0.00001893,0.00011072,-0.0
 0001421,0.00026628,-0.00000225,0.00001820,-0.00008503,0.00012332,-0.00
 009255,0.00009047,0.01094332,-0.03995547,-0.01104811,-0.00312705,0.030
 60897,-0.05468612,-0.00107146,0.02346214,0.00052848,-0.00189629,0.0047
 5468,0.00033815,-0.00082171,-0.01713657,0.06176551,0.00941027,0.012071
 49,0.00234335,-0.00717096,0.00247057,-0.00233423,-0.00740241,0.0037661
 2,-0.00716791,-0.09906952,-0.06183076,0.01474537,-0.00230759,0.0049084
 6,0.00048010,0.00182716,-0.00177069,0.00407072,-0.00316823,-0.02680851
 ,-0.00816126,0.00228755,0.00573512,0.00134900,0.00019764,0.00235333,-0
 .00104268,-0.00012481,0.00009041,-0.00002088,0.00065649,0.00006877,0.0
 0075961,-0.00042213,-0.00021340,-0.00065213,0.00034719,-0.00048812,0.0
 0061609,0.00035366,-0.00046437,0.00076512,-0.00251436,-0.00239333,0.00
 189556,0.00001841,-0.00018048,-0.00061644,0.00003093,0.00018739,0.0002
 1557,-0.00007481,0.00000771,0.00006342,0.00013054,0.00003366,-0.000017
 78,0.60782928,0.01938618,-0.01584346,-0.01701844,-0.01064350,0.0004832
 3,-0.00573703,0.01675301,-0.00818764,0.01015085,-0.05854895,-0.2287128
 5,-0.03556778,-0.00225613,-0.00062575,0.00257412,-0.00242305,0.0020428
 1,0.00112171,0.00017049,-0.00914290,-0.00453104,0.00879057,0.00871764,
 -0.00560720,-0.00465076,0.00120672,0.00835531,0.00006280,0.00009220,0.
 00028652,-0.00091405,0.00173738,-0.00217532,-0.00122677,0.00019515,-0.
 00075586,0.00074958,-0.00072867,0.00081703,-0.00127660,0.00081061,-0.0
 0177783,-0.01170632,-0.00527102,0.00813713,0.00156239,-0.00157829,-0.0
 0465703,0.00027692,0.00042575,0.00071476,-0.00043392,-0.00004421,0.000
 33880,0.00016315,0.00058965,0.00032958,-0.04800225,0.63975522,0.005149
 33,-0.03507084,-0.01947827,-0.00679966,0.00155991,-0.00456036,0.004005
 54,0.00081489,0.00038771,0.01011839,-0.01556288,-0.07484070,-0.0044491
 8,-0.00050157,-0.00116475,0.00548524,-0.00455177,-0.00213960,0.0037864
 5,0.01445063,0.00466705,0.00356419,0.00336078,-0.00104471,-0.00239131,
 0.00019216,0.00287917,0.00011864,-0.00022262,0.00039557,-0.00205568,0.
 00246204,-0.00349603,-0.00017731,0.00005163,0.00021654,0.00040288,-0.0
 0060733,0.00064293,0.00000731,-0.00033917,-0.00101309,-0.00412908,-0.0
 0166755,0.00269306,0.00087404,-0.00082376,-0.00177465,-0.00001146,0.00
 010211,0.00021512,-0.00011317,-0.00004048,0.00011895,0.00004694,0.0003
 8307,0.00007273,-0.33802193,0.22671936,0.54962381,0.00756318,-0.004023
 22,-0.00288350,-0.00231552,-0.00000944,-0.00126060,0.00256881,0.001175
 32,0.00304862,0.01391530,0.02381411,0.00957161,-0.00001448,-0.00126040
 ,-0.00093311,-0.00128131,0.00114144,-0.00054677,0.00080390,0.00397515,
 -0.00016693,0.00160505,0.00155234,0.00038941,0.00010190,-0.00025701,0.
 00004880,0.00002875,-0.00004705,0.00007348,-0.00030431,-0.00012250,-0.
 00018345,0.00011877,-0.00004508,0.00021326,0.00021507,-0.00024007,0.00
 001058,-0.00082069,0.00058720,-0.00061802,-0.00142188,-0.00036874,0.00
 091765,0.00044538,-0.00038814,-0.00081658,0.00003143,0.00003009,0.0000
 3722,-0.00007073,-0.00003681,0.00003981,0.00002779,0.00015440,0.000047
 55,-0.31897865,0.18216210,0.26871090,0.31942863,-0.01217498,-0.0014468
 2,0.00360229,0.00620177,-0.00061594,0.00268271,-0.00165093,-0.00074244
 ,-0.00304058,0.03496073,-0.03864676,-0.04882969,0.00100368,0.00012651,
 -0.00021119,0.00177342,-0.00114188,-0.00167157,0.00017957,0.00369157,0
 .00218502,-0.00398160,-0.00537642,-0.00020804,-0.00005734,-0.00047975,
 -0.00061671,0.00005978,-0.00003746,-0.00004683,-0.00017457,-0.00032613
 ,0.00015951,0.00035265,0.00007254,0.00010799,-0.00052052,0.00055218,-0
 .00034738,0.00059597,-0.00029421,0.00055135,0.00453443,0.00224687,-0.0
 0305981,-0.00075422,0.00073838,0.00185957,-0.00011711,-0.00018980,-0.0
 0023207,0.00019960,0.00004206,-0.00012197,-0.00011293,-0.00024960,-0.0
 0010067,0.19005417,-0.27080589,-0.22814628,-0.22537307,0.29158694,-0.0
 0763127,0.00399606,0.00743723,0.00598076,-0.00099303,0.00282314,-0.004
 44866,0.00087210,-0.00330448,0.01567253,-0.04464295,-0.01094413,0.0012
 5401,0.00016907,0.00099576,-0.00042825,0.00029403,-0.00021413,-0.00234
 518,-0.00010222,-0.00112859,-0.00368655,-0.00379292,-0.00032617,0.0003
 2149,0.00037130,-0.00117379,0.00008447,-0.00003483,-0.00008934,0.00124
 252,-0.00127606,0.00226295,0.00021343,-0.00002054,-0.00013622,-0.00050
 246,0.00053270,-0.00045403,0.00038355,0.00001510,0.00099216,0.00391615
 ,0.00153121,-0.00234024,-0.00073931,0.00069121,0.00164138,-0.00005964,
 -0.00011309,-0.00017263,0.00013492,0.00004938,-0.00010366,-0.00007548,
 -0.00028717,-0.00007976,0.27189073,-0.22235374,-0.36501445,-0.31408112
 ,0.27792894,0.37985763,-0.00190695,0.00162862,0.00089588,0.00152792,-0
 .00013486,0.00074082,0.00033968,0.00005327,0.00065185,-0.00103700,-0.0
 0594934,0.00811765,0.00050601,-0.00047843,-0.00082213,0.00007449,0.000
 20081,-0.00046931,0.00109209,-0.00157363,0.00092863,-0.00068667,-0.001
 71374,0.00023861,0.00014371,-0.00011512,-0.00067232,-0.00000377,0.0000
 1419,-0.00003175,-0.00018065,-0.00005029,-0.00008668,0.00016853,0.0000
 5319,0.00018689,-0.00013788,0.00013623,-0.00013980,-0.00005905,0.00013
 861,-0.00011137,0.00112298,0.00070060,-0.00080218,-0.00006367,0.000098
 31,0.00037363,-0.00002726,-0.00006372,-0.00008146,0.00003923,-0.000000
 89,-0.00003024,-0.00003430,-0.00003042,-0.00001817,-0.18185566,-0.0879
 9488,0.05587893,-0.02164640,0.00500150,0.03290334,0.20262463,-0.000399
 81,-0.00013581,0.00139112,-0.00011769,0.00008772,-0.00003395,-0.001685
 77,0.00087219,-0.00077312,-0.02692812,-0.01244285,0.01034409,0.0008150
 0,0.00002884,-0.00110525,0.00018265,0.00045147,-0.00024915,-0.00119334
 ,-0.00517267,-0.00237599,-0.00009239,-0.00023691,0.00051002,0.00072537
 ,0.00017851,-0.00070161,0.00002484,-0.00001017,0.00000553,0.00007429,-
 0.00011348,0.00016718,0.00025008,-0.00009530,0.00018392,-0.00011188,0.
 00004961,-0.00002661,-0.00017000,0.00008347,-0.00008559,0.00056472,0.0
 0033584,-0.00040614,0.00001137,0.00001226,0.00013821,-0.00001772,-0.00
 002172,-0.00004886,0.00000913,-0.00000353,-0.00001151,-0.00000479,0.00
 000041,-0.00001488,-0.07959529,-0.11511566,0.03743768,0.01757938,0.021
 29605,-0.01283455,0.09007998,0.10995172,-0.00164003,0.00036617,0.00157
 414,-0.00016436,-0.00000367,-0.00012305,0.00123269,0.00023743,0.000738
 18,0.00036235,-0.00636088,0.00838170,0.00010848,0.00068541,-0.00005318
 ,-0.00032168,0.00029419,0.00034092,0.00120875,-0.00203927,0.00157016,0
 .00037227,-0.00002010,-0.00011551,0.00015109,-0.00001874,0.00028857,0.
 00001751,-0.00000912,0.00000649,0.00006643,0.00000382,0.00004849,-0.00
 021483,0.00009838,-0.00016664,0.00004583,0.00003036,-0.00003754,-0.000
 17464,0.00020292,-0.00022091,-0.00065195,-0.00014668,0.00036866,0.0000
 2716,-0.00003279,-0.00016894,0.00002132,0.00001778,0.00003805,-0.00002
 017,0.00000709,0.00001560,0.00000279,0.00000672,0.00001758,0.05884061,
 0.04063611,-0.08738603,0.03838121,-0.00244459,-0.01052862,-0.09765083,
 -0.03151053,0.08541187\\-0.00000389,0.00001448,0.00000992,0.00001633,0
 .00002636,-0.00002029,0.00003399,-0.00002092,-0.00001003,0.00000373,0.
 00000102,-0.00000197,-0.00000157,-0.00000033,0.00000007,0.00000146,-0.
 00000128,0.00000053,0.00000006,-0.00000065,0.00000313,0.00002611,-0.00
 001625,0.00003763,-0.00000366,-0.00000419,0.00001016,0.00001581,-0.000
 01458,-0.00001158,-0.00000452,0.00001100,-0.00000978,0.00000333,-0.000
 00198,0.00000078,0.00000425,-0.00000104,0.00000334,-0.00000082,0.00000
 751,-0.00000094,-0.00003233,0.00002077,0.00000340,-0.00001785,-0.00001
 921,-0.00000336,-0.00000806,-0.00000723,0.00000068,-0.00000457,0.00000
 354,-0.00000998,-0.00000813,-0.00000815,0.00000204,-0.00001717,0.00000
 454,0.00000068,-0.00000396,0.00000741,-0.00000437,0.00000146,-0.000000
 82,-0.00000007\\\@
 The archive entry for this job was punched.


 When cryptography is outlawed, bayl bhgynjf jvyy unir cevinpl.
 Job cpu time:       0 days  0 hours 23 minutes 33.3 seconds.
 Elapsed time:       0 days  0 hours  1 minutes 30.4 seconds.
 File lengths (MBytes):  RWF=     84 Int=      0 D2E=      0 Chk=      5 Scr=      1
 Normal termination of Gaussian 16 at Tue Jun 21 10:23:11 2022.
