Job Start Time: Tue Jun 21 10:35:38 MDT 2022
SLURM Job ID: 40874
SLURM Job Name: DATS_13_endo_iii
 Entering Gaussian System, Link 0=/opt/apps/Gaussian/G16C/g16/g16
 Initial command:
 /opt/apps/Gaussian/G16C/g16/l1.exe "/tmp/Gau-3336036.inp" -scrdir="/tmp/"
 Entering Link 1 = /opt/apps/Gaussian/G16C/g16/l1.exe PID=   3336037.
  
 Copyright (c) 1988-2019, Gaussian, Inc.  All Rights Reserved.
  
 This is part of the Gaussian(R) 16 program.  It is based on
 the Gaussian(R) 09 system (copyright 2009, Gaussian, Inc.),
 the Gaussian(R) 03 system (copyright 2003, Gaussian, Inc.),
 the Gaussian(R) 98 system (copyright 1998, Gaussian, Inc.),
 the Gaussian(R) 94 system (copyright 1995, Gaussian, Inc.),
 the Gaussian 92(TM) system (copyright 1992, Gaussian, Inc.),
 the Gaussian 90(TM) system (copyright 1990, Gaussian, Inc.),
 the Gaussian 88(TM) system (copyright 1988, Gaussian, Inc.),
 the Gaussian 86(TM) system (copyright 1986, Carnegie Mellon
 University), and the Gaussian 82(TM) system (copyright 1983,
 Carnegie Mellon University). Gaussian is a federally registered
 trademark of Gaussian, Inc.
  
 This software contains proprietary and confidential information,
 including trade secrets, belonging to Gaussian, Inc.
  
 This software is provided under written license and may be
 used, copied, transmitted, or stored only in accord with that
 written license.
  
 The following legend is applicable only to US Government
 contracts under FAR:
  
                    RESTRICTED RIGHTS LEGEND
  
 Use, reproduction and disclosure by the US Government is
 subject to restrictions as set forth in subparagraphs (a)
 and (c) of the Commercial Computer Software - Restricted
 Rights clause in FAR 52.227-19.
  
 Gaussian, Inc.
 340 Quinnipiac St., Bldg. 40, Wallingford CT 06492
  
  
 ---------------------------------------------------------------
 Warning -- This program may not be used in any manner that
 competes with the business of Gaussian, Inc. or will provide
 assistance to any competitor of Gaussian, Inc.  The licensee
 of this program is prohibited from giving any competitor of
 Gaussian, Inc. access to this program.  By using this program,
 the user acknowledges that Gaussian, Inc. is engaged in the
 business of creating and licensing software in the field of
 computational chemistry and represents and warrants to the
 licensee that it is not a competitor of Gaussian, Inc. and that
 it will not use this program in any manner prohibited above.
 ---------------------------------------------------------------
  

 Cite this work as:
 Gaussian 16, Revision C.01,
 M. J. Frisch, G. W. Trucks, H. B. Schlegel, G. E. Scuseria, 
 M. A. Robb, J. R. Cheeseman, G. Scalmani, V. Barone, 
 G. A. Petersson, H. Nakatsuji, X. Li, M. Caricato, A. V. Marenich, 
 J. Bloino, B. G. Janesko, R. Gomperts, B. Mennucci, H. P. Hratchian, 
 J. V. Ortiz, A. F. Izmaylov, J. L. Sonnenberg, D. Williams-Young, 
 F. Ding, F. Lipparini, F. Egidi, J. Goings, B. Peng, A. Petrone, 
 T. Henderson, D. Ranasinghe, V. G. Zakrzewski, J. Gao, N. Rega, 
 G. Zheng, W. Liang, M. Hada, M. Ehara, K. Toyota, R. Fukuda, 
 J. Hasegawa, M. Ishida, T. Nakajima, Y. Honda, O. Kitao, H. Nakai, 
 T. Vreven, K. Throssell, J. A. Montgomery, Jr., J. E. Peralta, 
 F. Ogliaro, M. J. Bearpark, J. J. Heyd, E. N. Brothers, K. N. Kudin, 
 V. N. Staroverov, T. A. Keith, R. Kobayashi, J. Normand, 
 K. Raghavachari, A. P. Rendell, J. C. Burant, S. S. Iyengar, 
 J. Tomasi, M. Cossi, J. M. Millam, M. Klene, C. Adamo, R. Cammi, 
 J. W. Ochterski, R. L. Martin, K. Morokuma, O. Farkas, 
 J. B. Foresman, and D. J. Fox, Gaussian, Inc., Wallingford CT, 2019.
 
 ******************************************
 Gaussian 16:  AS64L-G16RevC.01  3-Jul-2019
                21-Jun-2022 
 ******************************************
 %nprocshared=16
 Will use up to   16 processors via shared memory.
 -------------------------------------------------
 # opt=(calcfc,ts,noeigentest) freq 6-31g(d) m062x
 -------------------------------------------------
 1/5=1,10=4,11=1,18=20,26=3,38=1/1,3;
 2/9=110,12=2,17=6,18=5,40=1/2;
 3/5=1,6=6,7=1,11=2,25=1,30=1,71=2,74=-55,140=1/1,2,3;
 4//1;
 5/5=2,38=5/2;
 8/6=4,10=90,11=11/1;
 11/6=1,8=1,9=11,15=111,16=1/1,2,10;
 10/6=1,13=1/2;
 6/7=2,8=2,9=2,10=2,28=1/1;
 7/10=1,25=1/1,2,3,16;
 1/5=1,10=4,11=1,18=20,26=3/3(2);
 2/9=110/2;
 99//99;
 2/9=110/2;
 3/5=1,6=6,7=1,11=2,25=1,30=1,71=1,74=-55/1,2,3;
 4/5=5,16=3,69=1/1;
 5/5=2,38=5/2;
 7//1,2,3,16;
 1/5=1,11=1,18=20,26=3/3(-5);
 2/9=110/2;
 6/7=2,8=2,9=2,10=2,19=2,28=1/1;
 99/9=1/99;
 -------------------
 Title Card Required
 -------------------
 Symbolic Z-matrix:
 Charge =  0 Multiplicity = 1
 C                     0.84811   1.51012  -0.8465 
 C                    -0.93268   1.6779    0.32695 
 C                     0.58663  -0.32526   1.6674 
 C                     1.8204    0.75287  -0.21829 
 H                     0.33143   1.08999  -1.70631 
 H                     0.9346    2.59213  -0.8533 
 H                     2.55829   1.21222   0.43375 
 C                    -1.35393   0.36309   0.37927 
 C                    -0.58438  -0.63286   1.03862 
 H                    -1.53496   2.37557  -0.24616 
 H                     1.23906  -1.11328   2.02918 
 H                    -0.37851   2.09489   1.1568 
 H                     0.80725   0.67162   2.02616 
 C                     2.08908  -0.618    -0.65101 
 O                     3.07002  -1.27374  -0.36786 
 H                     1.28994  -1.04042  -1.30605 
 O                    -0.89063  -2.01189   0.81641 
 C                    -1.99055  -2.11633  -0.09143 
 H                    -2.06869  -3.12402  -0.44264 
 H                    -2.8948   -1.84254   0.41083 
 H                    -1.83116  -1.46057  -0.92178 
 H                    -2.1726    0.11917  -0.26508 
 
 Add virtual bond connecting atoms C2         and C1         Dist= 4.04D+00.

 GradGradGradGradGradGradGradGradGradGradGradGradGradGradGradGradGradGrad
 Berny optimization.
 Initialization pass.
                           ----------------------------
                           !    Initial Parameters    !
                           ! (Angstroms and Degrees)  !
 --------------------------                            --------------------------
 ! Name  Definition              Value          Derivative Info.                !
 --------------------------------------------------------------------------------
 ! R1    R(1,2)                  2.1392         calculate D2E/DX2 analytically  !
 ! R2    R(1,4)                  1.3833         calculate D2E/DX2 analytically  !
 ! R3    R(1,5)                  1.0875         calculate D2E/DX2 analytically  !
 ! R4    R(1,6)                  1.0855         calculate D2E/DX2 analytically  !
 ! R5    R(2,8)                  1.3816         calculate D2E/DX2 analytically  !
 ! R6    R(2,10)                 1.0853         calculate D2E/DX2 analytically  !
 ! R7    R(2,12)                 1.0815         calculate D2E/DX2 analytically  !
 ! R8    R(3,9)                  1.3643         calculate D2E/DX2 analytically  !
 ! R9    R(3,11)                 1.0851         calculate D2E/DX2 analytically  !
 ! R10   R(3,13)                 1.0822         calculate D2E/DX2 analytically  !
 ! R11   R(4,7)                  1.0866         calculate D2E/DX2 analytically  !
 ! R12   R(4,14)                 1.4624         calculate D2E/DX2 analytically  !
 ! R13   R(8,9)                  1.4209         calculate D2E/DX2 analytically  !
 ! R14   R(8,22)                 1.07           calculate D2E/DX2 analytically  !
 ! R15   R(9,17)                 1.43           calculate D2E/DX2 analytically  !
 ! R16   R(14,15)                1.2134         calculate D2E/DX2 analytically  !
 ! R17   R(14,16)                1.1163         calculate D2E/DX2 analytically  !
 ! R18   R(17,18)                1.43           calculate D2E/DX2 analytically  !
 ! R19   R(18,19)                1.07           calculate D2E/DX2 analytically  !
 ! R20   R(18,20)                1.07           calculate D2E/DX2 analytically  !
 ! R21   R(18,21)                1.07           calculate D2E/DX2 analytically  !
 ! A1    A(2,1,4)              112.2677         calculate D2E/DX2 analytically  !
 ! A2    A(2,1,5)               93.9265         calculate D2E/DX2 analytically  !
 ! A3    A(2,1,6)               89.5178         calculate D2E/DX2 analytically  !
 ! A4    A(4,1,5)              118.7841         calculate D2E/DX2 analytically  !
 ! A5    A(4,1,6)              119.5072         calculate D2E/DX2 analytically  !
 ! A6    A(5,1,6)              114.7067         calculate D2E/DX2 analytically  !
 ! A7    A(1,2,8)              101.5336         calculate D2E/DX2 analytically  !
 ! A8    A(1,2,10)             102.8679         calculate D2E/DX2 analytically  !
 ! A9    A(1,2,12)              91.4087         calculate D2E/DX2 analytically  !
 ! A10   A(8,2,10)             117.551          calculate D2E/DX2 analytically  !
 ! A11   A(8,2,12)             119.6097         calculate D2E/DX2 analytically  !
 ! A12   A(10,2,12)            116.2111         calculate D2E/DX2 analytically  !
 ! A13   A(9,3,11)             120.3972         calculate D2E/DX2 analytically  !
 ! A14   A(9,3,13)             122.3752         calculate D2E/DX2 analytically  !
 ! A15   A(11,3,13)            115.8395         calculate D2E/DX2 analytically  !
 ! A16   A(1,4,7)              121.2272         calculate D2E/DX2 analytically  !
 ! A17   A(1,4,14)             120.5257         calculate D2E/DX2 analytically  !
 ! A18   A(7,4,14)             116.6842         calculate D2E/DX2 analytically  !
 ! A19   A(2,8,9)              121.2976         calculate D2E/DX2 analytically  !
 ! A20   A(2,8,22)             115.3027         calculate D2E/DX2 analytically  !
 ! A21   A(9,8,22)             122.2799         calculate D2E/DX2 analytically  !
 ! A22   A(3,9,8)              121.3803         calculate D2E/DX2 analytically  !
 ! A23   A(3,9,17)             118.2209         calculate D2E/DX2 analytically  !
 ! A24   A(8,9,17)             119.2            calculate D2E/DX2 analytically  !
 ! A25   A(4,14,15)            125.8767         calculate D2E/DX2 analytically  !
 ! A26   A(4,14,16)            113.3788         calculate D2E/DX2 analytically  !
 ! A27   A(15,14,16)           120.7411         calculate D2E/DX2 analytically  !
 ! A28   A(9,17,18)            109.5            calculate D2E/DX2 analytically  !
 ! A29   A(17,18,19)           109.4712         calculate D2E/DX2 analytically  !
 ! A30   A(17,18,20)           109.4712         calculate D2E/DX2 analytically  !
 ! A31   A(17,18,21)           109.4712         calculate D2E/DX2 analytically  !
 ! A32   A(19,18,20)           109.4713         calculate D2E/DX2 analytically  !
 ! A33   A(19,18,21)           109.4712         calculate D2E/DX2 analytically  !
 ! A34   A(20,18,21)           109.4712         calculate D2E/DX2 analytically  !
 ! D1    D(4,1,2,8)            -63.8499         calculate D2E/DX2 analytically  !
 ! D2    D(4,1,2,10)           174.0873         calculate D2E/DX2 analytically  !
 ! D3    D(4,1,2,12)            56.7768         calculate D2E/DX2 analytically  !
 ! D4    D(5,1,2,8)             59.4927         calculate D2E/DX2 analytically  !
 ! D5    D(5,1,2,10)           -62.5701         calculate D2E/DX2 analytically  !
 ! D6    D(5,1,2,12)          -179.8807         calculate D2E/DX2 analytically  !
 ! D7    D(6,1,2,8)            174.2259         calculate D2E/DX2 analytically  !
 ! D8    D(6,1,2,10)            52.1631         calculate D2E/DX2 analytically  !
 ! D9    D(6,1,2,12)           -65.1474         calculate D2E/DX2 analytically  !
 ! D10   D(2,1,4,7)            -90.473          calculate D2E/DX2 analytically  !
 ! D11   D(2,1,4,14)           104.2549         calculate D2E/DX2 analytically  !
 ! D12   D(5,1,4,7)            161.5047         calculate D2E/DX2 analytically  !
 ! D13   D(5,1,4,14)            -3.7674         calculate D2E/DX2 analytically  !
 ! D14   D(6,1,4,7)             12.3116         calculate D2E/DX2 analytically  !
 ! D15   D(6,1,4,14)          -152.9605         calculate D2E/DX2 analytically  !
 ! D16   D(1,2,8,9)             64.9004         calculate D2E/DX2 analytically  !
 ! D17   D(1,2,8,22)          -103.2648         calculate D2E/DX2 analytically  !
 ! D18   D(10,2,8,9)           176.1742         calculate D2E/DX2 analytically  !
 ! D19   D(10,2,8,22)            8.009          calculate D2E/DX2 analytically  !
 ! D20   D(12,2,8,9)           -33.427          calculate D2E/DX2 analytically  !
 ! D21   D(12,2,8,22)          158.4078         calculate D2E/DX2 analytically  !
 ! D22   D(11,3,9,8)          -170.3199         calculate D2E/DX2 analytically  !
 ! D23   D(11,3,9,17)           -2.9337         calculate D2E/DX2 analytically  !
 ! D24   D(13,3,9,8)            23.6919         calculate D2E/DX2 analytically  !
 ! D25   D(13,3,9,17)         -168.9219         calculate D2E/DX2 analytically  !
 ! D26   D(1,4,14,15)          164.4309         calculate D2E/DX2 analytically  !
 ! D27   D(1,4,14,16)          -14.9054         calculate D2E/DX2 analytically  !
 ! D28   D(7,4,14,15)           -1.4871         calculate D2E/DX2 analytically  !
 ! D29   D(7,4,14,16)          179.1766         calculate D2E/DX2 analytically  !
 ! D30   D(2,8,9,3)              1.2803         calculate D2E/DX2 analytically  !
 ! D31   D(2,8,9,17)          -165.9853         calculate D2E/DX2 analytically  !
 ! D32   D(22,8,9,3)           168.6118         calculate D2E/DX2 analytically  !
 ! D33   D(22,8,9,17)            1.3463         calculate D2E/DX2 analytically  !
 ! D34   D(3,9,17,18)         -167.6679         calculate D2E/DX2 analytically  !
 ! D35   D(8,9,17,18)            0.0            calculate D2E/DX2 analytically  !
 ! D36   D(9,17,18,19)         166.337          calculate D2E/DX2 analytically  !
 ! D37   D(9,17,18,20)         -73.663          calculate D2E/DX2 analytically  !
 ! D38   D(9,17,18,21)          46.337          calculate D2E/DX2 analytically  !
 --------------------------------------------------------------------------------
 Trust Radius=3.00D-01 FncErr=1.00D-07 GrdErr=1.00D-06 EigMax=2.50D+02 EigMin=1.00D-04
 Number of steps in this run=    103 maximum allowed number of steps=    132.
 Search for a saddle point of order  1.
 GradGradGradGradGradGradGradGradGradGradGradGradGradGradGradGradGradGrad

                          Input orientation:                          
 ---------------------------------------------------------------------
 Center     Atomic      Atomic             Coordinates (Angstroms)
 Number     Number       Type             X           Y           Z
 ---------------------------------------------------------------------
      1          6           0        0.848114    1.510121   -0.846500
      2          6           0       -0.932682    1.677895    0.326947
      3          6           0        0.586630   -0.325261    1.667397
      4          6           0        1.820400    0.752866   -0.218291
      5          1           0        0.331426    1.089993   -1.706309
      6          1           0        0.934598    2.592133   -0.853301
      7          1           0        2.558291    1.212215    0.433752
      8          6           0       -1.353929    0.363085    0.379268
      9          6           0       -0.584381   -0.632860    1.038624
     10          1           0       -1.534960    2.375573   -0.246163
     11          1           0        1.239056   -1.113284    2.029183
     12          1           0       -0.378507    2.094885    1.156802
     13          1           0        0.807247    0.671623    2.026157
     14          6           0        2.089085   -0.618003   -0.651008
     15          8           0        3.070021   -1.273735   -0.367861
     16          1           0        1.289939   -1.040416   -1.306052
     17          8           0       -0.890628   -2.011893    0.816409
     18          6           0       -1.990545   -2.116329   -0.091432
     19          1           0       -2.068690   -3.124022   -0.442641
     20          1           0       -2.894796   -1.842538    0.410832
     21          1           0       -1.831165   -1.460570   -0.921780
     22          1           0       -2.172597    0.119173   -0.265084
 ---------------------------------------------------------------------
                    Distance matrix (angstroms):
                    1          2          3          4          5
     1  C    0.000000
     2  C    2.139243   0.000000
     3  C    3.123568   2.849166   0.000000
     4  C    1.383265   2.955067   2.498072   0.000000
     5  H    1.087541   2.465305   3.667419   2.131876   0.000000
     6  H    1.085484   2.390722   3.871200   2.137940   1.829717
     7  H    2.156965   3.523515   2.788039   1.086575   3.090910
     8  C    2.768970   1.381634   2.428758   3.253517   2.778210
     9  C    3.193447   2.442823   1.364272   3.046809   3.367727
    10  H    2.605466   1.085333   3.931585   3.727250   2.695949
    11  H    3.912115   3.924886   1.085140   2.978526   4.430815
    12  H    2.420696   1.081504   2.655052   2.920118   3.116283
    13  H    2.992809   2.631967   1.082201   2.463864   3.785861
    14  C    2.471262   3.919007   2.778142   1.462435   2.668384
    15  O    3.593859   5.021604   3.348001   2.385589   3.857273
    16  H    2.628999   3.872460   3.138071   2.163440   2.370147
    17  O    4.265334   3.722349   2.398166   4.008013   4.180816
    18  C    4.666825   3.961092   3.597671   4.771968   4.275497
    19  H    5.490549   4.994115   4.397277   5.495963   5.011520
    20  H    5.179825   4.031176   4.000177   5.418948   4.846703
    21  H    4.001150   3.495218   3.720013   4.327600   3.434771
    22  H    3.376015   2.077860   3.397843   4.043239   3.047909
                    6          7          8          9         10
     6  H    0.000000
     7  H    2.489389   0.000000
     8  C    3.424213   4.003680   0.000000
     9  C    4.035747   3.694125   1.420866   0.000000
    10  H    2.552299   4.309338   2.115194   3.406603   0.000000
    11  H    4.704415   3.113475   3.409612   2.130009   5.004447
    12  H    2.451941   3.150665   2.134277   2.738055   1.839696
    13  H    3.463503   2.427787   2.734615   2.147912   3.681415
    14  C    3.417417   2.178659   3.725365   3.162673   4.717955
    15  O    4.443042   2.661653   4.775847   3.967817   5.876913
    16  H    3.677861   3.116084   3.435136   3.029304   4.557675
    17  O    5.226513   4.736701   2.458915   1.430000   4.560053
    18  C    5.595223   5.661001   2.602754   2.335595   4.517597
    19  H    6.470147   6.401560   3.653263   3.256256   5.528925
    20  H    5.994047   6.250456   2.690732   2.682436   4.480319
    21  H    4.906988   5.314938   2.290457   2.466324   3.906429
    22  H    4.014497   4.905549   1.070000   2.188067   2.344841
                   11         12         13         14         15
    11  H    0.000000
    12  H    3.697284   0.000000
    13  H    1.836399   2.046330   0.000000
    14  C    2.855044   4.088637   3.236272   0.000000
    15  O    3.020596   5.056139   3.825688   1.213422   0.000000
    16  H    3.336419   4.321976   3.777259   1.116311   2.025668
    17  O    2.610340   4.152561   3.398166   3.602073   4.199299
    18  C    3.991670   4.678790   4.481573   4.381950   5.137675
    19  H    4.592838   5.714186   5.364037   4.859078   5.462189
    20  H    4.498845   4.731964   4.757668   5.240807   6.042263
    21  H    4.272592   4.367147   4.494195   4.018905   4.935925
    22  H    4.292084   3.023898   3.799271   4.342154   5.425477
                   16         17         18         19         20
    16  H    0.000000
    17  O    3.194288   0.000000
    18  C    3.659845   1.430000   0.000000
    19  H    4.045650   2.051796   1.070000   0.000000
    20  H    4.593811   2.051796   1.070000   1.747303   0.000000
    21  H    3.172614   2.051796   1.070000   1.747303   1.747303
    22  H    3.797027   2.711921   2.249615   3.249713   2.196986
                   21         22
    21  H    0.000000
    22  H    1.744538   0.000000
 Stoichiometry    C8H12O2
 Framework group  C1[X(C8H12O2)]
 Deg. of freedom    60
 Full point group                 C1      NOp   1
 Largest Abelian subgroup         C1      NOp   1
 Largest concise Abelian subgroup C1      NOp   1
                         Standard orientation:                         
 ---------------------------------------------------------------------
 Center     Atomic      Atomic             Coordinates (Angstroms)
 Number     Number       Type             X           Y           Z
 ---------------------------------------------------------------------
      1          6           0        1.340060    1.517115   -0.736194
      2          6           0       -0.487591    2.216874    0.127746
      3          6           0        0.044122   -0.211667    1.519585
      4          6           0        1.888246    0.466148   -0.023184
      5          1           0        0.891255    1.314409   -1.705848
      6          1           0        1.760563    2.512188   -0.629980
      7          1           0        2.594667    0.640649    0.783763
      8          6           0       -1.301127    1.108909   -0.011836
      9          6           0       -1.022236   -0.102907    0.675611
     10          1           0       -0.720613    3.089749   -0.473702
     11          1           0        0.335708   -1.179627    1.913996
     12          1           0        0.000809    2.405386    1.074096
     13          1           0        0.493271    0.647997    1.999586
     14          6           0        1.791377   -0.903522   -0.526510
     15          8           0        2.445011   -1.850546   -0.141413
     16          1           0        1.040092   -1.023137   -1.343464
     17          8           0       -1.696664   -1.300330    0.280361
     18          6           0       -2.580200   -1.013856   -0.806928
     19          1           0       -2.901598   -1.930200   -1.256280
     20          1           0       -3.431403   -0.477313   -0.442958
     21          1           0       -2.068705   -0.419701   -1.535113
     22          1           0       -2.016728    1.164047   -0.805419
 ---------------------------------------------------------------------
 Rotational constants (GHZ):           1.6194934           1.0656019           0.7867142
 Standard basis: 6-31G(d) (6D, 7F)
 There are   174 symmetry adapted cartesian basis functions of A   symmetry.
 There are   174 symmetry adapted basis functions of A   symmetry.
   174 basis functions,   328 primitive gaussians,   174 cartesian basis functions
    38 alpha electrons       38 beta electrons
       nuclear repulsion energy       530.3384923769 Hartrees.
 NAtoms=   22 NActive=   22 NUniq=   22 SFac= 1.00D+00 NAtFMM=   60 NAOKFM=F Big=F
 Integral buffers will be    131072 words long.
 Raffenetti 2 integral format.
 Two-electron integral symmetry is turned on.
 One-electron integrals computed using PRISM.
 NBasis=   174 RedAO= T EigKep=  1.96D-03  NBF=   174
 NBsUse=   174 1.00D-06 EigRej= -1.00D+00 NBFU=   174
 ExpMin= 1.61D-01 ExpMax= 5.48D+03 ExpMxC= 8.25D+02 IAcc=3 IRadAn=         5 AccDes= 0.00D+00
 Harris functional with IExCor= 1009 and IRadAn=       5 diagonalized for initial guess.
 HarFok:  IExCor= 1009 AccDes= 0.00D+00 IRadAn=         5 IDoV= 1 UseB2=F ITyADJ=14
 ICtDFT=  3500011 ScaDFX=  1.000000  1.000000  1.000000  1.000000
 FoFCou: FMM=F IPFlag=           0 FMFlag=      100000 FMFlg1=           0
         NFxFlg=           0 DoJE=T BraDBF=F KetDBF=T FulRan=T
         wScrn=  0.000000 ICntrl=       500 IOpCl=  0 I1Cent=   200000004 NGrid=           0
         NMat0=    1 NMatS0=      1 NMatT0=    0 NMatD0=    1 NMtDS0=    0 NMtDT0=    0
 Petite list used in FoFCou.
 Requested convergence on RMS density matrix=1.00D-08 within 128 cycles.
 Requested convergence on MAX density matrix=1.00D-06.
 Requested convergence on             energy=1.00D-06.
 No special actions if energy rises.
 Integral accuracy reduced to 1.0D-05 until final iterations.
 Initial convergence to 1.0D-05 achieved.  Increase integral accuracy.
 SCF Done:  E(RM062X) =  -462.160895739     A.U. after   16 cycles
            NFock= 16  Conv=0.75D-08     -V/T= 2.0084
 DoSCS=F DFT=T ScalE2(SS,OS)=  1.000000  1.000000
 Range of M.O.s used for correlation:     1   174
 NBasis=   174 NAE=    38 NBE=    38 NFC=     0 NFV=     0
 NROrb=    174 NOA=    38 NOB=    38 NVA=   136 NVB=   136
 Symmetrizing basis deriv contribution to polar:
 IMax=3 JMax=2 DiffMx= 0.00D+00
 G2DrvN: will do    23 centers at a time, making    1 passes.
 Calling FoFCou, ICntrl=  3107 FMM=F I1Cent=   0 AccDes= 0.00D+00.
 End of G2Drv F.D. properties file   721 does not exist.
 End of G2Drv F.D. properties file   722 does not exist.
 End of G2Drv F.D. properties file   788 does not exist.
          IDoAtm=1111111111111111111111
          Differentiating once with respect to nuclear coordinates.
 CalDSu exits because no D1Ps are significant.
          There are    69 degrees of freedom in the 1st order CPHF.  IDoFFX=6 NUNeed=     0.
     63 vectors produced by pass  0 Test12= 7.49D-15 1.45D-09 XBig12= 7.00D-02 9.45D-02.
 AX will form    63 AO Fock derivatives at one time.
     63 vectors produced by pass  1 Test12= 7.49D-15 1.45D-09 XBig12= 5.88D-03 1.45D-02.
     63 vectors produced by pass  2 Test12= 7.49D-15 1.45D-09 XBig12= 1.11D-04 2.20D-03.
     63 vectors produced by pass  3 Test12= 7.49D-15 1.45D-09 XBig12= 6.98D-07 1.28D-04.
     63 vectors produced by pass  4 Test12= 7.49D-15 1.45D-09 XBig12= 2.70D-09 7.37D-06.
     63 vectors produced by pass  5 Test12= 7.49D-15 1.45D-09 XBig12= 8.90D-12 3.97D-07.
     30 vectors produced by pass  6 Test12= 7.49D-15 1.45D-09 XBig12= 2.45D-14 1.64D-08.
 InvSVY:  IOpt=1 It=  1 EMax= 4.72D-16
 Solved reduced A of dimension   408 with    69 vectors.
 End of Minotr F.D. properties file   721 does not exist.
 End of Minotr F.D. properties file   722 does not exist.
 End of Minotr F.D. properties file   788 does not exist.

 **********************************************************************

            Population analysis using the SCF Density.

 **********************************************************************

 Orbital symmetries:
       Occupied  (A) (A) (A) (A) (A) (A) (A) (A) (A) (A) (A) (A)
                 (A) (A) (A) (A) (A) (A) (A) (A) (A) (A) (A) (A)
                 (A) (A) (A) (A) (A) (A) (A) (A) (A) (A) (A) (A)
                 (A) (A)
       Virtual   (A) (A) (A) (A) (A) (A) (A) (A) (A) (A) (A) (A)
                 (A) (A) (A) (A) (A) (A) (A) (A) (A) (A) (A) (A)
                 (A) (A) (A) (A) (A) (A) (A) (A) (A) (A) (A) (A)
                 (A) (A) (A) (A) (A) (A) (A) (A) (A) (A) (A) (A)
                 (A) (A) (A) (A) (A) (A) (A) (A) (A) (A) (A) (A)
                 (A) (A) (A) (A) (A) (A) (A) (A) (A) (A) (A) (A)
                 (A) (A) (A) (A) (A) (A) (A) (A) (A) (A) (A) (A)
                 (A) (A) (A) (A) (A) (A) (A) (A) (A) (A) (A) (A)
                 (A) (A) (A) (A) (A) (A) (A) (A) (A) (A) (A) (A)
                 (A) (A) (A) (A) (A) (A) (A) (A) (A) (A) (A) (A)
                 (A) (A) (A) (A) (A) (A) (A) (A) (A) (A) (A) (A)
                 (A) (A) (A) (A)
 The electronic state is 1-A.
 Alpha  occ. eigenvalues --  -19.66720 -19.61226 -10.61894 -10.61612 -10.59020
 Alpha  occ. eigenvalues --  -10.57572 -10.56995 -10.56311 -10.56019 -10.55774
 Alpha  occ. eigenvalues --   -1.16691  -1.14002  -0.92815  -0.87714  -0.84632
 Alpha  occ. eigenvalues --   -0.78363  -0.73566  -0.71511  -0.64065  -0.61194
 Alpha  occ. eigenvalues --   -0.60472  -0.56016  -0.54701  -0.53097  -0.52872
 Alpha  occ. eigenvalues --   -0.49999  -0.47774  -0.47606  -0.46572  -0.46348
 Alpha  occ. eigenvalues --   -0.45552  -0.43664  -0.41937  -0.40248  -0.38099
 Alpha  occ. eigenvalues --   -0.30712  -0.28656  -0.27614
 Alpha virt. eigenvalues --   -0.02529   0.03335   0.09516   0.12514   0.12975
 Alpha virt. eigenvalues --    0.13615   0.16118   0.16994   0.17683   0.19335
 Alpha virt. eigenvalues --    0.20426   0.20488   0.21475   0.22758   0.24570
 Alpha virt. eigenvalues --    0.26682   0.28065   0.30807   0.32626   0.33416
 Alpha virt. eigenvalues --    0.35478   0.39412   0.41530   0.44895   0.52653
 Alpha virt. eigenvalues --    0.54682   0.56660   0.58025   0.59343   0.60213
 Alpha virt. eigenvalues --    0.60595   0.61463   0.64049   0.66636   0.67102
 Alpha virt. eigenvalues --    0.68552   0.69982   0.71025   0.73605   0.76810
 Alpha virt. eigenvalues --    0.79489   0.80747   0.81781   0.86089   0.86708
 Alpha virt. eigenvalues --    0.88680   0.90095   0.92073   0.92528   0.93798
 Alpha virt. eigenvalues --    0.94689   0.95382   0.95437   0.98502   0.99882
 Alpha virt. eigenvalues --    1.01375   1.02701   1.03820   1.04302   1.06222
 Alpha virt. eigenvalues --    1.09405   1.12001   1.12524   1.16892   1.17894
 Alpha virt. eigenvalues --    1.18899   1.20632   1.23743   1.25395   1.28178
 Alpha virt. eigenvalues --    1.34507   1.39284   1.39928   1.43685   1.47772
 Alpha virt. eigenvalues --    1.50978   1.53589   1.57724   1.59747   1.63120
 Alpha virt. eigenvalues --    1.68433   1.69876   1.74122   1.76882   1.82853
 Alpha virt. eigenvalues --    1.84160   1.89755   1.90558   1.90797   1.92072
 Alpha virt. eigenvalues --    1.94844   1.97015   1.98582   2.01265   2.06205
 Alpha virt. eigenvalues --    2.07839   2.11589   2.12116   2.13477   2.16822
 Alpha virt. eigenvalues --    2.18498   2.21273   2.23086   2.24238   2.27395
 Alpha virt. eigenvalues --    2.29928   2.32030   2.38290   2.39932   2.42796
 Alpha virt. eigenvalues --    2.45561   2.48770   2.53202   2.55360   2.55919
 Alpha virt. eigenvalues --    2.60884   2.65707   2.68170   2.70271   2.77512
 Alpha virt. eigenvalues --    2.85640   2.89320   2.99583   3.05269   3.07006
 Alpha virt. eigenvalues --    3.15216   3.97724   4.08712   4.19829   4.22227
 Alpha virt. eigenvalues --    4.30356   4.33183   4.34358   4.42328   4.54281
 Alpha virt. eigenvalues --    4.62466
          Condensed to atoms (all electrons):
               1          2          3          4          5          6
     1  C    5.211205   0.080658  -0.018102   0.461863   0.385727   0.374993
     2  C    0.080658   5.162599  -0.024324  -0.020004  -0.013544  -0.012769
     3  C   -0.018102  -0.024324   5.245896   0.061876   0.000607   0.000937
     4  C    0.461863  -0.020004   0.061876   5.305976  -0.045694  -0.024606
     5  H    0.385727  -0.013544   0.000607  -0.045694   0.520496  -0.032066
     6  H    0.374993  -0.012769   0.000937  -0.024606  -0.032066   0.504542
     7  H   -0.040128   0.000070  -0.004063   0.360700   0.004181  -0.004062
     8  C   -0.030503   0.536786  -0.078271  -0.022691  -0.004481   0.000737
     9  C   -0.015459  -0.033979   0.585073  -0.007093   0.000079   0.000369
    10  H   -0.007269   0.373524   0.000526   0.001180  -0.000684  -0.000512
    11  H    0.000510   0.000191   0.356542  -0.005201  -0.000008  -0.000011
    12  H   -0.016749   0.382949   0.003709  -0.007858   0.001428  -0.003087
    13  H   -0.003750   0.003848   0.370162  -0.008135   0.000032   0.000025
    14  C   -0.014326   0.000013  -0.004016   0.340366  -0.004849   0.002066
    15  O    0.003623   0.000001  -0.005762  -0.071644   0.000067  -0.000064
    16  H    0.011829  -0.000335  -0.003183  -0.137483   0.008484  -0.000127
    17  O    0.000172   0.003663  -0.060876  -0.000145  -0.000053  -0.000001
    18  C    0.000094   0.000621   0.003737   0.000141  -0.000045   0.000001
    19  H   -0.000001  -0.000031  -0.000084   0.000001   0.000001   0.000000
    20  H    0.000029   0.000174  -0.000151  -0.000001  -0.000004  -0.000000
    21  H   -0.000435   0.000231   0.000340  -0.000163   0.000354   0.000000
    22  H    0.000381  -0.051006   0.004909   0.000072   0.000661  -0.000050
               7          8          9         10         11         12
     1  C   -0.040128  -0.030503  -0.015459  -0.007269   0.000510  -0.016749
     2  C    0.000070   0.536786  -0.033979   0.373524   0.000191   0.382949
     3  C   -0.004063  -0.078271   0.585073   0.000526   0.356542   0.003709
     4  C    0.360700  -0.022691  -0.007093   0.001180  -0.005201  -0.007858
     5  H    0.004181  -0.004481   0.000079  -0.000684  -0.000008   0.001428
     6  H   -0.004062   0.000737   0.000369  -0.000512  -0.000011  -0.003087
     7  H    0.523553   0.000242   0.000506  -0.000017   0.000314   0.000562
     8  C    0.000242   5.040640   0.472432  -0.027896   0.006133  -0.035494
     9  C    0.000506   0.472432   4.483194   0.003613  -0.018721  -0.009703
    10  H   -0.000017  -0.027896   0.003613   0.514305  -0.000005  -0.031433
    11  H    0.000314   0.006133  -0.018721  -0.000005   0.474203  -0.000002
    12  H    0.000562  -0.035494  -0.009703  -0.031433  -0.000002   0.515643
    13  H   -0.000740  -0.009320  -0.025045   0.000039  -0.027864   0.004385
    14  C   -0.025446  -0.000876  -0.003010  -0.000027   0.001389   0.000062
    15  O    0.001895   0.000055  -0.000379   0.000000   0.001940   0.000002
    16  H    0.005281   0.000365   0.003132   0.000001   0.000602   0.000018
    17  O   -0.000009  -0.057419   0.273834  -0.000043  -0.000725  -0.000014
    18  C    0.000000  -0.016354  -0.055915   0.000024   0.000065  -0.000010
    19  H   -0.000000   0.001135   0.004926  -0.000000  -0.000014   0.000001
    20  H    0.000000   0.001357  -0.006343  -0.000004   0.000019  -0.000011
    21  H    0.000002   0.000729  -0.014912   0.000046   0.000044  -0.000002
    22  H    0.000001   0.384379  -0.044125  -0.006502  -0.000111   0.004551
              13         14         15         16         17         18
     1  C   -0.003750  -0.014326   0.003623   0.011829   0.000172   0.000094
     2  C    0.003848   0.000013   0.000001  -0.000335   0.003663   0.000621
     3  C    0.370162  -0.004016  -0.005762  -0.003183  -0.060876   0.003737
     4  C   -0.008135   0.340366  -0.071644  -0.137483  -0.000145   0.000141
     5  H    0.000032  -0.004849   0.000067   0.008484  -0.000053  -0.000045
     6  H    0.000025   0.002066  -0.000064  -0.000127  -0.000001   0.000001
     7  H   -0.000740  -0.025446   0.001895   0.005281  -0.000009   0.000000
     8  C   -0.009320  -0.000876   0.000055   0.000365  -0.057419  -0.016354
     9  C   -0.025045  -0.003010  -0.000379   0.003132   0.273834  -0.055915
    10  H    0.000039  -0.000027   0.000000   0.000001  -0.000043   0.000024
    11  H   -0.027864   0.001389   0.001940   0.000602  -0.000725   0.000065
    12  H    0.004385   0.000062   0.000002   0.000018  -0.000014  -0.000010
    13  H    0.511547  -0.000389   0.000124   0.000084   0.002413  -0.000177
    14  C   -0.000389   4.522195   0.549353   0.369155   0.000607   0.000015
    15  O    0.000124   0.549353   8.026491  -0.054975  -0.000004  -0.000001
    16  H    0.000084   0.369155  -0.054975   0.695831   0.000320  -0.000036
    17  O    0.002413   0.000607  -0.000004   0.000320   8.253177   0.232100
    18  C   -0.000177   0.000015  -0.000001  -0.000036   0.232100   4.927813
    19  H    0.000003  -0.000001   0.000000  -0.000014  -0.028459   0.387280
    20  H    0.000010   0.000005  -0.000000   0.000017  -0.038963   0.386533
    21  H   -0.000025  -0.000009  -0.000001   0.000685  -0.036294   0.375563
    22  H    0.000034   0.000004   0.000000  -0.000070  -0.007996  -0.000667
              19         20         21         22
     1  C   -0.000001   0.000029  -0.000435   0.000381
     2  C   -0.000031   0.000174   0.000231  -0.051006
     3  C   -0.000084  -0.000151   0.000340   0.004909
     4  C    0.000001  -0.000001  -0.000163   0.000072
     5  H    0.000001  -0.000004   0.000354   0.000661
     6  H    0.000000  -0.000000   0.000000  -0.000050
     7  H   -0.000000   0.000000   0.000002   0.000001
     8  C    0.001135   0.001357   0.000729   0.384379
     9  C    0.004926  -0.006343  -0.014912  -0.044125
    10  H   -0.000000  -0.000004   0.000046  -0.006502
    11  H   -0.000014   0.000019   0.000044  -0.000111
    12  H    0.000001  -0.000011  -0.000002   0.004551
    13  H    0.000003   0.000010  -0.000025   0.000034
    14  C   -0.000001   0.000005  -0.000009   0.000004
    15  O    0.000000  -0.000000  -0.000001   0.000000
    16  H   -0.000014   0.000017   0.000685  -0.000070
    17  O   -0.028459  -0.038963  -0.036294  -0.007996
    18  C    0.387280   0.386533   0.375563  -0.000667
    19  H    0.503891  -0.032135  -0.026895   0.000205
    20  H   -0.032135   0.573184  -0.052794   0.001221
    21  H   -0.026895  -0.052794   0.597425  -0.001311
    22  H    0.000205   0.001221  -0.001311   0.543226
 Mulliken charges:
               1
     1  C   -0.384361
     2  C   -0.389336
     3  C   -0.435482
     4  C   -0.181457
     5  H    0.179312
     6  H    0.193685
     7  H    0.177158
     8  C   -0.161683
     9  C    0.407525
    10  H    0.181134
    11  H    0.210708
    12  H    0.191053
    13  H    0.182738
    14  C    0.267717
    15  O   -0.450720
    16  H    0.100418
    17  O   -0.535286
    18  C   -0.240782
    19  H    0.190191
    20  H    0.167856
    21  H    0.157421
    22  H    0.172192
 Sum of Mulliken charges =  -0.00000
 Mulliken charges with hydrogens summed into heavy atoms:
               1
     1  C   -0.011364
     2  C   -0.017149
     3  C   -0.042036
     4  C   -0.004299
     8  C    0.010509
     9  C    0.407525
    14  C    0.368135
    15  O   -0.450720
    17  O   -0.535286
    18  C    0.274686
 APT charges:
               1
     1  C   -0.961991
     2  C   -0.888014
     3  C   -0.809314
     4  C   -0.534511
     5  H    0.333592
     6  H    0.647137
     7  H    0.543386
     8  C   -0.488053
     9  C    0.021632
    10  H    0.628721
    11  H    0.484015
    12  H    0.410901
    13  H    0.448040
    14  C   -0.568688
    15  O    0.202536
    16  H    0.199298
    17  O   -0.343859
    18  C   -1.164983
    19  H    0.669952
    20  H    0.495878
    21  H    0.179885
    22  H    0.494438
 Sum of APT charges =  -0.00000
 APT charges with hydrogens summed into heavy atoms:
               1
     1  C    0.018738
     2  C    0.151608
     3  C    0.122742
     4  C    0.008874
     8  C    0.006386
     9  C    0.021632
    14  C   -0.369390
    15  O    0.202536
    17  O   -0.343859
    18  C    0.180733
 Electronic spatial extent (au):  <R**2>=           1578.1877
 Charge=             -0.0000 electrons
 Dipole moment (field-independent basis, Debye):
    X=             -2.6039    Y=              4.3471    Z=             -1.1256  Tot=              5.1908
 Quadrupole moment (field-independent basis, Debye-Ang):
   XX=            -64.2658   YY=            -63.2555   ZZ=            -57.1714
   XY=              7.5354   XZ=              5.5271   YZ=              0.7006
 Traceless Quadrupole moment (field-independent basis, Debye-Ang):
   XX=             -2.7016   YY=             -1.6913   ZZ=              4.3929
   XY=              7.5354   XZ=              5.5271   YZ=              0.7006
 Octapole moment (field-independent basis, Debye-Ang**2):
  XXX=            -32.3992  YYY=             13.0671  ZZZ=             -0.3434  XYY=            -11.2028
  XXY=             12.8709  XXZ=             -7.8100  XZZ=              2.2453  YZZ=             -4.6292
  YYZ=             -3.0185  XYZ=             -1.4082
 Hexadecapole moment (field-independent basis, Debye-Ang**3):
 XXXX=          -1092.3186 YYYY=           -676.3022 ZZZZ=           -273.5454 XXXY=             58.3561
 XXXZ=             32.2178 YYYX=             34.4784 YYYZ=             -6.0028 ZZZX=             10.4055
 ZZZY=              0.0761 XXYY=           -326.8554 XXZZ=           -221.7613 YYZZ=           -151.7526
 XXYZ=              9.8400 YYXZ=             15.6165 ZZXY=             -0.0969
 N-N= 5.303384923769D+02 E-N=-2.136566250882D+03  KE= 4.583309499497D+02
  Exact polarizability:       0.000       0.000       0.000       0.000       0.000       0.000
 Approx polarizability:     144.474     -11.363     139.818       9.637     -17.320     100.588
 Calling FoFJK, ICntrl=    100127 FMM=F ISym2X=0 I1Cent= 0 IOpClX= 0 NMat=1 NMatS=1 NMatT=0.
 ***** Axes restored to original set *****
 -------------------------------------------------------------------
 Center     Atomic                   Forces (Hartrees/Bohr)
 Number     Number              X              Y              Z
 -------------------------------------------------------------------
      1        6           0.005734351    0.000947876   -0.003269788
      2        6          -0.003442203   -0.008433065    0.004839468
      3        6           0.005780819   -0.004443045    0.002230711
      4        6          -0.005806661    0.004935363    0.001081288
      5        1           0.000991075    0.000062289    0.000592290
      6        1           0.000087215    0.000201969    0.000216587
      7        1          -0.000472041   -0.000171612    0.000829159
      8        6           0.007886370    0.019073081    0.010662345
      9        6          -0.009811682   -0.028420634   -0.010839397
     10        1           0.001403279    0.002185692    0.000603963
     11        1          -0.001178561   -0.001342259   -0.001115408
     12        1           0.003517667    0.003792192   -0.001319608
     13        1          -0.003965076   -0.001024101    0.000021541
     14        6           0.000707983   -0.007981824   -0.001270608
     15        8          -0.002038944    0.003676847   -0.000816380
     16        1           0.000594977    0.000114246    0.000657107
     17        8          -0.000856970    0.039686980   -0.003762701
     18        6           0.018833099   -0.010817430    0.013079074
     19        1           0.003089784   -0.015790422   -0.000237279
     20        1          -0.017284144    0.004750900    0.006201465
     21        1           0.000518822   -0.000733138   -0.017012868
     22        1          -0.004289159   -0.000269905   -0.001370961
 -------------------------------------------------------------------
 Cartesian Forces:  Max     0.039686980 RMS     0.008821088
 FormGI is forming the generalized inverse of G from B-inverse, IUseBI=4.

 GradGradGradGradGradGradGradGradGradGradGradGradGradGradGradGradGradGrad
 Berny optimization.
 Internal  Forces:  Max     0.089468488 RMS     0.012239720
 Search for a saddle point.
 Step number   1 out of a maximum of  103
 All quantities printed in internal units (Hartrees-Bohrs-Radians)
 Swapping is turned off.
 Second derivative matrix not updated -- analytic derivatives used.
 ITU=  0
     Eigenvalues ---   -0.06316  -0.01265   0.00364   0.00912   0.01099
     Eigenvalues ---    0.01403   0.02136   0.02210   0.02614   0.02805
     Eigenvalues ---    0.03199   0.03434   0.03549   0.03919   0.04048
     Eigenvalues ---    0.05182   0.05590   0.06756   0.06897   0.07717
     Eigenvalues ---    0.08336   0.09375   0.09507   0.10079   0.10605
     Eigenvalues ---    0.10940   0.12252   0.13548   0.13992   0.14547
     Eigenvalues ---    0.16022   0.16527   0.17937   0.18705   0.19446
     Eigenvalues ---    0.22258   0.23717   0.26302   0.29692   0.30507
     Eigenvalues ---    0.34032   0.34792   0.36528   0.36923   0.37033
     Eigenvalues ---    0.37082   0.37283   0.37527   0.37897   0.38449
     Eigenvalues ---    0.39535   0.39923   0.40334   0.41441   0.50856
     Eigenvalues ---    0.55909   0.62196   0.64815   0.89558   1.27951
 Eigenvectors required to have negative eigenvalues:
                          R1        D24       D15       D25       D20
   1                    0.65646  -0.28330  -0.24804  -0.21362   0.20257
                          R13       R2        D12       A3        D16
   1                    0.15866  -0.15842   0.15193  -0.14947   0.13157
 RFO step:  Lambda0=3.690178767D-06 Lambda=-2.35007069D-02.
 Linear search not attempted -- option 19 set.
 Iteration  1 RMS(Cart)=  0.11441943 RMS(Int)=  0.04324215
 Iteration  2 RMS(Cart)=  0.10295133 RMS(Int)=  0.01473255
 Iteration  3 RMS(Cart)=  0.04864443 RMS(Int)=  0.00146285
 Iteration  4 RMS(Cart)=  0.00199759 RMS(Int)=  0.00027383
 Iteration  5 RMS(Cart)=  0.00000316 RMS(Int)=  0.00027382
 Iteration  6 RMS(Cart)=  0.00000000 RMS(Int)=  0.00027382
 Variable       Old X    -DE/DX   Delta X   Delta X   Delta X     New X
                                 (Linear)    (Quad)   (Total)
    R1        4.04258   0.00078   0.00000  -0.00005  -0.00005   4.04253
    R2        2.61399  -0.00502   0.00000  -0.00093  -0.00093   2.61307
    R3        2.05515  -0.00096   0.00000  -0.00117  -0.00117   2.05398
    R4        2.05127   0.00021   0.00000  -0.00012  -0.00012   2.05115
    R5        2.61091  -0.00033   0.00000  -0.00320  -0.00320   2.60771
    R6        2.05098   0.00031   0.00000   0.00153   0.00153   2.05251
    R7        2.04375   0.00225   0.00000   0.00433   0.00433   2.04807
    R8        2.57810  -0.00047   0.00000   0.01354   0.01354   2.59164
    R9        2.05062  -0.00011   0.00000  -0.00128  -0.00128   2.04933
   R10        2.04506  -0.00174   0.00000  -0.00338  -0.00338   2.04168
   R11        2.05333   0.00011   0.00000  -0.00029  -0.00029   2.05304
   R12        2.76360   0.00422   0.00000   0.01277   0.01277   2.77637
   R13        2.68505   0.00476   0.00000  -0.01012  -0.01012   2.67492
   R14        2.02201   0.00417   0.00000   0.02698   0.02698   2.04899
   R15        2.70231  -0.01714   0.00000  -0.14194  -0.14194   2.56037
   R16        2.29303  -0.00382   0.00000  -0.00553  -0.00553   2.28751
   R17        2.10952  -0.00086   0.00000  -0.00001  -0.00001   2.10951
   R18        2.70231  -0.00361   0.00000  -0.02887  -0.02887   2.67344
   R19        2.02201   0.01472   0.00000   0.03390   0.03390   2.05591
   R20        2.02201   0.01873   0.00000   0.04391   0.04391   2.06592
   R21        2.02201   0.01283   0.00000   0.05541   0.05541   2.07741
    A1        1.95944  -0.00855   0.00000  -0.04506  -0.04509   1.91435
    A2        1.63933   0.00370   0.00000   0.02305   0.02288   1.66221
    A3        1.56238   0.00297   0.00000   0.02002   0.02004   1.58242
    A4        2.07317   0.00017   0.00000  -0.00408  -0.00393   2.06924
    A5        2.08579   0.00129   0.00000   0.00503   0.00522   2.09101
    A6        2.00201  -0.00021   0.00000   0.00211   0.00175   2.00376
    A7        1.77210  -0.00104   0.00000   0.01528   0.01512   1.78722
    A8        1.79538  -0.00019   0.00000   0.00814   0.00781   1.80319
    A9        1.59538  -0.00201   0.00000  -0.04712  -0.04707   1.54831
   A10        2.05165   0.00155   0.00000   0.01862   0.01834   2.06999
   A11        2.08758   0.00179   0.00000   0.01327   0.01330   2.10088
   A12        2.02827  -0.00176   0.00000  -0.02139  -0.02157   2.00670
   A13        2.10133  -0.00083   0.00000  -0.01347  -0.01398   2.08734
   A14        2.13585  -0.00313   0.00000  -0.02435  -0.02487   2.11098
   A15        2.02178   0.00348   0.00000   0.02647   0.02593   2.04771
   A16        2.11581  -0.00018   0.00000   0.00102   0.00091   2.11672
   A17        2.10357   0.00025   0.00000  -0.00171  -0.00181   2.10176
   A18        2.03652  -0.00001   0.00000  -0.00520  -0.00530   2.03123
   A19        2.11704  -0.00665   0.00000  -0.00494  -0.00495   2.11210
   A20        2.01241   0.00263   0.00000   0.05952   0.05947   2.07188
   A21        2.13419   0.00402   0.00000  -0.05636  -0.05632   2.07787
   A22        2.11849  -0.01513   0.00000   0.01047   0.00962   2.12811
   A23        2.06334  -0.03266   0.00000  -0.02162  -0.02256   2.04078
   A24        2.08043   0.04868   0.00000   0.02574   0.02496   2.10539
   A25        2.19696  -0.00264   0.00000  -0.00380  -0.00381   2.19315
   A26        1.97883   0.00149   0.00000   0.00092   0.00091   1.97975
   A27        2.10733   0.00115   0.00000   0.00279   0.00278   2.11011
   A28        1.91114   0.08947   0.00000   0.11159   0.11159   2.02273
   A29        1.91063  -0.01480   0.00000  -0.04969  -0.04953   1.86110
   A30        1.91063   0.00643   0.00000   0.03128   0.03112   1.94176
   A31        1.91063   0.01155   0.00000   0.02340   0.02325   1.93389
   A32        1.91063   0.00021   0.00000  -0.01262  -0.01247   1.89817
   A33        1.91063  -0.00416   0.00000   0.01809   0.01826   1.92889
   A34        1.91063   0.00077   0.00000  -0.01046  -0.01088   1.89975
    D1       -1.11439   0.00096   0.00000   0.02214   0.02221  -1.09218
    D2        3.03840  -0.00026   0.00000  -0.00745  -0.00743   3.03097
    D3        0.99094   0.00214   0.00000   0.02624   0.02620   1.01714
    D4        1.03834   0.00012   0.00000   0.01400   0.01386   1.05221
    D5       -1.09205  -0.00109   0.00000  -0.01559  -0.01578  -1.10783
    D6       -3.13951   0.00131   0.00000   0.01811   0.01785  -3.12166
    D7        3.04082   0.00021   0.00000   0.01806   0.01830   3.05911
    D8        0.91042  -0.00100   0.00000  -0.01153  -0.01134   0.89907
    D9       -1.13704   0.00139   0.00000   0.02217   0.02229  -1.11475
   D10       -1.57905   0.00018   0.00000  -0.00815  -0.00806  -1.58712
   D11        1.81959  -0.00009   0.00000   0.01984   0.01995   1.83954
   D12        2.81879   0.00136   0.00000  -0.00344  -0.00356   2.81523
   D13       -0.06575   0.00110   0.00000   0.02455   0.02446  -0.04130
   D14        0.21488  -0.00110   0.00000  -0.01024  -0.01025   0.20463
   D15       -2.66966  -0.00136   0.00000   0.01775   0.01777  -2.65190
   D16        1.13273   0.00001   0.00000  -0.03518  -0.03545   1.09728
   D17       -1.80231  -0.00054   0.00000  -0.01942  -0.01944  -1.82175
   D18        3.07482  -0.00023   0.00000  -0.00775  -0.00777   3.06705
   D19        0.13978  -0.00078   0.00000   0.00801   0.00823   0.14802
   D20       -0.58341   0.00251   0.00000   0.00763   0.00755  -0.57587
   D21        2.76474   0.00196   0.00000   0.02339   0.02355   2.78829
   D22       -2.97264  -0.00533   0.00000  -0.01771  -0.01719  -2.98983
   D23       -0.05120   0.00542   0.00000   0.06114   0.06075   0.00955
   D24        0.41350  -0.00340   0.00000   0.03504   0.03543   0.44893
   D25       -2.94824   0.00735   0.00000   0.11389   0.11337  -2.83487
   D26        2.86986  -0.00081   0.00000  -0.03431  -0.03428   2.83558
   D27       -0.26015  -0.00008   0.00000  -0.02556  -0.02553  -0.28568
   D28       -0.02595  -0.00104   0.00000  -0.00842  -0.00845  -0.03440
   D29        3.12722  -0.00031   0.00000   0.00033   0.00030   3.12752
   D30        0.02234   0.00151   0.00000   0.05851   0.05889   0.08123
   D31       -2.89699   0.00077   0.00000  -0.01524  -0.01598  -2.91297
   D32        2.94283   0.00180   0.00000   0.05594   0.05668   2.99951
   D33        0.02350   0.00106   0.00000  -0.01782  -0.01819   0.00531
   D34       -2.92636   0.00612   0.00000   0.44935   0.44950  -2.47686
   D35       -0.00000   0.00865   0.00000   0.52463   0.52448   0.52448
   D36        2.90313   0.00622   0.00000  -0.14927  -0.14928   2.75385
   D37       -1.28566   0.00136   0.00000  -0.17599  -0.17645  -1.46211
   D38        0.80873   0.01331   0.00000  -0.15532  -0.15484   0.65389
         Item               Value     Threshold  Converged?
 Maximum Force            0.089468     0.000450     NO 
 RMS     Force            0.012240     0.000300     NO 
 Maximum Displacement     0.974571     0.001800     NO 
 RMS     Displacement     0.245522     0.001200     NO 
 Predicted change in Energy=-1.701011D-02
 GradGradGradGradGradGradGradGradGradGradGradGradGradGradGradGradGradGrad

                          Input orientation:                          
 ---------------------------------------------------------------------
 Center     Atomic      Atomic             Coordinates (Angstroms)
 Number     Number       Type             X           Y           Z
 ---------------------------------------------------------------------
      1          6           0        0.788151    1.492901   -0.876351
      2          6           0       -0.904318    1.786480    0.398641
      3          6           0        0.572537   -0.284310    1.692249
      4          6           0        1.703155    0.664823   -0.252554
      5          1           0        0.215692    1.098579   -1.711933
      6          1           0        0.964479    2.563375   -0.909938
      7          1           0        2.498530    1.068845    0.367494
      8          6           0       -1.410365    0.508273    0.518396
      9          6           0       -0.650839   -0.523416    1.120396
     10          1           0       -1.491262    2.530472   -0.132093
     11          1           0        1.184951   -1.118871    2.015534
     12          1           0       -0.235930    2.184166    1.153432
     13          1           0        0.825355    0.693910    2.074945
     14          6           0        1.855132   -0.732271   -0.680991
     15          8           0        2.798238   -1.448579   -0.430475
     16          1           0        1.004573   -1.100867   -1.302946
     17          8           0       -1.030664   -1.818668    1.003000
     18          6           0       -1.725761   -2.153621   -0.182786
     19          1           0       -1.607246   -3.226245   -0.320809
     20          1           0       -2.791464   -1.926089   -0.095175
     21          1           0       -1.315444   -1.606712   -1.043620
     22          1           0       -2.305572    0.248476   -0.035467
 ---------------------------------------------------------------------
                    Distance matrix (angstroms):
                    1          2          3          4          5
     1  C    0.000000
     2  C    2.139216   0.000000
     3  C    3.130921   2.853541   0.000000
     4  C    1.382775   2.912230   2.441599   0.000000
     5  H    1.086921   2.486394   3.691635   2.128491   0.000000
     6  H    1.085419   2.410051   3.877409   2.140630   1.830165
     7  H    2.156935   3.477836   2.701009   1.086423   3.088081
     8  C    2.783574   1.379942   2.436805   3.211367   2.822568
     9  C    3.181702   2.433270   1.371436   2.972910   3.376956
    10  H    2.612699   1.086143   3.938336   3.701277   2.731283
    11  H    3.916860   3.926888   1.084461   2.931608   4.444159
    12  H    2.376259   1.083792   2.652794   2.836415   3.097221
    13  H    3.057763   2.644895   1.080410   2.487696   3.856927
    14  C    2.475480   3.888994   2.734591   1.469193   2.665072
    15  O    3.590481   4.986177   3.288650   2.386908   3.847036
    16  H    2.637509   3.856946   3.134423   2.170023   2.372164
    17  O    4.219779   3.657637   2.323698   3.901014   4.175475
    18  C    4.483069   4.066599   3.506031   4.439140   4.084646
    19  H    5.321361   5.112644   4.178377   5.109190   4.895143
    20  H    5.011324   4.193847   4.148112   5.190298   4.561306
    21  H    3.749759   3.709838   3.577457   3.859741   3.179563
    22  H    3.439012   2.125423   3.398879   4.036133   3.144835
                    6          7          8          9         10
     6  H    0.000000
     7  H    2.493745   0.000000
     8  C    3.450140   3.951768   0.000000
     9  C    4.032343   3.608418   1.415509   0.000000
    10  H    2.576196   4.278362   2.125787   3.406065   0.000000
    11  H    4.708071   3.037701   3.409499   2.127431   5.009203
    12  H    2.417081   3.055963   2.142705   2.739387   1.829853
    13  H    3.524739   2.419810   2.730521   2.138269   3.689267
    14  C    3.421544   2.181124   3.693366   3.093301   4.705861
    15  O    4.437153   2.657819   4.737295   3.893232   5.858471
    16  H    3.685476   3.119283   3.426155   2.991057   4.559244
    17  O    5.180948   4.603998   2.407004   1.354889   4.518363
    18  C    5.478704   5.341510   2.770706   2.347617   4.690234
    19  H    6.362432   5.981551   3.832708   3.208904   5.760977
    20  H    5.909842   6.096534   2.865314   2.833263   4.642502
    21  H    4.754529   4.867879   2.630982   2.509621   4.240058
    22  H    4.100816   4.890274   1.084276   2.161013   2.424860
                   11         12         13         14         15
    11  H    0.000000
    12  H    3.697590   0.000000
    13  H    1.849057   2.048505   0.000000
    14  C    2.805326   4.030292   3.269498   0.000000
    15  O    2.948620   4.991169   3.841829   1.210497   0.000000
    16  H    3.323427   4.285333   3.829293   1.116307   2.024683
    17  O    2.534539   4.083737   3.302562   3.513389   4.105155
    18  C    3.791511   4.777182   4.440041   3.884745   4.585302
    19  H    4.206648   5.772905   5.198537   4.282254   4.751885
    20  H    4.573682   4.998397   4.965399   4.833140   5.620072
    21  H    3.981003   4.512554   4.427338   3.308882   4.162130
    22  H    4.273171   3.073076   3.801967   4.323197   5.393042
                   16         17         18         19         20
    16  H    0.000000
    17  O    3.158292   0.000000
    18  C    3.133332   1.414723   0.000000
    19  H    3.507623   2.016480   1.087942   0.000000
    20  H    4.068119   2.077967   1.093238   1.773044   0.000000
    21  H    2.388641   2.077181   1.099320   1.797356   1.783307
    22  H    3.792663   2.641380   2.475471   3.555666   2.228988
                   21         22
    21  H    0.000000
    22  H    2.332049   0.000000
 Stoichiometry    C8H12O2
 Framework group  C1[X(C8H12O2)]
 Deg. of freedom    60
 Full point group                 C1      NOp   1
 Largest Abelian subgroup         C1      NOp   1
 Largest concise Abelian subgroup C1      NOp   1
                         Standard orientation:                         
 ---------------------------------------------------------------------
 Center     Atomic      Atomic             Coordinates (Angstroms)
 Number     Number       Type             X           Y           Z
 ---------------------------------------------------------------------
      1          6           0        1.355966    1.464626   -0.807743
      2          6           0       -0.434919    2.280701    0.030705
      3          6           0        0.005316   -0.096835    1.546030
      4          6           0        1.805651    0.421030   -0.019862
      5          1           0        0.916571    1.233752   -1.774711
      6          1           0        1.840853    2.433853   -0.747596
      7          1           0        2.506785    0.589272    0.792800
      8          6           0       -1.306511    1.212916   -0.035641
      9          6           0       -1.054812    0.020198    0.683900
     10          1           0       -0.628951    3.149695   -0.591313
     11          1           0        0.247270   -1.065658    1.968991
     12          1           0        0.113939    2.484183    0.942822
     13          1           0        0.431648    0.773367    2.023813
     14          6           0        1.641841   -0.970043   -0.463268
     15          8           0        2.241887   -1.925670   -0.025061
     16          1           0        0.900563   -1.088207   -1.289516
     17          8           0       -1.756543   -1.107799    0.417591
     18          6           0       -2.205887   -1.255567   -0.915712
     19          1           0       -2.376827   -2.318758   -1.070703
     20          1           0       -3.145468   -0.721005   -1.078814
     21          1           0       -1.455128   -0.878636   -1.624788
     22          1           0       -2.073877    1.213749   -0.801671
 ---------------------------------------------------------------------
 Rotational constants (GHZ):           1.5351866           1.1711014           0.8360586
 Standard basis: 6-31G(d) (6D, 7F)
 There are   174 symmetry adapted cartesian basis functions of A   symmetry.
 There are   174 symmetry adapted basis functions of A   symmetry.
   174 basis functions,   328 primitive gaussians,   174 cartesian basis functions
    38 alpha electrons       38 beta electrons
       nuclear repulsion energy       535.7007087493 Hartrees.
 NAtoms=   22 NActive=   22 NUniq=   22 SFac= 1.00D+00 NAtFMM=   60 NAOKFM=F Big=F
 Integral buffers will be    131072 words long.
 Raffenetti 2 integral format.
 Two-electron integral symmetry is turned on.
 One-electron integrals computed using PRISM.
 NBasis=   174 RedAO= T EigKep=  1.95D-03  NBF=   174
 NBsUse=   174 1.00D-06 EigRej= -1.00D+00 NBFU=   174
 Initial guess from the checkpoint file:  "/tmp/Gau-3336037.chk"
 B after Tr=     0.000000   -0.000000    0.000000
         Rot=    0.999353    0.031839    0.015897    0.005137 Ang=   4.12 deg.
 ExpMin= 1.61D-01 ExpMax= 5.48D+03 ExpMxC= 8.25D+02 IAcc=3 IRadAn=         5 AccDes= 0.00D+00
 Harris functional with IExCor= 1009 and IRadAn=       5 diagonalized for initial guess.
 HarFok:  IExCor= 1009 AccDes= 0.00D+00 IRadAn=         5 IDoV= 1 UseB2=F ITyADJ=14
 ICtDFT=  3500011 ScaDFX=  1.000000  1.000000  1.000000  1.000000
 FoFCou: FMM=F IPFlag=           0 FMFlag=      100000 FMFlg1=           0
         NFxFlg=           0 DoJE=T BraDBF=F KetDBF=T FulRan=T
         wScrn=  0.000000 ICntrl=       500 IOpCl=  0 I1Cent=   200000004 NGrid=           0
         NMat0=    1 NMatS0=      1 NMatT0=    0 NMatD0=    1 NMtDS0=    0 NMtDT0=    0
 Petite list used in FoFCou.
 Requested convergence on RMS density matrix=1.00D-08 within 128 cycles.
 Requested convergence on MAX density matrix=1.00D-06.
 Requested convergence on             energy=1.00D-06.
 No special actions if energy rises.
 Integral accuracy reduced to 1.0D-05 until final iterations.
 Initial convergence to 1.0D-05 achieved.  Increase integral accuracy.
 SCF Done:  E(RM062X) =  -462.173723909     A.U. after   16 cycles
            NFock= 16  Conv=0.86D-08     -V/T= 2.0083
 Calling FoFJK, ICntrl=      2127 FMM=F ISym2X=0 I1Cent= 0 IOpClX= 0 NMat=1 NMatS=1 NMatT=0.
 ***** Axes restored to original set *****
 -------------------------------------------------------------------
 Center     Atomic                   Forces (Hartrees/Bohr)
 Number     Number              X              Y              Z
 -------------------------------------------------------------------
      1        6           0.002273108    0.000225490   -0.001395350
      2        6          -0.002380524   -0.002276057    0.000529469
      3        6           0.001016146    0.001640588   -0.001121101
      4        6          -0.001372147    0.000355788    0.000820583
      5        1          -0.000003119    0.000069554    0.000148970
      6        1           0.000181053   -0.000001023    0.000343964
      7        1           0.000214836   -0.000037702   -0.000166136
      8        6           0.002263122    0.004130712    0.003235240
      9        6          -0.001240464    0.008917200    0.003636117
     10        1           0.000481338    0.000705045    0.000217428
     11        1          -0.000187715   -0.000270798   -0.000559354
     12        1           0.000776279    0.000806033   -0.000856501
     13        1          -0.000506104    0.000083227    0.001118967
     14        6           0.000490580   -0.000304557   -0.000582547
     15        8           0.000275009    0.000165046   -0.000327742
     16        1           0.000225165    0.000002462    0.000293793
     17        8          -0.000067667   -0.009060960   -0.004233130
     18        6          -0.000855959   -0.000421704    0.000859344
     19        1           0.000825499   -0.001546269   -0.000898528
     20        1          -0.002320689    0.000251160   -0.000266467
     21        1          -0.000505967   -0.003439881    0.000454567
     22        1           0.000418220    0.000006647   -0.001251587
 -------------------------------------------------------------------
 Cartesian Forces:  Max     0.009060960 RMS     0.002074251

 GradGradGradGradGradGradGradGradGradGradGradGradGradGradGradGradGradGrad
 Berny optimization.
 FormGI is forming the generalized inverse of G from B-inverse, IUseBI=4.
 Internal  Forces:  Max     0.016858325 RMS     0.002752799
 Search for a saddle point.
 Step number   2 out of a maximum of  103
 All quantities printed in internal units (Hartrees-Bohrs-Radians)
 Swapping is turned off.
 Update second derivatives using D2CorX and points    1    2
 ITU=  0  0
     Eigenvalues ---   -0.06313   0.00054   0.00375   0.00910   0.01101
     Eigenvalues ---    0.01391   0.02134   0.02210   0.02709   0.02816
     Eigenvalues ---    0.03207   0.03442   0.03548   0.03923   0.04045
     Eigenvalues ---    0.05185   0.05583   0.06767   0.06895   0.07721
     Eigenvalues ---    0.08340   0.09372   0.09508   0.10078   0.10604
     Eigenvalues ---    0.10940   0.12250   0.13566   0.13993   0.14544
     Eigenvalues ---    0.16053   0.16557   0.17907   0.18695   0.19438
     Eigenvalues ---    0.22257   0.23711   0.26769   0.29984   0.30533
     Eigenvalues ---    0.34000   0.34796   0.36528   0.36923   0.37033
     Eigenvalues ---    0.37083   0.37298   0.37528   0.37901   0.38448
     Eigenvalues ---    0.39545   0.39925   0.40344   0.41416   0.50859
     Eigenvalues ---    0.55917   0.62236   0.64801   0.89558   1.28406
 Eigenvectors required to have negative eigenvalues:
                          R1        D24       D15       D25       D20
   1                    0.65609  -0.28288  -0.24819  -0.21011   0.20427
                          R13       R2        D12       A3        D16
   1                    0.15851  -0.15824   0.15263  -0.14878   0.13193
 RFO step:  Lambda0=2.227861547D-05 Lambda=-2.08980779D-03.
 Linear search not attempted -- option 19 set.
 Iteration  1 RMS(Cart)=  0.11434665 RMS(Int)=  0.00812899
 Iteration  2 RMS(Cart)=  0.02266779 RMS(Int)=  0.00033627
 Iteration  3 RMS(Cart)=  0.00053212 RMS(Int)=  0.00010831
 Iteration  4 RMS(Cart)=  0.00000024 RMS(Int)=  0.00010831
 Variable       Old X    -DE/DX   Delta X   Delta X   Delta X     New X
                                 (Linear)    (Quad)   (Total)
    R1        4.04253   0.00225   0.00000   0.06803   0.06803   4.11057
    R2        2.61307  -0.00020   0.00000  -0.00408  -0.00408   2.60899
    R3        2.05398  -0.00014   0.00000  -0.00090  -0.00090   2.05308
    R4        2.05115   0.00002   0.00000  -0.00067  -0.00067   2.05047
    R5        2.60771   0.00025   0.00000  -0.00569  -0.00569   2.60202
    R6        2.05251   0.00012   0.00000  -0.00003  -0.00003   2.05248
    R7        2.04807   0.00018   0.00000   0.00045   0.00045   2.04852
    R8        2.59164   0.00030   0.00000   0.00282   0.00282   2.59446
    R9        2.04933  -0.00006   0.00000   0.00028   0.00028   2.04961
   R10        2.04168   0.00035   0.00000   0.00029   0.00029   2.04196
   R11        2.05304   0.00005   0.00000   0.00022   0.00022   2.05327
   R12        2.77637   0.00041   0.00000   0.00378   0.00378   2.78015
   R13        2.67492   0.00031   0.00000  -0.00092  -0.00092   2.67401
   R14        2.04899   0.00029   0.00000   0.00135   0.00135   2.05034
   R15        2.56037   0.01477   0.00000   0.01500   0.01500   2.57537
   R16        2.28751   0.00005   0.00000  -0.00078  -0.00078   2.28673
   R17        2.10951  -0.00034   0.00000  -0.00220  -0.00220   2.10732
   R18        2.67344   0.00250   0.00000  -0.00470  -0.00470   2.66873
   R19        2.05591   0.00173   0.00000   0.00317   0.00317   2.05908
   R20        2.06592   0.00229   0.00000   0.00491   0.00491   2.07083
   R21        2.07741  -0.00225   0.00000  -0.00337  -0.00337   2.07404
    A1        1.91435   0.00174   0.00000  -0.01150  -0.01150   1.90285
    A2        1.66221  -0.00031   0.00000  -0.01436  -0.01436   1.64785
    A3        1.58242  -0.00104   0.00000  -0.00508  -0.00506   1.57736
    A4        2.06924  -0.00005   0.00000   0.00485   0.00461   2.07385
    A5        2.09101  -0.00041   0.00000   0.00283   0.00268   2.09369
    A6        2.00376   0.00022   0.00000   0.00861   0.00845   2.01221
    A7        1.78722   0.00447   0.00000   0.00799   0.00801   1.79523
    A8        1.80319  -0.00172   0.00000  -0.01090  -0.01093   1.79226
    A9        1.54831  -0.00239   0.00000  -0.02672  -0.02673   1.52158
   A10        2.06999  -0.00056   0.00000   0.01084   0.01079   2.08078
   A11        2.10088   0.00046   0.00000   0.00838   0.00832   2.10920
   A12        2.00670  -0.00019   0.00000  -0.00601  -0.00638   2.00032
   A13        2.08734  -0.00061   0.00000  -0.00661  -0.00697   2.08037
   A14        2.11098   0.00001   0.00000  -0.00697  -0.00734   2.10364
   A15        2.04771   0.00039   0.00000   0.00108   0.00070   2.04840
   A16        2.11672  -0.00025   0.00000  -0.00205  -0.00231   2.11441
   A17        2.10176   0.00056   0.00000  -0.00179  -0.00204   2.09972
   A18        2.03123  -0.00048   0.00000  -0.00612  -0.00637   2.02486
   A19        2.11210   0.00071   0.00000   0.00466   0.00449   2.11658
   A20        2.07188  -0.00064   0.00000  -0.00398  -0.00417   2.06772
   A21        2.07787  -0.00011   0.00000  -0.00753  -0.00771   2.07016
   A22        2.12811  -0.00575   0.00000  -0.00573  -0.00579   2.12232
   A23        2.04078  -0.00265   0.00000  -0.00754  -0.00759   2.03319
   A24        2.10539   0.00843   0.00000   0.01077   0.01070   2.11609
   A25        2.19315  -0.00017   0.00000  -0.00494  -0.00494   2.18821
   A26        1.97975   0.00016   0.00000   0.00287   0.00287   1.98261
   A27        2.11011   0.00000   0.00000   0.00212   0.00212   2.11223
   A28        2.02273   0.01686   0.00000   0.01525   0.01525   2.03798
   A29        1.86110  -0.00080   0.00000  -0.00609  -0.00608   1.85501
   A30        1.94176   0.00101   0.00000   0.00430   0.00426   1.94602
   A31        1.93389   0.00219   0.00000   0.01341   0.01338   1.94727
   A32        1.89817  -0.00012   0.00000   0.00636   0.00636   1.90453
   A33        1.92889  -0.00239   0.00000  -0.01939  -0.01938   1.90951
   A34        1.89975   0.00002   0.00000   0.00089   0.00082   1.90057
    D1       -1.09218  -0.00024   0.00000   0.03804   0.03800  -1.05418
    D2        3.03097  -0.00082   0.00000   0.02715   0.02722   3.05819
    D3        1.01714   0.00013   0.00000   0.04102   0.04089   1.05803
    D4        1.05221   0.00015   0.00000   0.03257   0.03259   1.08480
    D5       -1.10783  -0.00043   0.00000   0.02168   0.02182  -1.08601
    D6       -3.12166   0.00051   0.00000   0.03555   0.03549  -3.08617
    D7        3.05911   0.00024   0.00000   0.03989   0.03987   3.09899
    D8        0.89907  -0.00034   0.00000   0.02900   0.02910   0.92817
    D9       -1.11475   0.00061   0.00000   0.04287   0.04277  -1.07198
   D10       -1.58712   0.00031   0.00000  -0.03068  -0.03070  -1.61781
   D11        1.83954   0.00110   0.00000   0.01177   0.01176   1.85130
   D12        2.81523  -0.00046   0.00000  -0.00731  -0.00726   2.80798
   D13       -0.04130   0.00033   0.00000   0.03514   0.03520  -0.00610
   D14        0.20463  -0.00003   0.00000  -0.04333  -0.04337   0.16126
   D15       -2.65190   0.00076   0.00000  -0.00088  -0.00092  -2.65281
   D16        1.09728  -0.00025   0.00000  -0.01077  -0.01081   1.08647
   D17       -1.82175  -0.00006   0.00000   0.02542   0.02539  -1.79636
   D18        3.06705   0.00043   0.00000  -0.01365  -0.01366   3.05339
   D19        0.14802   0.00062   0.00000   0.02255   0.02255   0.17057
   D20       -0.57587  -0.00027   0.00000   0.01386   0.01389  -0.56197
   D21        2.78829  -0.00008   0.00000   0.05005   0.05010   2.83839
   D22       -2.98983  -0.00013   0.00000   0.01107   0.01106  -2.97877
   D23        0.00955   0.00081   0.00000  -0.00792  -0.00780   0.00175
   D24        0.44893   0.00060   0.00000   0.05967   0.05955   0.50848
   D25       -2.83487   0.00154   0.00000   0.04068   0.04069  -2.79418
   D26        2.83558  -0.00078   0.00000  -0.05026  -0.05022   2.78536
   D27       -0.28568  -0.00049   0.00000  -0.05286  -0.05282  -0.33850
   D28       -0.03440  -0.00005   0.00000  -0.01042  -0.01046  -0.04487
   D29        3.12752   0.00023   0.00000  -0.01302  -0.01306   3.11446
   D30        0.08123  -0.00058   0.00000  -0.03684  -0.03691   0.04432
   D31       -2.91297  -0.00061   0.00000  -0.01563  -0.01561  -2.92859
   D32        2.99951  -0.00083   0.00000  -0.07270  -0.07271   2.92680
   D33        0.00531  -0.00086   0.00000  -0.05149  -0.05142  -0.04612
   D34       -2.47686  -0.00080   0.00000  -0.22844  -0.22841  -2.70527
   D35        0.52448  -0.00109   0.00000  -0.24857  -0.24861   0.27587
   D36        2.75385   0.00007   0.00000   0.10875   0.10874   2.86258
   D37       -1.46211  -0.00000   0.00000   0.11511   0.11506  -1.34705
   D38        0.65389   0.00221   0.00000   0.12836   0.12843   0.78231
         Item               Value     Threshold  Converged?
 Maximum Force            0.016858     0.000450     NO 
 RMS     Force            0.002753     0.000300     NO 
 Maximum Displacement     0.582001     0.001800     NO 
 RMS     Displacement     0.133338     0.001200     NO 
 Predicted change in Energy=-1.245873D-03
 GradGradGradGradGradGradGradGradGradGradGradGradGradGradGradGradGradGrad

                          Input orientation:                          
 ---------------------------------------------------------------------
 Center     Atomic      Atomic             Coordinates (Angstroms)
 Number     Number       Type             X           Y           Z
 ---------------------------------------------------------------------
      1          6           0        0.866236    1.548421   -0.851271
      2          6           0       -0.926908    1.754775    0.362657
      3          6           0        0.586235   -0.293423    1.641650
      4          6           0        1.751354    0.707040   -0.207265
      5          1           0        0.334388    1.180261   -1.724170
      6          1           0        1.019305    2.622191   -0.820453
      7          1           0        2.517748    1.098710    0.455915
      8          6           0       -1.392892    0.461599    0.443259
      9          6           0       -0.627289   -0.558146    1.056660
     10          1           0       -1.503610    2.492863   -0.187172
     11          1           0        1.209736   -1.120250    1.964106
     12          1           0       -0.290143    2.165499    1.137872
     13          1           0        0.789219    0.677947    2.069259
     14          6           0        1.959954   -0.665123   -0.695181
     15          8           0        2.923290   -1.356067   -0.452526
     16          1           0        1.136889   -1.036054   -1.349795
     17          8           0       -0.964812   -1.871888    0.924527
     18          6           0       -1.876447   -2.193933   -0.104848
     19          1           0       -1.805633   -3.271570   -0.249594
     20          1           0       -2.904381   -1.935957    0.173829
     21          1           0       -1.623425   -1.682628   -1.042468
     22          1           0       -2.236884    0.176385   -0.176043
 ---------------------------------------------------------------------
                    Distance matrix (angstroms):
                    1          2          3          4          5
     1  C    0.000000
     2  C    2.175218   0.000000
     3  C    3.112144   2.849656   0.000000
     4  C    1.380616   2.931834   2.403520   0.000000
     5  H    1.086442   2.505151   3.682922   2.129022   0.000000
     6  H    1.085063   2.437193   3.840612   2.140023   1.834387
     7  H    2.153710   3.507816   2.659839   1.086542   3.086500
     8  C    2.821462   1.376931   2.433751   3.220203   2.863166
     9  C    3.210676   2.433314   1.372928   2.975927   3.417587
    10  H    2.636128   1.086127   3.933883   3.712730   2.731945
    11  H    3.894374   3.923730   1.084608   2.889150   4.434182
    12  H    2.382161   1.084031   2.658595   2.846789   3.090634
    13  H    3.048468   2.648989   1.080561   2.471662   3.853479
    14  C    2.473935   3.912659   2.736063   1.471192   2.665844
    15  O    3.581413   5.016561   3.313096   2.385371   3.840892
    16  H    2.645995   3.870463   3.131048   2.172860   2.386675
    17  O    4.266698   3.670125   2.326278   3.912721   4.244895
    18  C    4.699433   4.088089   3.567492   4.646189   4.346859
    19  H    5.543754   5.139178   4.262300   5.336973   5.154888
    20  H    5.235387   4.191367   4.127568   5.367172   4.878816
    21  H    4.083461   3.778261   3.743926   4.218675   3.534669
    22  H    3.459447   2.120743   3.390388   4.023508   3.164792
                    6          7          8          9         10
     6  H    0.000000
     7  H    2.489063   0.000000
     8  C    3.476179   3.962219   0.000000
     9  C    4.043435   3.605180   1.415023   0.000000
    10  H    2.604395   4.304479   2.129726   3.409357   0.000000
    11  H    4.668607   2.984849   3.404247   2.124636   5.004481
    12  H    2.399637   3.080155   2.145184   2.745634   1.826311
    13  H    3.490481   2.401611   2.729889   2.135364   3.693572
    14  C    3.421541   2.178821   3.715794   3.126374   4.714576
    15  O    4.425727   2.648709   4.768204   3.939661   5.872148
    16  H    3.698214   3.118426   3.443516   3.021878   4.558200
    17  O    5.213293   4.601335   2.420751   1.362828   4.536214
    18  C    5.665026   5.519502   2.754287   2.363323   4.702323
    19  H    6.560684   6.187788   3.819287   3.233800   5.772677
    20  H    6.095951   6.219989   2.847010   2.804087   4.659069
    21  H    5.056163   5.208677   2.618825   2.581296   4.263873
    22  H    4.123106   4.884320   1.084991   2.156361   2.429791
                   11         12         13         14         15
    11  H    0.000000
    12  H    3.705192   0.000000
    13  H    1.849704   2.060417   0.000000
    14  C    2.800317   4.054065   3.288858   0.000000
    15  O    2.971866   5.025629   3.879545   1.210083   0.000000
    16  H    3.315771   4.298239   3.840392   1.115144   2.024531
    17  O    2.524746   4.098926   3.299803   3.554433   4.156884
    18  C    3.867543   4.802641   4.481095   4.171777   4.884708
    19  H    4.315216   5.812357   5.263936   4.601278   5.106177
    20  H    4.560310   4.958383   4.905898   5.102152   5.889851
    21  H    4.169240   4.619482   4.590863   3.741194   4.596444
    22  H    4.259189   3.077783   3.801348   4.311739   5.390014
                   16         17         18         19         20
    16  H    0.000000
    17  O    3.207540   0.000000
    18  C    3.459880   1.412234   0.000000
    19  H    3.855699   2.011131   1.089618   0.000000
    20  H    4.411703   2.080765   1.095838   1.780561   0.000000
    21  H    2.851639   2.082945   1.097535   1.785101   1.784489
    22  H    3.772274   2.650442   2.398622   3.475598   2.242755
                   21         22
    21  H    0.000000
    22  H    2.140784   0.000000
 Stoichiometry    C8H12O2
 Framework group  C1[X(C8H12O2)]
 Deg. of freedom    60
 Full point group                 C1      NOp   1
 Largest Abelian subgroup         C1      NOp   1
 Largest concise Abelian subgroup C1      NOp   1
                         Standard orientation:                         
 ---------------------------------------------------------------------
 Center     Atomic      Atomic             Coordinates (Angstroms)
 Number     Number       Type             X           Y           Z
 ---------------------------------------------------------------------
      1          6           0        1.457222    1.449775   -0.761296
      2          6           0       -0.384006    2.278964    0.047342
      3          6           0        0.029964   -0.133811    1.506000
      4          6           0        1.842258    0.371604    0.010322
      5          1           0        1.040060    1.265754   -1.747434
      6          1           0        1.951173    2.408034   -0.638359
      7          1           0        2.528502    0.493566    0.843849
      8          6           0       -1.262802    1.223111   -0.046632
[...]
 92,0.00024635,0.00021292,-0.00000763,-0.00008232,0.00012965,0.00180532
 ,0.00757667,0.00373371,0.00410663,-0.00143157,0.00040024,-0.00701493,-
 0.00575534,-0.00751743,0.00031914,0.00025073,0.00006629,0.14562725,0.0
 8247340,0.21559365,-0.00343870,0.00234933,-0.00006684,0.00198693,0.001
 51315,-0.00321504,-0.04884258,-0.03414496,-0.03319080,-0.00169398,-0.0
 0160458,0.00855148,0.00015825,0.00012701,-0.00028110,0.00038473,-0.000
 07016,-0.00034522,-0.00032887,-0.00003662,0.00064288,-0.00023954,-0.00
 310147,0.00284121,-0.00410154,-0.02525585,-0.00928329,-0.00034237,0.00
 014963,0.00064784,0.00556393,0.01394056,0.00816969,-0.00006469,0.00184
 929,-0.00111570,0.05432192,-0.00119031,0.00081809,0.00029803,0.0034994
 6,0.00029882,0.00194925,-0.03925468,-0.30348752,-0.11830103,-0.0015729
 5,-0.00065580,0.00382059,0.00016628,0.00000849,-0.00019849,-0.00000851
 ,-0.00007578,0.00004294,0.00008285,0.00043109,0.00067978,-0.00039304,-
 0.00371428,0.00072599,-0.00312701,-0.00282149,-0.00107059,-0.00006473,
 0.00028739,0.00046226,-0.00572658,-0.01332273,-0.00879687,0.00155624,-
 0.00137019,0.00099242,0.04551522,0.32219329,0.00617129,-0.00355135,-0.
 00032941,-0.00508141,-0.00287039,0.00243854,-0.04470678,-0.12309672,-0
 .08560496,0.00297480,0.00301681,-0.01378953,-0.00032670,-0.00016019,0.
 00041657,-0.00050752,0.00013570,0.00048545,-0.00019168,-0.00006526,0.0
 0071852,0.00040195,0.00606894,-0.00293854,0.01164582,-0.01109068,0.002
 00434,0.00094821,0.00005094,-0.00019732,0.00237016,0.00896062,0.006716
 83,-0.00156293,0.00162965,0.00000100,0.03304055,0.12198626,0.08631633,
 -0.00144952,0.02292498,0.00556406,-0.00308102,-0.00033445,0.00114198,-
 0.01027547,-0.00443441,0.01052774,-0.08434003,-0.00614552,-0.02999500,
 -0.00226122,0.00334379,0.00306947,0.00154913,0.00212712,-0.00460379,0.
 00426318,-0.02467849,-0.01010763,-0.00080684,0.00203960,-0.00116039,0.
 00029213,0.00128700,0.00708831,-0.00001732,-0.00003851,-0.00001814,0.0
 0098371,0.00077468,-0.00190592,0.00011195,0.00004159,-0.00036304,0.000
 24792,0.00064813,-0.00111401,0.78265356,0.02224820,-0.02704201,0.00321
 563,-0.00519694,-0.00402746,0.00323362,0.00496204,0.00212305,-0.005905
 26,-0.00426064,-0.20190860,-0.06910040,-0.00467179,-0.00016296,-0.0010
 0931,0.00241309,0.00027272,-0.00204568,0.00298272,-0.00594762,-0.00054
 346,-0.00412449,0.00098717,0.00159564,-0.00005384,0.00862975,-0.000917
 71,-0.00006974,0.00017885,-0.00019239,-0.00164549,-0.00034419,0.003860
 02,-0.00021211,0.00013888,-0.00086078,-0.00003289,-0.00093478,0.000563
 64,-0.27319948,0.66416630,0.00026150,0.01964635,0.00863524,0.00026194,
 0.00039896,-0.00124973,0.00458869,0.00112208,-0.00780281,-0.01801243,-
 0.08339822,-0.10828484,0.00192309,0.00220896,-0.00202732,-0.00741717,0
 .00297356,0.00102789,0.00258752,-0.01829882,-0.00562211,-0.00133249,-0
 .00104953,0.00067222,0.00153058,0.00627979,0.00011451,-0.00017306,0.00
 009502,0.00035882,0.00101805,0.00047215,-0.00178371,-0.00020481,0.0000
 3435,0.00011584,-0.00083570,0.00011951,0.00040233,0.22853895,0.0572184
 6,0.35908200,0.00995475,-0.00185268,0.00254429,-0.00248947,-0.00184503
 ,0.00100866,0.00057168,0.00377537,-0.00213712,-0.00991139,0.04092462,0
 .00536348,-0.00001521,-0.00173491,-0.00001805,-0.00163624,0.00036351,0
 .00063668,0.00041774,0.00226379,0.00232152,-0.00084722,0.00224188,0.00
 027340,0.00204804,0.00099343,-0.00033559,-0.00007593,0.00003412,-0.000
 01476,-0.00032154,-0.00023207,0.00050831,0.00033258,-0.00009303,-0.000
 30102,-0.00072423,-0.00044016,0.00087907,-0.53321559,0.32439956,-0.123
 93345,0.57381396,-0.00895409,-0.00114549,-0.00619059,0.00379955,0.0022
 7428,-0.00161808,0.00110989,-0.00155188,0.00196679,0.05426033,-0.04440
 722,0.00389476,0.00138554,0.00046344,-0.00011494,0.00076471,-0.0011393
 0,0.00146597,-0.00187819,0.00319329,0.00133440,0.00194969,-0.00238835,
 -0.00008080,-0.00291645,-0.00374811,-0.00142673,0.00012820,-0.00004110
 ,0.00000095,0.00047747,0.00008385,-0.00147595,-0.00026568,0.00000650,0
 .00056881,0.00004015,0.00052438,-0.00032737,0.33074361,-0.33586052,0.0
 6575410,-0.39324743,0.36306227,0.00016974,-0.00525610,-0.00002964,-0.0
 0047281,-0.00040167,0.00046420,0.00214658,-0.00005345,-0.00130414,0.01
 041798,-0.00246433,0.02311061,-0.00028021,-0.00073658,0.00062250,0.001
 74091,-0.00068349,0.00011253,0.00065867,0.00368742,0.00005155,0.000222
 61,0.00017051,-0.00003284,-0.00002004,-0.00128950,-0.00109510,-0.00000
 024,0.00000269,-0.00005843,-0.00089314,-0.00068414,0.00172437,0.000034
 88,0.00003700,-0.00012343,0.00035644,-0.00035309,0.00014335,-0.1209889
 6,0.06292016,-0.10788871,0.13497217,-0.07008279,0.07431720,-0.00099949
 ,0.00034008,0.00053192,0.00070683,0.00048852,-0.00034287,0.00089121,0.
 00038864,-0.00068743,0.00429868,0.00371661,-0.00413622,0.00033106,-0.0
 0076722,0.00007444,0.00013624,-0.00025188,0.00050223,0.00065489,0.0009
 1395,-0.00059404,0.00069825,-0.00043204,-0.00028163,-0.00025882,-0.001
 38204,-0.00059653,0.00000849,-0.00001395,0.00001872,-0.00016869,-0.000
 13572,0.00016033,-0.00000812,-0.00000742,0.00010635,0.00000898,0.00002
 917,0.00014268,-0.15429717,-0.06269380,-0.08715098,-0.03822234,0.01214
 165,-0.02840146,0.18599997,-0.00176775,0.00130340,-0.00131296,-0.00007
 552,-0.00007007,0.00002366,-0.00047870,0.00047606,0.00049245,-0.018855
 39,-0.00787456,-0.02163697,0.00081602,-0.00013131,0.00102560,-0.000154
 42,0.00030567,0.00052535,0.00150542,-0.00455458,-0.00263143,0.00052309
 ,0.00011206,-0.00019964,0.00064650,-0.00024149,0.00023466,0.00003094,0
 .00000740,-0.00001195,0.00004689,0.00003031,-0.00014366,-0.00003052,-0
 .00001235,0.00007324,-0.00026031,-0.00005552,0.00035229,-0.05439044,-0
 .09357337,-0.04908068,0.02561695,0.01721242,0.01438510,0.04674018,0.08
 673864,0.00152541,-0.00060177,-0.00011703,-0.00053648,-0.00026007,0.00
 024693,-0.00099506,-0.00068397,0.00112078,-0.01568520,-0.00716226,-0.0
 0090083,0.00045295,-0.00057934,0.00027993,0.00052437,-0.00017821,0.000
 29451,-0.00064644,-0.00314600,0.00094657,0.00027148,0.00077458,0.00029
 545,-0.00007139,-0.00136034,-0.00039862,-0.00000138,0.00000043,-0.0000
 0945,0.00000814,-0.00001501,-0.00010779,0.00004130,-0.00001411,-0.0000
 7039,-0.00002300,-0.00001551,-0.00005016,-0.08373155,-0.05136370,-0.13
 465306,-0.02181669,0.00560289,0.00946223,0.12011805,0.05785506,0.12342
 317,0.00282683,-0.00272665,0.00016756,-0.00436129,-0.00090000,-0.00239
 962,-0.01289154,-0.05224581,-0.01108402,0.00082844,0.00326726,-0.00247
 144,-0.00025897,-0.00007417,0.00026759,-0.00053418,-0.00001762,0.00059
 144,-0.00002052,0.00020657,0.00022413,0.01205993,0.01766709,0.00040885
 ,-0.09309465,-0.05260070,-0.03138126,0.00062048,0.00078763,-0.00027187
 ,0.00074945,-0.00021447,0.00302173,0.00051436,0.00009631,0.00025409,-0
 .00267902,0.00020489,-0.00482300,0.00086365,-0.00157042,-0.00118146,-0
 .00061518,0.00092861,0.00023601,-0.00002425,0.00003670,0.00010263,0.30
 713478,-0.00162612,-0.00309790,0.00231441,0.00426241,0.00172139,0.0035
 5589,-0.02479222,-0.02904549,-0.01235809,0.00143780,0.00100623,0.00308
 349,-0.00008053,-0.00029021,0.00008843,-0.00064939,0.00013130,0.000734
 33,0.00019060,0.00092120,0.00015884,-0.00499628,-0.04706374,-0.0066188
 6,-0.02465426,-0.29878997,-0.00099103,-0.00083788,-0.00151884,0.000421
 78,0.00141706,0.00002351,-0.00000529,-0.00013568,0.00042716,0.00020065
 ,0.00068430,0.00204461,-0.00174169,-0.00041288,-0.00732335,-0.00498988
 ,-0.00147178,0.00381171,0.00094150,0.00092837,0.00027007,0.00112022,0.
 11861073,0.47155091,0.00233570,-0.00254317,0.00000459,-0.00699370,-0.0
 0058128,0.00374534,-0.01380311,-0.02995224,0.00055225,0.00085785,0.001
 69150,-0.00130596,-0.00015865,-0.00014781,0.00017436,-0.00058528,0.000
 11575,0.00058742,0.00002681,0.00028512,0.00036701,0.00216013,0.0148543
 9,0.00525824,-0.03355993,-0.02963024,-0.06322136,0.00057013,0.00063878
 ,-0.00015462,0.00326671,0.00060460,-0.00240265,0.00050247,0.00038745,-
 0.00030434,-0.00584387,-0.00215857,0.00188690,-0.00176486,-0.00144294,
 -0.00206179,0.00012243,0.00086644,0.00068929,0.00058018,0.00007880,0.0
 0040680,0.19601133,0.07062394,0.23142004,0.00079564,0.00101852,-0.0005
 9212,-0.00135088,-0.00029318,-0.00178134,0.00381327,0.00221647,-0.0003
 9844,-0.00070163,-0.00015615,-0.00062236,0.00004067,0.00005722,0.00000
 192,0.00023037,0.00000247,-0.00027914,-0.00008168,-0.00023026,-0.00001
 716,0.00270558,0.00584261,0.00515764,-0.01339621,-0.01917397,-0.006181
 84,0.00005983,0.00045105,-0.00000506,-0.00030548,-0.00002609,0.0003427
 4,0.00010373,-0.00046212,-0.00012002,0.00023348,0.00025081,-0.00006580
 ,-0.00044776,0.00096851,0.00085401,0.00053771,-0.00055856,-0.00026567,
 -0.00001022,0.00000262,0.00010955,-0.17011935,-0.03548142,-0.09487905,
 0.54463720,0.00016923,0.00035092,-0.00027008,-0.00118956,0.00037798,-0
 .00108236,0.00262752,-0.00381162,0.00016372,-0.00016515,-0.00029981,-0
 .00005130,-0.00000442,0.00000090,0.00004364,0.00006342,0.00001636,-0.0
 0007816,-0.00000051,-0.00003682,0.00003808,-0.00075595,-0.00210059,-0.
 00044737,-0.03507147,-0.02477286,-0.02972266,0.00008739,0.00026155,-0.
 00000325,-0.00022469,0.00025903,-0.00033988,-0.00011803,-0.00021695,-0
 .00006041,-0.00147912,-0.00011683,0.00017618,-0.00065776,0.00042330,0.
 00005077,0.00052080,-0.00042059,0.00003778,0.00004286,0.00006968,0.000
 12420,-0.01272250,-0.09584179,-0.00817802,-0.01793969,0.63856111,0.001
 57548,-0.00001042,-0.00039792,-0.00199114,-0.00043290,-0.00065701,0.00
 090944,0.00324154,0.00295795,-0.00061627,-0.00004362,-0.00200155,0.000
 16217,0.00022717,-0.00015768,-0.00010505,-0.00004554,-0.00013064,-0.00
 018972,-0.00032510,0.00008354,0.00268795,0.00586520,0.00209827,-0.0032
 6318,-0.01607773,-0.00927045,0.00018002,0.00043538,-0.00019234,0.00018
 047,-0.00000363,-0.00077272,-0.00015518,-0.00022796,0.00000204,-0.0002
 5131,0.00008272,0.00195647,0.00090300,0.00175487,0.00226031,-0.0003579
 7,-0.00050123,-0.00075664,-0.00016649,-0.00010995,-0.00036740,-0.09834
 322,-0.03087000,-0.14615918,-0.03984238,-0.01947422,0.54861345,0.00011
 677,-0.00012195,0.00003815,0.00023905,-0.00015433,0.00044738,-0.000098
 34,-0.00140888,-0.00032301,0.00007908,0.00014038,-0.00004098,-0.000001
 24,0.00000037,0.00000297,-0.00003303,0.00000057,0.00002418,0.00000645,
 0.00002492,0.00001081,-0.00064954,0.00063311,-0.00112955,-0.00252352,0
 .00050745,-0.00285826,-0.00000710,-0.00005277,-0.00001568,0.00003304,0
 .00003886,-0.00004544,0.00002374,0.00012796,-0.00001397,-0.00038500,-0
 .00007952,-0.00011319,0.00007575,-0.00021983,-0.00010798,-0.00007352,0
 .00017379,0.00000058,0.00004453,-0.00001715,0.00001483,-0.00752030,-0.
 03488184,-0.00635457,-0.04961746,0.01043611,0.00336742,0.05672533,-0.0
 0002094,-0.00000987,0.00004027,-0.00003350,0.00001608,-0.00014552,-0.0
 0002474,-0.00046990,-0.00018380,-0.00002705,0.00012688,0.00016531,0.00
 000863,-0.00000643,-0.00001395,0.00000112,0.00000360,0.00000739,0.0000
 0161,0.00002623,0.00000937,0.00015617,-0.00000451,0.00013537,-0.000053
 04,0.00285559,-0.00050297,0.00000103,-0.00002525,0.00000496,0.00000043
 ,-0.00000594,-0.00001564,-0.00003970,-0.00003964,-0.00000112,-0.000136
 12,-0.00002505,-0.00000567,0.00014508,-0.00043071,-0.00017111,-0.00017
 722,0.00026721,0.00000182,0.00003738,-0.00001971,0.00000966,-0.0055469
 7,-0.00953046,-0.00418819,0.00036292,-0.33449778,0.00369409,0.00403064
 ,0.35887899,0.00011933,-0.00014692,-0.00004384,0.00002788,-0.00016859,
 0.00048952,-0.00029742,-0.00125925,-0.00007354,0.00004921,0.00009715,-
 0.00012350,-0.00002833,-0.00002624,0.00003181,-0.00002881,0.00000432,0
 .00004808,0.00000563,0.00001131,0.00002455,-0.00083347,0.00071385,-0.0
 0032778,-0.00251273,0.00040306,-0.00191527,-0.00005956,-0.00004159,0.0
 0003808,0.00000738,0.00003688,-0.00000604,0.00011794,0.00009445,-0.000
 08942,-0.00026494,-0.00004739,-0.00011343,-0.00013253,0.00000582,-0.00
 012522,0.00007848,-0.00003057,0.00004456,-0.00001381,0.00002635,0.0000
 3726,-0.00729625,-0.03053829,-0.00493944,0.00365671,0.01257128,-0.0512
 1301,0.00678443,-0.00022162,0.05474846,0.00004964,-0.00033464,0.000087
 10,0.00027056,-0.00017029,0.00064667,-0.00085279,-0.00137004,-0.000557
 69,0.00025158,0.00009261,-0.00020498,-0.00000556,0.00001548,0.00000064
 ,-0.00007926,-0.00000720,0.00006578,0.00001627,0.00001367,-0.00002164,
 -0.00006628,-0.00037595,-0.00102084,0.00122264,0.00735188,0.00167642,-
 0.00000020,-0.00007886,-0.00001479,0.00014593,0.00001903,0.00029301,0.
 00004148,0.00018258,0.00007025,0.00002749,-0.00002697,-0.00036822,0.00
 018621,0.00022427,0.00001196,-0.00010136,-0.00005618,0.00002045,-0.000
 04066,-0.00002745,-0.00005126,-0.03254976,-0.00107260,-0.00840454,-0.2
 4851154,0.07998806,0.07569343,0.00258600,0.00043943,0.00068263,0.28147
 421,0.00070966,-0.00018658,-0.00010164,-0.00048939,-0.00058287,-0.0002
 3279,-0.00049142,-0.00042109,-0.00020972,0.00001195,0.00038010,-0.0005
 5621,-0.00002139,0.00002355,0.00002250,-0.00002984,-0.00000218,0.00000
 662,-0.00003540,-0.00002799,0.00002852,0.00065316,0.00023509,0.0010088
 3,-0.00055254,0.00242047,0.00121011,-0.00004866,0.00004115,0.00004201,
 0.00000508,-0.00001405,0.00010236,0.00015097,-0.00012288,-0.00006611,0
 .00004251,0.00001790,-0.00018519,0.00007080,0.00014332,0.00015517,-0.0
 0001579,-0.00000200,-0.00005359,-0.00000333,-0.00002728,-0.00002497,-0
 .01242906,0.00566753,0.00282670,0.08391013,-0.08880841,-0.03128138,0.0
 2898495,-0.00897502,-0.01160314,-0.08784262,0.08841704,0.00027495,-0.0
 0009093,-0.00002304,-0.00033226,-0.00021685,-0.00028221,-0.00046982,-0
 .00059163,-0.00059916,0.00005902,0.00036930,0.00004383,-0.00003605,-0.
 00005200,0.00003983,0.00001201,0.00002006,0.00003224,0.00000444,0.0000
 6231,0.00002699,0.00123202,-0.00058789,0.00072504,0.00048571,0.0040178
 0,0.00150532,0.00000134,-0.00002670,0.00002654,0.00002456,-0.00000303,
 0.00020887,-0.00000543,-0.00012816,-0.00000864,0.00006662,-0.00001319,
 -0.00025176,-0.00037021,-0.00044147,-0.00053584,0.00014203,0.00014131,
 0.00017467,0.00012085,0.00002828,0.00009947,-0.03181337,0.00573675,0.0
 0468331,0.07884543,-0.03114640,-0.08251935,-0.00123737,0.00128343,0.00
 089159,-0.07324438,0.03326150,0.08365353,0.00044039,-0.00033926,-0.000
 07191,-0.00055917,-0.00031870,0.00011230,-0.00126222,-0.00043471,0.000
 29816,0.00017074,0.00033346,-0.00018674,0.00006018,-0.00000797,0.00001
 060,-0.00009773,0.00002166,0.00011338,-0.00003018,0.00005439,0.0000859
 4,0.00056133,-0.00032479,0.00066946,0.00262766,0.00472703,0.00043255,0
 .00003230,-0.00003284,-0.00002177,0.00017605,0.00003150,-0.00013728,-0
 .00004299,-0.00006830,0.00000274,-0.00006006,-0.00004565,0.00011966,-0
 .00077559,-0.00031771,-0.00076094,0.00028524,0.00008878,0.00024137,0.0
 0019769,0.00004410,0.00022758,-0.00009763,0.00501219,-0.03546997,-0.06
 832715,-0.02197576,0.05994781,0.00062229,0.00120251,-0.00075737,-0.004
 27390,-0.01079990,0.02653409,0.07055912,0.00087177,-0.00046718,-0.0002
 7771,-0.00097532,-0.00068288,0.00066198,-0.00128248,-0.00028787,0.0003
 7147,-0.00001800,0.00043031,-0.00085629,0.00001404,0.00004049,0.000049
 48,-0.00011926,0.00000342,0.00012320,-0.00004737,-0.00006078,0.0000523
 1,0.00062543,0.00052496,0.00004680,0.00209308,0.00269541,-0.00095974,0
 .00006498,0.00001368,-0.00009593,0.00006679,0.00001573,-0.00003663,0.0
 0005637,0.00002624,-0.00001858,0.00000407,-0.00000066,0.00002966,-0.00
 006514,0.00036695,0.00022152,0.00005852,-0.00014714,-0.00005612,-0.000
 00353,0.00003202,-0.00001301,0.00090013,0.00444269,-0.01211192,-0.0214
 1584,-0.08527013,0.08311827,-0.00831810,-0.00812763,0.02992446,0.00365
 005,0.00396524,-0.01152027,0.02323100,0.08399203,0.00023964,-0.0003846
 4,0.00008510,-0.00001857,-0.00029205,0.00071777,-0.00117676,-0.0012989
 0,-0.00018253,0.00020499,0.00035146,-0.00000841,-0.00012369,-0.0001094
 4,0.00008184,-0.00004740,0.00001892,0.00009438,0.00002866,0.00010783,0
 .00003694,-0.00056436,0.00010013,-0.00043390,0.00202435,0.00671536,0.0
 0121823,-0.00003673,-0.00007863,0.00001282,0.00025570,0.00003843,-0.00
 006050,0.00017655,0.00012699,-0.00006348,-0.00004565,-0.00001110,-0.00
 007166,-0.00049149,-0.00047098,-0.00067804,0.00023728,0.00011153,0.000
 26330,-0.00000146,0.00004775,0.00015732,-0.01163088,-0.00160512,-0.027
 96617,0.05684807,0.07922958,-0.26310956,0.00083840,0.00029589,0.002452
 44,0.00379322,0.00483327,-0.00775495,-0.05119867,-0.08722604,0.2951268
 0,-0.00065228,0.00026319,-0.00015066,-0.00283639,-0.00134459,-0.006946
 98,0.00143676,0.00316215,-0.00275903,0.00055038,-0.00062263,0.00033144
 ,-0.00006892,0.00003983,0.00023380,0.00009112,-0.00001570,-0.00005837,
 0.00002612,0.00002341,0.00003044,-0.21294588,-0.05593505,-0.14240358,-
 0.01014325,-0.00422488,-0.01014076,-0.00178300,0.00051120,0.00307231,-
 0.00072517,-0.00044563,-0.00009310,0.00390772,-0.00116453,-0.00193500,
 -0.00003303,-0.00002296,0.00016705,-0.00025965,0.00007078,-0.00046583,
 0.00028751,-0.00011536,0.00010415,0.00005295,0.00004823,0.00016216,-0.
 00083129,-0.00145057,0.00138377,-0.00028810,-0.00163077,-0.00032526,0.
 00035703,-0.00032767,0.00069561,0.00020929,-0.00177988,-0.00029418,-0.
 00020635,0.00060882,0.00068879,0.22385445,-0.00056564,0.00011000,0.000
 10718,-0.02297034,-0.00658087,-0.02104919,0.00208050,-0.00425830,0.001
 06768,0.00012415,-0.00044709,0.00049724,-0.00009452,0.00010696,0.00003
 979,0.00012936,0.00007441,-0.00007874,0.00008178,-0.00003946,-0.000072
 52,-0.05763445,-0.07393515,-0.03900519,0.01685743,0.01224546,0.0138910
 2,0.00096353,0.00092317,-0.00071645,0.00123096,0.00037890,0.00038632,-
 0.00297044,-0.00450066,0.00166661,-0.00009313,-0.00004343,0.00012382,0
 .00021073,0.00012528,0.00023751,-0.00008244,-0.00004765,-0.00006913,-0
 .00007645,0.00000248,-0.00006875,-0.00165755,0.00048346,-0.00203908,0.
 00065396,-0.00412666,0.00098446,0.00015527,-0.00000669,0.00019467,-0.0
 0061428,-0.00214104,-0.00010222,-0.00008104,-0.00150491,-0.00050023,0.
 06435262,0.08318179,0.00195223,-0.00111426,-0.00011897,-0.00124782,0.0
 0004783,0.00526920,-0.00402000,0.00277715,0.00199921,-0.00014463,0.001
 29269,-0.00102774,-0.00027672,-0.00015715,-0.00007562,-0.00026733,0.00
 008551,0.00030426,0.00001273,0.00003894,-0.00001232,-0.14657014,-0.036
 85778,-0.15218239,-0.00925757,-0.00891609,-0.00397914,0.00335803,-0.00
 054724,-0.00260949,-0.00053477,-0.00021699,-0.00029752,-0.00392297,0.0
 0086098,0.00389780,0.00044575,-0.00019391,-0.00013986,-0.00008599,-0.0
 0007375,0.00004403,-0.00017314,0.00014108,0.00010855,0.00001715,-0.000
 02134,-0.00009570,0.00141104,0.00073800,-0.00126003,-0.00076570,-0.001
 58112,-0.00026658,0.00071084,-0.00019796,0.00016413,0.00084679,0.00081
 714,-0.00013626,-0.00019099,-0.00142693,0.00008226,0.15870322,0.044505
 19,0.15033218\\0.00000155,0.00000078,-0.00000181,0.00000599,-0.0000060
 1,-0.00000331,0.00000653,0.00000079,-0.00001127,-0.00000919,-0.0000051
 4,0.00000331,0.00000170,0.00000517,-0.00000082,0.00001021,-0.00000219,
 0.00000413,-0.00000008,-0.00000505,0.00000404,-0.00000675,-0.00001133,
 0.00001670,0.00000237,-0.00001081,-0.00000888,0.00000279,0.00000025,-0
 .00000162,-0.00000192,-0.00000286,-0.00000185,0.00000075,0.00000909,-0
 .00000217,-0.00000320,-0.00000468,0.00000750,0.00000144,-0.00000294,-0
 .00000075,0.00000264,-0.00000088,-0.00000405,-0.00000166,-0.00000224,0
 .00000390,0.00000216,0.00000552,0.00001573,0.00000051,0.00002723,0.000
 00606,-0.00000941,0.00000087,0.00000424,-0.00000413,0.00001056,-0.0000
 0509,0.00000215,0.00000798,-0.00001444,-0.00000445,-0.00001410,-0.0000
 0955\\\@
 The archive entry for this job was punched.


 O WAD SOME POWER THE GIFTIE GIE US       
 TO SEE OURSELS AS OTHERS SEE US.....     
 IT WOULD FRAE MONIE A BLUNDER FREE US,   
                     AND FOOLISH NOTION...
 WHAT AIRS IN DRESS AND GAIT WAD LEA'E US,
                     AND EV'N DEVOTION....
                                          
              (ROBERT BURNS 'TO A LOUSE') 
 Job cpu time:       0 days  0 hours 24 minutes 12.9 seconds.
 Elapsed time:       0 days  0 hours  1 minutes 32.5 seconds.
 File lengths (MBytes):  RWF=     84 Int=      0 D2E=      0 Chk=      4 Scr=      1
 Normal termination of Gaussian 16 at Tue Jun 21 10:42:47 2022.
