Job Start Time: Tue Jun 21 10:35:38 MDT 2022
SLURM Job ID: 40873
SLURM Job Name: DATS_13_endo_ii
 Entering Gaussian System, Link 0=/opt/apps/Gaussian/G16C/g16/g16
 Initial command:
 /opt/apps/Gaussian/G16C/g16/l1.exe "/tmp/Gau-2591438.inp" -scrdir="/tmp/"
 Entering Link 1 = /opt/apps/Gaussian/G16C/g16/l1.exe PID=   2591440.
  
 Copyright (c) 1988-2019, Gaussian, Inc.  All Rights Reserved.
  
 This is part of the Gaussian(R) 16 program.  It is based on
 the Gaussian(R) 09 system (copyright 2009, Gaussian, Inc.),
 the Gaussian(R) 03 system (copyright 2003, Gaussian, Inc.),
 the Gaussian(R) 98 system (copyright 1998, Gaussian, Inc.),
 the Gaussian(R) 94 system (copyright 1995, Gaussian, Inc.),
 the Gaussian 92(TM) system (copyright 1992, Gaussian, Inc.),
 the Gaussian 90(TM) system (copyright 1990, Gaussian, Inc.),
 the Gaussian 88(TM) system (copyright 1988, Gaussian, Inc.),
 the Gaussian 86(TM) system (copyright 1986, Carnegie Mellon
 University), and the Gaussian 82(TM) system (copyright 1983,
 Carnegie Mellon University). Gaussian is a federally registered
 trademark of Gaussian, Inc.
  
 This software contains proprietary and confidential information,
 including trade secrets, belonging to Gaussian, Inc.
  
 This software is provided under written license and may be
 used, copied, transmitted, or stored only in accord with that
 written license.
  
 The following legend is applicable only to US Government
 contracts under FAR:
  
                    RESTRICTED RIGHTS LEGEND
  
 Use, reproduction and disclosure by the US Government is
 subject to restrictions as set forth in subparagraphs (a)
 and (c) of the Commercial Computer Software - Restricted
 Rights clause in FAR 52.227-19.
  
 Gaussian, Inc.
 340 Quinnipiac St., Bldg. 40, Wallingford CT 06492
  
  
 ---------------------------------------------------------------
 Warning -- This program may not be used in any manner that
 competes with the business of Gaussian, Inc. or will provide
 assistance to any competitor of Gaussian, Inc.  The licensee
 of this program is prohibited from giving any competitor of
 Gaussian, Inc. access to this program.  By using this program,
 the user acknowledges that Gaussian, Inc. is engaged in the
 business of creating and licensing software in the field of
 computational chemistry and represents and warrants to the
 licensee that it is not a competitor of Gaussian, Inc. and that
 it will not use this program in any manner prohibited above.
 ---------------------------------------------------------------
  

 Cite this work as:
 Gaussian 16, Revision C.01,
 M. J. Frisch, G. W. Trucks, H. B. Schlegel, G. E. Scuseria, 
 M. A. Robb, J. R. Cheeseman, G. Scalmani, V. Barone, 
 G. A. Petersson, H. Nakatsuji, X. Li, M. Caricato, A. V. Marenich, 
 J. Bloino, B. G. Janesko, R. Gomperts, B. Mennucci, H. P. Hratchian, 
 J. V. Ortiz, A. F. Izmaylov, J. L. Sonnenberg, D. Williams-Young, 
 F. Ding, F. Lipparini, F. Egidi, J. Goings, B. Peng, A. Petrone, 
 T. Henderson, D. Ranasinghe, V. G. Zakrzewski, J. Gao, N. Rega, 
 G. Zheng, W. Liang, M. Hada, M. Ehara, K. Toyota, R. Fukuda, 
 J. Hasegawa, M. Ishida, T. Nakajima, Y. Honda, O. Kitao, H. Nakai, 
 T. Vreven, K. Throssell, J. A. Montgomery, Jr., J. E. Peralta, 
 F. Ogliaro, M. J. Bearpark, J. J. Heyd, E. N. Brothers, K. N. Kudin, 
 V. N. Staroverov, T. A. Keith, R. Kobayashi, J. Normand, 
 K. Raghavachari, A. P. Rendell, J. C. Burant, S. S. Iyengar, 
 J. Tomasi, M. Cossi, J. M. Millam, M. Klene, C. Adamo, R. Cammi, 
 J. W. Ochterski, R. L. Martin, K. Morokuma, O. Farkas, 
 J. B. Foresman, and D. J. Fox, Gaussian, Inc., Wallingford CT, 2019.
 
 ******************************************
 Gaussian 16:  AS64L-G16RevC.01  3-Jul-2019
                21-Jun-2022 
 ******************************************
 %chk=DATS_13_endo_ii.chk
 %nprocshared=16
 Will use up to   16 processors via shared memory.
 -------------------------------------------------
 # opt=(calcfc,ts,noeigentest) freq 6-31g(d) m062x
 -------------------------------------------------
 1/5=1,10=4,11=1,18=20,26=3,38=1/1,3;
 2/9=110,12=2,17=6,18=5,40=1/2;
 3/5=1,6=6,7=1,11=2,25=1,30=1,71=2,74=-55,140=1/1,2,3;
 4//1;
 5/5=2,38=5/2;
 8/6=4,10=90,11=11/1;
 11/6=1,8=1,9=11,15=111,16=1/1,2,10;
 10/6=1,13=1/2;
 6/7=2,8=2,9=2,10=2,28=1/1;
 7/10=1,25=1/1,2,3,16;
 1/5=1,10=4,11=1,18=20,26=3/3(2);
 2/9=110/2;
 99//99;
 2/9=110/2;
 3/5=1,6=6,7=1,11=2,25=1,30=1,71=1,74=-55/1,2,3;
 4/5=5,16=3,69=1/1;
 5/5=2,38=5/2;
 7//1,2,3,16;
 1/5=1,11=1,18=20,26=3/3(-5);
 2/9=110/2;
 6/7=2,8=2,9=2,10=2,19=2,28=1/1;
 99/9=1/99;
 -------------------
 Title Card Required
 -------------------
 Symbolic Z-matrix:
 Charge =  0 Multiplicity = 1
 C                    -0.89227  -1.19755   1.22414 
 C                     0.5399    0.15155   1.45772 
 C                    -1.2708    1.94249   0.09122 
 C                    -1.9324   -0.75973   0.40045 
 H                    -0.22453  -1.92637   0.77553 
 H                    -1.0918   -1.35357   2.28151 
 H                    -2.8838   -0.40992   0.78487 
 C                     0.83956   0.72276   0.2176 
 C                    -0.06013   1.6312   -0.42068 
 H                     1.30065  -0.43975   1.95655 
 H                    -1.97655   2.5342   -0.48242 
 H                    -0.03164   0.7798    2.13023 
 H                    -1.55331   1.71591   1.11135 
 C                    -1.67372  -0.79089  -1.01096 
 O                    -0.56233  -1.05866  -1.4681 
 H                    -2.50491  -0.52001  -1.69117 
 O                     0.28902   2.01156  -1.75422 
 C                    -0.43276   3.19102  -2.11865 
 H                    -0.00684   3.60979  -3.00642 
 H                    -1.45745   2.94085  -2.29839 
 H                    -0.37404   3.90496  -1.32383 
 H                     1.61675   0.49782  -0.32413 
 
 Add virtual bond connecting atoms C2         and C1         Dist= 3.74D+00.

 GradGradGradGradGradGradGradGradGradGradGradGradGradGradGradGradGradGrad
 Berny optimization.
 Initialization pass.
                           ----------------------------
                           !    Initial Parameters    !
                           ! (Angstroms and Degrees)  !
 --------------------------                            --------------------------
 ! Name  Definition              Value          Derivative Info.                !
 --------------------------------------------------------------------------------
 ! R1    R(1,2)                  1.9813         calculate D2E/DX2 analytically  !
 ! R2    R(1,4)                  1.3971         calculate D2E/DX2 analytically  !
 ! R3    R(1,5)                  1.0855         calculate D2E/DX2 analytically  !
 ! R4    R(1,6)                  1.0873         calculate D2E/DX2 analytically  !
 ! R5    R(2,8)                  1.3978         calculate D2E/DX2 analytically  !
 ! R6    R(2,10)                 1.085          calculate D2E/DX2 analytically  !
 ! R7    R(2,12)                 1.0833         calculate D2E/DX2 analytically  !
 ! R8    R(3,9)                  1.3508         calculate D2E/DX2 analytically  !
 ! R9    R(3,11)                 1.085          calculate D2E/DX2 analytically  !
 ! R10   R(3,13)                 1.0825         calculate D2E/DX2 analytically  !
 ! R11   R(4,7)                  1.0841         calculate D2E/DX2 analytically  !
 ! R12   R(4,14)                 1.4353         calculate D2E/DX2 analytically  !
 ! R13   R(8,9)                  1.429          calculate D2E/DX2 analytically  !
 ! R14   R(8,22)                 0.9737         calculate D2E/DX2 analytically  !
 ! R15   R(9,17)                 1.43           calculate D2E/DX2 analytically  !
 ! R16   R(14,15)                1.2312         calculate D2E/DX2 analytically  !
 ! R17   R(14,16)                1.1077         calculate D2E/DX2 analytically  !
 ! R18   R(17,18)                1.43           calculate D2E/DX2 analytically  !
 ! R19   R(18,19)                1.07           calculate D2E/DX2 analytically  !
 ! R20   R(18,20)                1.07           calculate D2E/DX2 analytically  !
 ! R21   R(18,21)                1.07           calculate D2E/DX2 analytically  !
 ! A1    A(2,1,4)              113.2192         calculate D2E/DX2 analytically  !
 ! A2    A(2,1,5)               93.5115         calculate D2E/DX2 analytically  !
 ! A3    A(2,1,6)               96.6445         calculate D2E/DX2 analytically  !
 ! A4    A(4,1,5)              115.1324         calculate D2E/DX2 analytically  !
 ! A5    A(4,1,6)              118.795          calculate D2E/DX2 analytically  !
 ! A6    A(5,1,6)              114.7363         calculate D2E/DX2 analytically  !
 ! A7    A(1,2,8)              109.1841         calculate D2E/DX2 analytically  !
 ! A8    A(1,2,10)             100.9493         calculate D2E/DX2 analytically  !
 ! A9    A(1,2,12)              94.9743         calculate D2E/DX2 analytically  !
 ! A10   A(8,2,10)             118.7028         calculate D2E/DX2 analytically  !
 ! A11   A(8,2,12)             115.2683         calculate D2E/DX2 analytically  !
 ! A12   A(10,2,12)            113.6122         calculate D2E/DX2 analytically  !
 ! A13   A(9,3,11)             120.5502         calculate D2E/DX2 analytically  !
 ! A14   A(9,3,13)             122.8737         calculate D2E/DX2 analytically  !
 ! A15   A(11,3,13)            116.2715         calculate D2E/DX2 analytically  !
 ! A16   A(1,4,7)              123.0513         calculate D2E/DX2 analytically  !
 ! A17   A(1,4,14)             116.0256         calculate D2E/DX2 analytically  !
 ! A18   A(7,4,14)             120.9227         calculate D2E/DX2 analytically  !
 ! A19   A(2,8,9)              121.4034         calculate D2E/DX2 analytically  !
 ! A20   A(2,8,22)             124.7706         calculate D2E/DX2 analytically  !
 ! A21   A(9,8,22)             113.6333         calculate D2E/DX2 analytically  !
 ! A22   A(3,9,8)              122.7861         calculate D2E/DX2 analytically  !
 ! A23   A(3,9,17)             120.7257         calculate D2E/DX2 analytically  !
 ! A24   A(8,9,17)             115.588          calculate D2E/DX2 analytically  !
 ! A25   A(4,14,15)            122.1774         calculate D2E/DX2 analytically  !
 ! A26   A(4,14,16)            117.6019         calculate D2E/DX2 analytically  !
 ! A27   A(15,14,16)           120.1688         calculate D2E/DX2 analytically  !
 ! A28   A(9,17,18)            109.5            calculate D2E/DX2 analytically  !
 ! A29   A(17,18,19)           109.4712         calculate D2E/DX2 analytically  !
 ! A30   A(17,18,20)           109.4712         calculate D2E/DX2 analytically  !
 ! A31   A(17,18,21)           109.4712         calculate D2E/DX2 analytically  !
 ! A32   A(19,18,20)           109.4713         calculate D2E/DX2 analytically  !
 ! A33   A(19,18,21)           109.4712         calculate D2E/DX2 analytically  !
 ! A34   A(20,18,21)           109.4712         calculate D2E/DX2 analytically  !
 ! D1    D(4,1,2,8)            -44.3152         calculate D2E/DX2 analytically  !
 ! D2    D(4,1,2,10)          -170.1355         calculate D2E/DX2 analytically  !
 ! D3    D(4,1,2,12)            74.6283         calculate D2E/DX2 analytically  !
 ! D4    D(5,1,2,8)             74.9819         calculate D2E/DX2 analytically  !
 ! D5    D(5,1,2,10)           -50.8384         calculate D2E/DX2 analytically  !
 ! D6    D(5,1,2,12)          -166.0746         calculate D2E/DX2 analytically  !
 ! D7    D(6,1,2,8)           -169.6005         calculate D2E/DX2 analytically  !
 ! D8    D(6,1,2,10)            64.5792         calculate D2E/DX2 analytically  !
 ! D9    D(6,1,2,12)           -50.657          calculate D2E/DX2 analytically  !
 ! D10   D(2,1,4,7)           -101.8218         calculate D2E/DX2 analytically  !
 ! D11   D(2,1,4,14)            77.9396         calculate D2E/DX2 analytically  !
 ! D12   D(5,1,4,7)            152.224          calculate D2E/DX2 analytically  !
 ! D13   D(5,1,4,14)           -28.0146         calculate D2E/DX2 analytically  !
 ! D14   D(6,1,4,7)             10.4789         calculate D2E/DX2 analytically  !
 ! D15   D(6,1,4,14)          -169.7598         calculate D2E/DX2 analytically  !
 ! D16   D(1,2,8,9)             72.2242         calculate D2E/DX2 analytically  !
 ! D17   D(1,2,8,22)          -102.4047         calculate D2E/DX2 analytically  !
 ! D18   D(10,2,8,9)          -172.9546         calculate D2E/DX2 analytically  !
 ! D19   D(10,2,8,22)           12.4165         calculate D2E/DX2 analytically  !
 ! D20   D(12,2,8,9)           -33.1872         calculate D2E/DX2 analytically  !
 ! D21   D(12,2,8,22)          152.1839         calculate D2E/DX2 analytically  !
 ! D22   D(11,3,9,8)          -172.0809         calculate D2E/DX2 analytically  !
 ! D23   D(11,3,9,17)           -3.4242         calculate D2E/DX2 analytically  !
 ! D24   D(13,3,9,8)            14.4967         calculate D2E/DX2 analytically  !
 ! D25   D(13,3,9,17)         -176.8465         calculate D2E/DX2 analytically  !
 ! D26   D(1,4,14,15)           -6.9794         calculate D2E/DX2 analytically  !
 ! D27   D(1,4,14,16)          175.6364         calculate D2E/DX2 analytically  !
 ! D28   D(7,4,14,15)          172.7874         calculate D2E/DX2 analytically  !
 ! D29   D(7,4,14,16)           -4.5968         calculate D2E/DX2 analytically  !
 ! D30   D(2,8,9,3)             -3.3534         calculate D2E/DX2 analytically  !
 ! D31   D(2,8,9,17)          -172.5487         calculate D2E/DX2 analytically  !
 ! D32   D(22,8,9,3)           171.832          calculate D2E/DX2 analytically  !
 ! D33   D(22,8,9,17)            2.6367         calculate D2E/DX2 analytically  !
 ! D34   D(3,9,17,18)           27.8559         calculate D2E/DX2 analytically  !
 ! D35   D(8,9,17,18)         -162.7082         calculate D2E/DX2 analytically  !
 ! D36   D(9,17,18,19)         166.3799         calculate D2E/DX2 analytically  !
 ! D37   D(9,17,18,20)         -73.6201         calculate D2E/DX2 analytically  !
 ! D38   D(9,17,18,21)          46.3799         calculate D2E/DX2 analytically  !
 --------------------------------------------------------------------------------
 Trust Radius=3.00D-01 FncErr=1.00D-07 GrdErr=1.00D-06 EigMax=2.50D+02 EigMin=1.00D-04
 Number of steps in this run=    103 maximum allowed number of steps=    132.
 Search for a saddle point of order  1.
 GradGradGradGradGradGradGradGradGradGradGradGradGradGradGradGradGradGrad

                          Input orientation:                          
 ---------------------------------------------------------------------
 Center     Atomic      Atomic             Coordinates (Angstroms)
 Number     Number       Type             X           Y           Z
 ---------------------------------------------------------------------
      1          6           0       -0.892267   -1.197547    1.224135
      2          6           0        0.539899    0.151552    1.457718
      3          6           0       -1.270803    1.942485    0.091217
      4          6           0       -1.932399   -0.759725    0.400445
      5          1           0       -0.224527   -1.926373    0.775528
      6          1           0       -1.091801   -1.353571    2.281513
      7          1           0       -2.883796   -0.409916    0.784870
      8          6           0        0.839562    0.722757    0.217597
      9          6           0       -0.060126    1.631199   -0.420681
     10          1           0        1.300652   -0.439746    1.956554
     11          1           0       -1.976553    2.534195   -0.482423
     12          1           0       -0.031637    0.779796    2.130228
     13          1           0       -1.553307    1.715907    1.111349
     14          6           0       -1.673717   -0.790886   -1.010963
     15          8           0       -0.562334   -1.058664   -1.468103
     16          1           0       -2.504908   -0.520009   -1.691167
     17          8           0        0.289018    2.011558   -1.754220
     18          6           0       -0.432755    3.191021   -2.118652
     19          1           0       -0.006836    3.609787   -3.006418
     20          1           0       -1.457453    2.940847   -2.298394
     21          1           0       -0.374044    3.904963   -1.323832
     22          1           0        1.616754    0.497818   -0.324129
 ---------------------------------------------------------------------
                    Distance matrix (angstroms):
                    1          2          3          4          5
     1  C    0.000000
     2  C    1.981345   0.000000
     3  C    3.359553   2.890226   0.000000
     4  C    1.397150   2.839104   2.799155   0.000000
     5  H    1.085501   2.316787   4.065838   2.102042   0.000000
     6  H    1.087293   2.367800   3.961493   2.144219   1.829824
     7  H    2.186208   3.534071   2.935420   1.084115   3.061281
     8  C    2.774873   1.397846   2.440768   3.148802   2.908859
     9  C    3.376342   2.465313   1.350806   3.145818   3.756895
    10  H    2.433022   1.084996   3.970754   3.602288   2.435375
    11  H    4.244280   3.971607   1.085019   3.410471   4.954665
    12  H    2.339140   1.083334   2.654231   2.995859   3.032453
    13  H    2.989634   2.636037   1.082504   2.603430   3.891611
    14  C    2.402436   3.447125   2.974636   1.435256   2.565352
    15  O    2.715933   3.352606   3.455474   2.336218   2.429179
    16  H    3.399802   4.431402   3.280821   2.181759   3.641783
    17  O    4.534797   3.720095   2.417323   4.154189   4.708572
    18  C    5.535784   4.793209   2.672955   4.919672   5.882802
    19  H    6.464675   5.673343   3.738028   5.865760   6.708172
    20  H    5.463877   5.087038   2.596499   4.604730   5.887184
    21  H    5.726806   4.760295   2.580283   5.211614   6.199528
    22  H    3.400966   2.110567   3.255390   3.834437   3.236705
                    6          7          8          9         10
     6  H    0.000000
     7  H    2.518267   0.000000
     8  C    3.507285   3.932956   0.000000
     9  C    4.156327   3.686817   1.429022   0.000000
    10  H    2.581570   4.345496   2.141959   3.433916   0.000000
    11  H    4.851479   3.331203   3.420795   2.119412   5.053020
    12  H    2.387067   3.370492   2.102474   2.689393   1.814508
    13  H    3.317223   2.529014   2.740613   2.141000   3.675091
    14  C    3.390522   2.198737   3.180730   2.969614   4.216198
    15  O    3.798279   3.299386   2.824953   2.929961   3.947411
    16  H    4.298126   2.507277   4.046397   3.495539   5.272058
    17  O    5.433037   4.730461   2.419125   1.430000   4.560936
    18  C    6.359962   5.234958   3.628936   2.335595   5.726646
    19  H    7.333095   6.229669   4.409717   3.256330   6.537533
    20  H    6.288981   4.771644   4.065269   2.682072   6.094271
    21  H    6.416064   5.418825   3.738352   2.466623   5.695791
    22  H    4.189663   4.723220   0.973700   2.026278   2.486053
                   11         12         13         14         15
    11  H    0.000000
    12  H    3.699535   0.000000
    13  H    1.840881   2.056672   0.000000
    14  C    3.380418   3.876925   3.286749   0.000000
    15  O    3.984999   4.075483   3.915845   1.231200   0.000000
    16  H    3.326918   4.733880   3.709307   1.107669   2.028177
    17  O    2.650175   4.087663   3.419511   3.501207   3.198895
    18  C    2.343497   4.901825   3.723507   4.315385   4.301143
    19  H    3.377460   5.864691   4.788983   5.111385   4.946658
    20  H    1.931989   5.129891   3.624364   3.953490   4.181712
    21  H    2.270465   4.670593   3.480336   4.882421   4.969292
    22  H    4.133249   2.969945   3.686953   3.599958   2.911999
                   16         17         18         19         20
    16  H    0.000000
    17  O    3.770786   0.000000
    18  C    4.271803   1.430000   0.000000
    19  H    5.002545   2.051796   1.070000   0.000000
    20  H    3.666526   2.051796   1.070000   1.747303   0.000000
    21  H    4.925028   2.051796   1.070000   1.747303   1.747303
    22  H    4.460142   2.469707   3.830685   4.417587   4.395096
                   21         22
    21  H    0.000000
    22  H    4.070789   0.000000
 Stoichiometry    C8H12O2
 Framework group  C1[X(C8H12O2)]
 Deg. of freedom    60
 Full point group                 C1      NOp   1
 Largest Abelian subgroup         C1      NOp   1
 Largest concise Abelian subgroup C1      NOp   1
                         Standard orientation:                         
 ---------------------------------------------------------------------
 Center     Atomic      Atomic             Coordinates (Angstroms)
 Number     Number       Type             X           Y           Z
 ---------------------------------------------------------------------
      1          6           0        2.422570    0.253325    0.204471
      2          6           0        1.220727    1.768132   -0.227574
      3          6           0       -0.739022    0.332164    1.337925
      4          6           0        1.766512   -0.808696    0.831948
      5          1           0        2.689148    0.081762   -0.833708
      6          1           0        3.150362    0.828085    0.772076
      7          1           0        1.821138   -0.989554    1.899474
      8          6           0        0.035380    1.271641   -0.777503
      9          6           0       -0.931872    0.593658    0.026778
     10          1           0        1.869795    2.375110   -0.850073
     11          1           0       -1.436687   -0.294400    1.883770
     12          1           0        1.144244    2.121574    0.793622
     13          1           0        0.039317    0.805012    1.923090
     14          6           0        0.994896   -1.665483   -0.022736
     15          8           0        0.809817   -1.409981   -1.212827
     16          1           0        0.524366   -2.557805    0.434752
     17          8           0       -2.016279   -0.006846   -0.686213
     18          6           0       -3.086860   -0.285990    0.219787
     19          1           0       -3.974262   -0.509460   -0.334720
     20          1           0       -2.827334   -1.125112    0.830869
     21          1           0       -3.260046    0.567733    0.841128
     22          1           0       -0.182326    1.279165   -1.726523
 ---------------------------------------------------------------------
 Rotational constants (GHZ):           2.0431802           1.0207442           0.8910547
 Standard basis: 6-31G(d) (6D, 7F)
 There are   174 symmetry adapted cartesian basis functions of A   symmetry.
 There are   174 symmetry adapted basis functions of A   symmetry.
   174 basis functions,   328 primitive gaussians,   174 cartesian basis functions
    38 alpha electrons       38 beta electrons
       nuclear repulsion energy       542.3594426582 Hartrees.
 NAtoms=   22 NActive=   22 NUniq=   22 SFac= 1.00D+00 NAtFMM=   60 NAOKFM=F Big=F
 Integral buffers will be    131072 words long.
 Raffenetti 2 integral format.
 Two-electron integral symmetry is turned on.
 One-electron integrals computed using PRISM.
 NBasis=   174 RedAO= T EigKep=  1.88D-03  NBF=   174
 NBsUse=   174 1.00D-06 EigRej= -1.00D+00 NBFU=   174
 ExpMin= 1.61D-01 ExpMax= 5.48D+03 ExpMxC= 8.25D+02 IAcc=3 IRadAn=         5 AccDes= 0.00D+00
 Harris functional with IExCor= 1009 and IRadAn=       5 diagonalized for initial guess.
 HarFok:  IExCor= 1009 AccDes= 0.00D+00 IRadAn=         5 IDoV= 1 UseB2=F ITyADJ=14
 ICtDFT=  3500011 ScaDFX=  1.000000  1.000000  1.000000  1.000000
 FoFCou: FMM=F IPFlag=           0 FMFlag=      100000 FMFlg1=           0
         NFxFlg=           0 DoJE=T BraDBF=F KetDBF=T FulRan=T
         wScrn=  0.000000 ICntrl=       500 IOpCl=  0 I1Cent=   200000004 NGrid=           0
         NMat0=    1 NMatS0=      1 NMatT0=    0 NMatD0=    1 NMtDS0=    0 NMtDT0=    0
 Petite list used in FoFCou.
 Requested convergence on RMS density matrix=1.00D-08 within 128 cycles.
 Requested convergence on MAX density matrix=1.00D-06.
 Requested convergence on             energy=1.00D-06.
 No special actions if energy rises.
 Integral accuracy reduced to 1.0D-05 until final iterations.
 Initial convergence to 1.0D-05 achieved.  Increase integral accuracy.
 SCF Done:  E(RM062X) =  -462.158530815     A.U. after   17 cycles
            NFock= 17  Conv=0.54D-08     -V/T= 2.0081
 DoSCS=F DFT=T ScalE2(SS,OS)=  1.000000  1.000000
 Range of M.O.s used for correlation:     1   174
 NBasis=   174 NAE=    38 NBE=    38 NFC=     0 NFV=     0
 NROrb=    174 NOA=    38 NOB=    38 NVA=   136 NVB=   136
 Symmetrizing basis deriv contribution to polar:
 IMax=3 JMax=2 DiffMx= 0.00D+00
 G2DrvN: will do    23 centers at a time, making    1 passes.
 Calling FoFCou, ICntrl=  3107 FMM=F I1Cent=   0 AccDes= 0.00D+00.
 End of G2Drv F.D. properties file   721 does not exist.
 End of G2Drv F.D. properties file   722 does not exist.
 End of G2Drv F.D. properties file   788 does not exist.
          IDoAtm=1111111111111111111111
          Differentiating once with respect to nuclear coordinates.
 CalDSu exits because no D1Ps are significant.
          There are    69 degrees of freedom in the 1st order CPHF.  IDoFFX=6 NUNeed=     0.
     63 vectors produced by pass  0 Test12= 7.49D-15 1.45D-09 XBig12= 8.85D-02 1.20D-01.
 AX will form    63 AO Fock derivatives at one time.
     63 vectors produced by pass  1 Test12= 7.49D-15 1.45D-09 XBig12= 5.42D-03 2.01D-02.
     63 vectors produced by pass  2 Test12= 7.49D-15 1.45D-09 XBig12= 7.73D-05 1.40D-03.
     63 vectors produced by pass  3 Test12= 7.49D-15 1.45D-09 XBig12= 4.67D-07 1.05D-04.
     63 vectors produced by pass  4 Test12= 7.49D-15 1.45D-09 XBig12= 2.00D-09 5.58D-06.
     63 vectors produced by pass  5 Test12= 7.49D-15 1.45D-09 XBig12= 6.02D-12 2.71D-07.
     33 vectors produced by pass  6 Test12= 7.49D-15 1.45D-09 XBig12= 1.45D-14 1.18D-08.
 InvSVY:  IOpt=1 It=  1 EMax= 3.61D-16
 Solved reduced A of dimension   411 with    69 vectors.
 End of Minotr F.D. properties file   721 does not exist.
 End of Minotr F.D. properties file   722 does not exist.
 End of Minotr F.D. properties file   788 does not exist.

 **********************************************************************

            Population analysis using the SCF Density.

 **********************************************************************

 Orbital symmetries:
       Occupied  (A) (A) (A) (A) (A) (A) (A) (A) (A) (A) (A) (A)
                 (A) (A) (A) (A) (A) (A) (A) (A) (A) (A) (A) (A)
                 (A) (A) (A) (A) (A) (A) (A) (A) (A) (A) (A) (A)
                 (A) (A)
       Virtual   (A) (A) (A) (A) (A) (A) (A) (A) (A) (A) (A) (A)
                 (A) (A) (A) (A) (A) (A) (A) (A) (A) (A) (A) (A)
                 (A) (A) (A) (A) (A) (A) (A) (A) (A) (A) (A) (A)
                 (A) (A) (A) (A) (A) (A) (A) (A) (A) (A) (A) (A)
                 (A) (A) (A) (A) (A) (A) (A) (A) (A) (A) (A) (A)
                 (A) (A) (A) (A) (A) (A) (A) (A) (A) (A) (A) (A)
                 (A) (A) (A) (A) (A) (A) (A) (A) (A) (A) (A) (A)
                 (A) (A) (A) (A) (A) (A) (A) (A) (A) (A) (A) (A)
                 (A) (A) (A) (A) (A) (A) (A) (A) (A) (A) (A) (A)
                 (A) (A) (A) (A) (A) (A) (A) (A) (A) (A) (A) (A)
                 (A) (A) (A) (A) (A) (A) (A) (A) (A) (A) (A) (A)
                 (A) (A) (A) (A)
 The electronic state is 1-A.
 Alpha  occ. eigenvalues --  -19.65836 -19.60617 -10.60778 -10.60422 -10.58343
 Alpha  occ. eigenvalues --  -10.56945 -10.56600 -10.55479 -10.55162 -10.54620
 Alpha  occ. eigenvalues --   -1.15847  -1.12576  -0.92080  -0.86922  -0.82645
 Alpha  occ. eigenvalues --   -0.79742  -0.73791  -0.70596  -0.62022  -0.60282
 Alpha  occ. eigenvalues --   -0.59144  -0.57205  -0.54509  -0.53802  -0.51492
 Alpha  occ. eigenvalues --   -0.49239  -0.48287  -0.46452  -0.46200  -0.45506
 Alpha  occ. eigenvalues --   -0.43740  -0.42309  -0.40835  -0.39100  -0.37444
 Alpha  occ. eigenvalues --   -0.30300  -0.29591  -0.25699
 Alpha virt. eigenvalues --   -0.03752   0.05409   0.10466   0.13583   0.14569
 Alpha virt. eigenvalues --    0.15788   0.16557   0.18597   0.19175   0.20254
 Alpha virt. eigenvalues --    0.21068   0.21881   0.22289   0.24087   0.24550
 Alpha virt. eigenvalues --    0.26979   0.27870   0.31272   0.33077   0.33472
 Alpha virt. eigenvalues --    0.38045   0.39948   0.41312   0.44415   0.53997
 Alpha virt. eigenvalues --    0.56482   0.56649   0.58184   0.60329   0.60764
 Alpha virt. eigenvalues --    0.62205   0.62838   0.64285   0.66092   0.67923
 Alpha virt. eigenvalues --    0.68708   0.69336   0.71118   0.72896   0.76170
 Alpha virt. eigenvalues --    0.78814   0.81645   0.82633   0.85811   0.88662
 Alpha virt. eigenvalues --    0.88682   0.90285   0.92909   0.93354   0.93982
 Alpha virt. eigenvalues --    0.95850   0.96518   0.97447   0.98995   1.00511
 Alpha virt. eigenvalues --    1.02066   1.04011   1.04652   1.05901   1.06930
 Alpha virt. eigenvalues --    1.09726   1.13423   1.15161   1.15976   1.18085
 Alpha virt. eigenvalues --    1.19778   1.20945   1.23626   1.32479   1.33314
 Alpha virt. eigenvalues --    1.35281   1.41555   1.42513   1.44623   1.46658
 Alpha virt. eigenvalues --    1.49357   1.53860   1.57529   1.59322   1.62589
 Alpha virt. eigenvalues --    1.65368   1.71633   1.74154   1.79417   1.82089
 Alpha virt. eigenvalues --    1.85109   1.86056   1.91252   1.92981   1.95426
 Alpha virt. eigenvalues --    1.98475   1.99419   2.01322   2.03835   2.04968
 Alpha virt. eigenvalues --    2.07415   2.12375   2.15629   2.16233   2.19767
 Alpha virt. eigenvalues --    2.20588   2.22212   2.25078   2.27484   2.28245
 Alpha virt. eigenvalues --    2.31545   2.35552   2.39575   2.42353   2.43737
 Alpha virt. eigenvalues --    2.45722   2.49840   2.55740   2.57452   2.59165
 Alpha virt. eigenvalues --    2.60795   2.65665   2.68533   2.70228   2.78669
 Alpha virt. eigenvalues --    2.81603   2.89643   2.98469   3.06343   3.10453
 Alpha virt. eigenvalues --    3.16542   3.98097   4.09648   4.15887   4.25728
 Alpha virt. eigenvalues --    4.29316   4.33231   4.34649   4.47309   4.51383
 Alpha virt. eigenvalues --    4.62121
          Condensed to atoms (all electrons):
               1          2          3          4          5          6
     1  C    5.154579   0.102462  -0.009334   0.479994   0.390335   0.368266
     2  C    0.102462   5.205628  -0.020319  -0.019103  -0.024089  -0.016472
     3  C   -0.009334  -0.020319   5.338393   0.035840   0.000566   0.000305
     4  C    0.479994  -0.019103   0.035840   5.302370  -0.043053  -0.032587
     5  H    0.390335  -0.024089   0.000566  -0.043053   0.485456  -0.030790
     6  H    0.368266  -0.016472   0.000305  -0.032587  -0.030790   0.533858
     7  H   -0.043869   0.000723  -0.001673   0.363499   0.003973  -0.003713
     8  C   -0.027447   0.515408  -0.092990  -0.034270  -0.008176   0.002251
     9  C   -0.008912  -0.028996   0.542139  -0.001937  -0.000075   0.000103
    10  H   -0.011838   0.376446   0.000309   0.001822  -0.002493  -0.000713
    11  H    0.000128   0.000219   0.368794  -0.000487  -0.000003  -0.000002
    12  H   -0.020719   0.378594   0.005673  -0.008646   0.001581  -0.003899
    13  H   -0.001294   0.004087   0.362118  -0.000582   0.000035   0.000044
    14  C   -0.025953  -0.007074   0.001538   0.367129  -0.008766   0.004458
    15  O    0.001615  -0.005418  -0.007552  -0.102055   0.014259   0.000648
    16  H    0.008904  -0.000299   0.000492  -0.118897   0.000760  -0.000061
    17  O    0.000090   0.003149  -0.069969   0.000126   0.000002   0.000000
    18  C   -0.000006  -0.000146  -0.015452  -0.000046  -0.000001  -0.000000
    19  H    0.000000   0.000002   0.000870  -0.000001  -0.000000  -0.000000
    20  H   -0.000005   0.000010  -0.000686  -0.000008   0.000000   0.000000
    21  H    0.000004  -0.000028   0.006196   0.000008  -0.000000  -0.000000
    22  H    0.000419  -0.051139   0.010266  -0.000206   0.000311  -0.000039
               7          8          9         10         11         12
     1  C   -0.043869  -0.027447  -0.008912  -0.011838   0.000128  -0.020719
     2  C    0.000723   0.515408  -0.028996   0.376446   0.000219   0.378594
     3  C   -0.001673  -0.092990   0.542139   0.000309   0.368794   0.005673
     4  C    0.363499  -0.034270  -0.001937   0.001822  -0.000487  -0.008646
     5  H    0.003973  -0.008176  -0.000075  -0.002493  -0.000003   0.001581
     6  H   -0.003713   0.002251   0.000103  -0.000713  -0.000002  -0.003899
     7  H    0.538455   0.000111   0.000202  -0.000033   0.000085   0.000296
     8  C    0.000111   4.887839   0.544110  -0.025455   0.004827  -0.032423
     9  C    0.000202   0.544110   4.445449   0.003181  -0.030005  -0.012716
    10  H   -0.000033  -0.025455   0.003181   0.505042  -0.000003  -0.033501
    11  H    0.000085   0.004827  -0.030005  -0.000003   0.517588  -0.000049
    12  H    0.000296  -0.032423  -0.012716  -0.033501  -0.000049   0.526251
    13  H    0.000196  -0.009960  -0.015281   0.000058  -0.031834   0.003922
    14  C   -0.024587  -0.006346   0.000669   0.000025  -0.000136   0.000136
    15  O    0.002892   0.023812  -0.003144  -0.000041   0.000023   0.000167
    16  H    0.001027   0.000406  -0.000806   0.000001   0.000194   0.000007
    17  O   -0.000003  -0.047395   0.259195  -0.000034  -0.008434  -0.000017
    18  C   -0.000001   0.003702  -0.047435   0.000002   0.003479  -0.000002
    19  H    0.000000  -0.000030   0.004561  -0.000000   0.000052   0.000000
    20  H   -0.000000  -0.000444  -0.008523   0.000000   0.001659  -0.000000
    21  H    0.000000   0.000673  -0.006434   0.000000  -0.000164  -0.000006
    22  H   -0.000000   0.365201  -0.027139  -0.004632  -0.000171   0.004564
              13         14         15         16         17         18
     1  C   -0.001294  -0.025953   0.001615   0.008904   0.000090  -0.000006
     2  C    0.004087  -0.007074  -0.005418  -0.000299   0.003149  -0.000146
     3  C    0.362118   0.001538  -0.007552   0.000492  -0.069969  -0.015452
     4  C   -0.000582   0.367129  -0.102055  -0.118897   0.000126  -0.000046
     5  H    0.000035  -0.008766   0.014259   0.000760   0.000002  -0.000001
     6  H    0.000044   0.004458   0.000648  -0.000061   0.000000  -0.000000
     7  H    0.000196  -0.024587   0.002892   0.001027  -0.000003  -0.000001
     8  C   -0.009960  -0.006346   0.023812   0.000406  -0.047395   0.003702
     9  C   -0.015281   0.000669  -0.003144  -0.000806   0.259195  -0.047435
    10  H    0.000058   0.000025  -0.000041   0.000001  -0.000034   0.000002
    11  H   -0.031834  -0.000136   0.000023   0.000194  -0.008434   0.003479
    12  H    0.003922   0.000136   0.000167   0.000007  -0.000017  -0.000002
    13  H    0.513986  -0.000712   0.000022   0.000082   0.002790   0.000127
    14  C   -0.000712   4.568465   0.523103   0.378271   0.000731  -0.000152
    15  O    0.000022   0.523103   8.072662  -0.056339  -0.000632   0.000084
    16  H    0.000082   0.378271  -0.056339   0.672908  -0.000000  -0.000048
    17  O    0.002790   0.000731  -0.000632  -0.000000   8.270711   0.229977
    18  C    0.000127  -0.000152   0.000084  -0.000048   0.229977   4.920525
    19  H   -0.000006  -0.000003   0.000001  -0.000001  -0.028433   0.388676
    20  H   -0.000011   0.000128  -0.000004   0.000157  -0.039499   0.382929
    21  H   -0.000006   0.000010   0.000002   0.000000  -0.036840   0.375977
    22  H   -0.000091  -0.000167   0.001711   0.000004  -0.000754  -0.000127
              19         20         21         22
     1  C    0.000000  -0.000005   0.000004   0.000419
     2  C    0.000002   0.000010  -0.000028  -0.051139
     3  C    0.000870  -0.000686   0.006196   0.010266
     4  C   -0.000001  -0.000008   0.000008  -0.000206
     5  H   -0.000000   0.000000  -0.000000   0.000311
     6  H   -0.000000   0.000000  -0.000000  -0.000039
     7  H    0.000000  -0.000000   0.000000  -0.000000
     8  C   -0.000030  -0.000444   0.000673   0.365201
     9  C    0.004561  -0.008523  -0.006434  -0.027139
    10  H   -0.000000   0.000000   0.000000  -0.004632
    11  H    0.000052   0.001659  -0.000164  -0.000171
    12  H    0.000000  -0.000000  -0.000006   0.004564
    13  H   -0.000006  -0.000011  -0.000006  -0.000091
    14  C   -0.000003   0.000128   0.000010  -0.000167
    15  O    0.000001  -0.000004   0.000002   0.001711
    16  H   -0.000001   0.000157   0.000000   0.000004
    17  O   -0.028433  -0.039499  -0.036840  -0.000754
    18  C    0.388676   0.382929   0.375977  -0.000127
    19  H    0.508699  -0.033212  -0.026821  -0.000028
    20  H   -0.033212   0.586176  -0.050259   0.000045
    21  H   -0.026821  -0.050259   0.574911   0.000040
    22  H   -0.000028   0.000045   0.000040   0.514740
 Mulliken charges:
               1
     1  C   -0.357420
     2  C   -0.413644
     3  C   -0.455526
     4  C   -0.188912
     5  H    0.220169
     6  H    0.178343
     7  H    0.162421
     8  C   -0.063401
     9  C    0.391794
    10  H    0.191858
    11  H    0.174240
    12  H    0.190788
    13  H    0.172311
    14  C    0.229231
    15  O   -0.465817
    16  H    0.113239
    17  O   -0.534762
    18  C   -0.242063
    19  H    0.185673
    20  H    0.161547
    21  H    0.162738
    22  H    0.187192
 Sum of Mulliken charges =  -0.00000
 Mulliken charges with hydrogens summed into heavy atoms:
               1
     1  C    0.041092
     2  C   -0.030998
     3  C   -0.108975
     4  C   -0.026491
     8  C    0.123790
     9  C    0.391794
    14  C    0.342471
    15  O   -0.465817
    17  O   -0.534762
    18  C    0.267895
 APT charges:
               1
     1  C   -1.006074
     2  C   -0.877150
     3  C   -0.770286
     4  C   -0.473181
     5  H    0.448739
     6  H    0.622816
     7  H    0.504922
     8  C   -0.394622
     9  C   -0.044812
    10  H    0.653495
    11  H    0.495911
    12  H    0.412232
    13  H    0.410901
    14  C   -0.295894
    15  O   -0.376201
    16  H    0.404454
    17  O   -0.340121
    18  C   -1.230418
    19  H    0.751925
    20  H    0.276813
    21  H    0.378288
    22  H    0.448261
 Sum of APT charges =  -0.00000
 APT charges with hydrogens summed into heavy atoms:
               1
     1  C    0.065481
     2  C    0.188576
     3  C    0.136526
     4  C    0.031741
     8  C    0.053639
     9  C   -0.044812
    14  C    0.108560
    15  O   -0.376201
    17  O   -0.340121
    18  C    0.176609
 Electronic spatial extent (au):  <R**2>=           1481.0391
 Charge=             -0.0000 electrons
 Dipole moment (field-independent basis, Debye):
    X=              0.0163    Y=              1.8190    Z=              3.2862  Tot=              3.7561
 Quadrupole moment (field-independent basis, Debye-Ang):
   XX=            -52.8914   YY=            -59.8671   ZZ=            -60.9287
   XY=              4.8012   XZ=             -1.0437   YZ=             -4.6357
 Traceless Quadrupole moment (field-independent basis, Debye-Ang):
   XX=              5.0043   YY=             -1.9714   ZZ=             -3.0330
   XY=              4.8012   XZ=             -1.0437   YZ=             -4.6357
 Octapole moment (field-independent basis, Debye-Ang**2):
  XXX=            -24.0894  YYY=             -6.1046  ZZZ=             -1.4304  XYY=              1.5903
  XXY=              1.2852  XXZ=              2.8503  XZZ=              0.1760  YZZ=              4.9685
  YYZ=              2.0053  XYZ=             -1.1130
 Hexadecapole moment (field-independent basis, Debye-Ang**3):
 XXXX=          -1058.3670 YYYY=           -488.4561 ZZZZ=           -290.7331 XXXY=             34.2554
 XXXZ=             -9.1738 YYYX=              9.8846 YYYZ=             -4.3823 ZZZX=              5.7700
 ZZZY=             -7.0613 XXYY=           -270.1272 XXZZ=           -239.8765 YYZZ=           -133.2126
 XXYZ=              0.9068 YYXZ=              2.1869 ZZXY=              6.9249
 N-N= 5.423594426582D+02 E-N=-2.161231981733D+03  KE= 4.584263007130D+02
  Exact polarizability:       0.000       0.000       0.000       0.000       0.000       0.000
 Approx polarizability:     138.913      -3.448     125.293       6.713     -14.101     125.444
 Calling FoFJK, ICntrl=    100127 FMM=F ISym2X=0 I1Cent= 0 IOpClX= 0 NMat=1 NMatS=1 NMatT=0.
 ***** Axes restored to original set *****
 -------------------------------------------------------------------
 Center     Atomic                   Forces (Hartrees/Bohr)
 Number     Number              X              Y              Z
 -------------------------------------------------------------------
      1        6          -0.006471343   -0.003728946   -0.000131704
      2        6           0.004326108    0.012217321   -0.010930111
      3        6          -0.012785200    0.002227574    0.004279761
      4        6           0.007530373    0.000002908    0.009993432
      5        1           0.001666776    0.001847623   -0.000938050
      6        1          -0.000681879    0.000460987   -0.000019333
      7        1          -0.000128352    0.000364362   -0.000147395
      8        6          -0.087195229    0.030070888    0.053992334
      9        6           0.009082815   -0.004557794   -0.029781251
     10        1           0.000587462   -0.001687567   -0.001722141
     11        1          -0.001196755   -0.003067145    0.005820364
     12        1          -0.003208201   -0.002372921    0.002835556
     13        1           0.003626252    0.000941354   -0.000888077
     14        6           0.005991240    0.001464939   -0.011610932
     15        8          -0.005835660   -0.000343920    0.003763950
     16        1           0.000410630    0.000590286    0.000332341
     17        8          -0.009491276    0.004448347    0.041981737
     18        6           0.013703676   -0.019329535   -0.001137057
     19        1           0.009160676    0.000774676   -0.013126152
     20        1          -0.016648023   -0.000633393   -0.007098475
     21        1          -0.000244606    0.013887093    0.011437632
     22        1           0.087800516   -0.033577135   -0.056906430
 -------------------------------------------------------------------
 Cartesian Forces:  Max     0.087800516 RMS     0.020902675
 FormGI is forming the generalized inverse of G from B-inverse, IUseBI=4.

 GradGradGradGradGradGradGradGradGradGradGradGradGradGradGradGradGradGrad
 Berny optimization.
 Internal  Forces:  Max     0.109497857 RMS     0.014405955
 Search for a saddle point.
 Step number   1 out of a maximum of  103
 All quantities printed in internal units (Hartrees-Bohrs-Radians)
 Swapping is turned off.
 Second derivative matrix not updated -- analytic derivatives used.
 ITU=  0
     Eigenvalues ---   -0.03790  -0.00459   0.00386   0.00611   0.01307
     Eigenvalues ---    0.01400   0.01770   0.02098   0.02322   0.02580
     Eigenvalues ---    0.02751   0.03518   0.03841   0.04024   0.04873
     Eigenvalues ---    0.05213   0.06251   0.06277   0.07786   0.08373
     Eigenvalues ---    0.09106   0.09256   0.09461   0.10590   0.10947
     Eigenvalues ---    0.11712   0.12532   0.13624   0.13943   0.15689
     Eigenvalues ---    0.17193   0.18022   0.19069   0.19633   0.22665
     Eigenvalues ---    0.23642   0.25334   0.26988   0.30759   0.32352
     Eigenvalues ---    0.33308   0.36247   0.36475   0.36771   0.37022
     Eigenvalues ---    0.37422   0.37499   0.37899   0.38285   0.39446
     Eigenvalues ---    0.39773   0.40085   0.41626   0.49394   0.51019
     Eigenvalues ---    0.60628   0.62436   0.69461   0.81453   0.86453
 Eigenvectors required to have negative eigenvalues:
                          R1        D20       D12       D24       D21
   1                   -0.71335  -0.24261  -0.21952   0.21544  -0.18165
                          D15       A2        R2        R5        D25
   1                    0.17068   0.16514   0.13655   0.12916   0.12724
 RFO step:  Lambda0=4.473607700D-04 Lambda=-3.59179842D-02.
 Linear search not attempted -- option 19 set.
 Maximum step size (   0.300) exceeded in Quadratic search.
    -- Step size scaled by   0.762
 Iteration  1 RMS(Cart)=  0.13229590 RMS(Int)=  0.04295494
 Iteration  2 RMS(Cart)=  0.10250265 RMS(Int)=  0.01412956
 Iteration  3 RMS(Cart)=  0.04477041 RMS(Int)=  0.00128452
 Iteration  4 RMS(Cart)=  0.00176492 RMS(Int)=  0.00023488
 Iteration  5 RMS(Cart)=  0.00000230 RMS(Int)=  0.00023488
 Iteration  6 RMS(Cart)=  0.00000000 RMS(Int)=  0.00023488
 Variable       Old X    -DE/DX   Delta X   Delta X   Delta X     New X
                                 (Linear)    (Quad)   (Total)
    R1        3.74420  -0.00239   0.00000  -0.12785  -0.12785   3.61635
    R2        2.64023  -0.00666   0.00000   0.01238   0.01238   2.65261
    R3        2.05130   0.00017   0.00000   0.00149   0.00149   2.05279
    R4        2.05469   0.00004   0.00000   0.00068   0.00068   2.05536
    R5        2.64155  -0.01211   0.00000   0.00322   0.00322   2.64476
    R6        2.05034   0.00054   0.00000   0.00233   0.00233   2.05268
    R7        2.04721   0.00208   0.00000   0.00452   0.00452   2.05173
    R8        2.55265   0.01280   0.00000   0.02905   0.02905   2.58170
    R9        2.05039  -0.00397   0.00000  -0.00583  -0.00583   2.04456
   R10        2.04564  -0.00198   0.00000  -0.00611  -0.00611   2.03952
   R11        2.04868   0.00018   0.00000   0.00011   0.00011   2.04879
   R12        2.71224   0.00745   0.00000   0.00735   0.00735   2.71959
   R13        2.70046  -0.00548   0.00000  -0.02197  -0.02197   2.67849
   R14        1.84003   0.10950   0.00000   0.11385   0.11385   1.95388
   R15        2.70231  -0.03098   0.00000  -0.12585  -0.12585   2.57646
   R16        2.32663  -0.00659   0.00000  -0.00475  -0.00475   2.32189
   R17        2.09319  -0.00037   0.00000   0.00115   0.00115   2.09434
   R18        2.70231  -0.00485   0.00000  -0.04352  -0.04352   2.65879
   R19        2.02201   0.01484   0.00000   0.02325   0.02325   2.04526
   R20        2.02201   0.01729   0.00000   0.03750   0.03750   2.05951
   R21        2.02201   0.01775   0.00000   0.03477   0.03477   2.05678
    A1        1.97605  -0.01309   0.00000  -0.01206  -0.01195   1.96409
    A2        1.63208   0.00215   0.00000   0.03431   0.03427   1.66636
    A3        1.68677   0.00565   0.00000   0.02743   0.02738   1.71414
    A4        2.00944   0.00194   0.00000  -0.01157  -0.01166   1.99778
    A5        2.07336   0.00203   0.00000  -0.01417  -0.01428   2.05909
    A6        2.00253  -0.00027   0.00000  -0.00458  -0.00556   1.99697
    A7        1.90562  -0.00973   0.00000   0.00268   0.00264   1.90826
    A8        1.76190   0.00401   0.00000   0.01432   0.01434   1.77624
    A9        1.65761  -0.00040   0.00000   0.01471   0.01455   1.67216
   A10        2.07176   0.00048   0.00000  -0.02329  -0.02332   2.04844
   A11        2.01181   0.00457   0.00000   0.01577   0.01561   2.02742
   A12        1.98291  -0.00069   0.00000  -0.01291  -0.01309   1.96982
   A13        2.10400   0.00913   0.00000   0.04451   0.04393   2.14793
   A14        2.14455  -0.00739   0.00000  -0.04457  -0.04514   2.09941
   A15        2.02932  -0.00181   0.00000  -0.00610  -0.00668   2.02264
   A16        2.14765   0.00016   0.00000  -0.00032  -0.00037   2.14728
   A17        2.02503   0.00016   0.00000   0.00445   0.00440   2.02943
   A18        2.11050  -0.00032   0.00000  -0.00406  -0.00410   2.10640
   A19        2.11889  -0.00442   0.00000   0.00090   0.00063   2.11952
   A20        2.17766  -0.00536   0.00000  -0.03672  -0.03691   2.14075
   A21        1.98328   0.00958   0.00000   0.03263   0.03231   2.01558
   A22        2.14302  -0.00369   0.00000  -0.02833  -0.02841   2.11462
   A23        2.10706   0.02641   0.00000   0.07714   0.07715   2.18421
   A24        2.01739  -0.02260   0.00000  -0.04521  -0.04531   1.97208
   A25        2.13240  -0.00218   0.00000  -0.00474  -0.00474   2.12766
   A26        2.05254   0.00100   0.00000  -0.00125  -0.00125   2.05129
   A27        2.09734   0.00122   0.00000   0.00616   0.00615   2.10349
   A28        1.91114   0.05204   0.00000   0.10690   0.10690   2.01803
   A29        1.91063  -0.01232   0.00000  -0.03753  -0.03751   1.87313
   A30        1.91063   0.00727   0.00000   0.00854   0.00845   1.91908
   A31        1.91063   0.00623   0.00000   0.02020   0.02016   1.93079
   A32        1.91063  -0.00184   0.00000   0.00862   0.00859   1.91923
   A33        1.91063   0.00114   0.00000   0.00081   0.00089   1.91152
   A34        1.91063  -0.00048   0.00000  -0.00064  -0.00079   1.90985
    D1       -0.77345  -0.00097   0.00000  -0.01921  -0.01923  -0.79268
    D2       -2.96942   0.00096   0.00000  -0.00150  -0.00147  -2.97089
    D3        1.30251   0.00103   0.00000   0.00544   0.00543   1.30794
    D4        1.30868  -0.00171   0.00000  -0.01799  -0.01827   1.29042
    D5       -0.88730   0.00022   0.00000  -0.00028  -0.00050  -0.88780
    D6       -2.89855   0.00028   0.00000   0.00666   0.00639  -2.89216
    D7       -2.96009  -0.00095   0.00000  -0.01383  -0.01360  -2.97369
    D8        1.12712   0.00098   0.00000   0.00388   0.00416   1.13128
    D9       -0.88413   0.00104   0.00000   0.01082   0.01106  -0.87308
   D10       -1.77712  -0.00047   0.00000   0.00162   0.00160  -1.77552
   D11        1.36030  -0.00162   0.00000   0.01922   0.01922   1.37952
   D12        2.65681   0.00372   0.00000  -0.02711  -0.02701   2.62980
   D13       -0.48895   0.00257   0.00000  -0.00951  -0.00940  -0.49835
   D14        0.18289  -0.00162   0.00000   0.01913   0.01903   0.20192
   D15       -2.96287  -0.00276   0.00000   0.03673   0.03664  -2.92622
   D16        1.26055  -0.00233   0.00000  -0.02940  -0.02902   1.23153
   D17       -1.78730   0.00006   0.00000   0.01324   0.01299  -1.77431
   D18       -3.01863  -0.00423   0.00000  -0.02348  -0.02320  -3.04183
   D19        0.21671  -0.00184   0.00000   0.01916   0.01881   0.23552
   D20       -0.57923   0.00162   0.00000  -0.05650  -0.05621  -0.63543
   D21        2.65611   0.00400   0.00000  -0.01386  -0.01420   2.64191
   D22       -3.00338   0.00158   0.00000  -0.02269  -0.02289  -3.02627
   D23       -0.05976  -0.00012   0.00000  -0.00491  -0.00463  -0.06440
   D24        0.25302   0.00236   0.00000   0.04382   0.04354   0.29655
   D25       -3.08655   0.00066   0.00000   0.06160   0.06179  -3.02476
   D26       -0.12181   0.00217   0.00000   0.01903   0.01905  -0.10277
   D27        3.06543   0.00122   0.00000   0.01472   0.01474   3.08017
   D28        3.01571   0.00106   0.00000   0.03624   0.03623   3.05194
   D29       -0.08023   0.00011   0.00000   0.03193   0.03192  -0.04831
   D30       -0.05853   0.00209   0.00000   0.02235   0.02250  -0.03603
   D31       -3.01154  -0.00136   0.00000  -0.00745  -0.00662  -3.01817
   D32        2.99903  -0.00071   0.00000  -0.01920  -0.02003   2.97900
   D33        0.04602  -0.00416   0.00000  -0.04900  -0.04916  -0.00314
   D34        0.48618  -0.00068   0.00000  -0.49443  -0.49457  -0.00839
   D35       -2.83979  -0.00068   0.00000  -0.47727  -0.47713   2.96626
   D36        2.90388  -0.00011   0.00000   0.14882   0.14873   3.05261
   D37       -1.28491  -0.00546   0.00000   0.14161   0.14151  -1.14340
   D38        0.80948   0.00223   0.00000   0.15843   0.15861   0.96810
         Item               Value     Threshold  Converged?
 Maximum Force            0.109498     0.000450     NO 
 RMS     Force            0.014406     0.000300     NO 
 Maximum Displacement     1.171872     0.001800     NO 
 RMS     Displacement     0.262113     0.001200     NO 
 Predicted change in Energy=-2.290868D-02
 GradGradGradGradGradGradGradGradGradGradGradGradGradGradGradGradGradGrad

                          Input orientation:                          
 ---------------------------------------------------------------------
 Center     Atomic      Atomic             Coordinates (Angstroms)
 Number     Number       Type             X           Y           Z
 ---------------------------------------------------------------------
      1          6           0       -0.879862   -1.162013    1.119929
      2          6           0        0.523029    0.085739    1.490352
      3          6           0       -1.241634    1.973322    0.276978
      4          6           0       -1.903686   -0.603949    0.338444
      5          1           0       -0.249567   -1.873539    0.594106
      6          1           0       -1.114489   -1.440758    2.144738
      7          1           0       -2.849373   -0.272712    0.752442
      8          6           0        0.860693    0.765813    0.314675
      9          6           0       -0.015146    1.716272   -0.267166
     10          1           0        1.280288   -0.556549    1.930716
     11          1           0       -1.975056    2.612771   -0.196076
     12          1           0       -0.029521    0.655572    2.231152
     13          1           0       -1.460919    1.674324    1.290554
     14          6           0       -1.644490   -0.503144   -1.073573
     15          8           0       -0.549384   -0.784447   -1.554499
     16          1           0       -2.461006   -0.121149   -1.718290
     17          8           0        0.412634    2.160206   -1.483225
     18          6           0       -0.512870    2.932227   -2.209171
     19          1           0       -0.009291    3.286069   -3.099443
     20          1           0       -1.371597    2.320719   -2.485592
     21          1           0       -0.849068    3.782774   -1.619121
     22          1           0        1.696938    0.529900   -0.245759
 ---------------------------------------------------------------------
                    Distance matrix (angstroms):
                    1          2          3          4          5
     1  C    0.000000
     2  C    1.913688   0.000000
     3  C    3.266768   2.854695   0.000000
     4  C    1.403699   2.773357   2.661656   0.000000
     5  H    1.086292   2.288871   3.985361   2.100793   0.000000
     6  H    1.087650   2.332355   3.893666   2.141444   1.827526
     7  H    2.192002   3.470748   2.802777   1.084175   3.057238
     8  C    2.719280   1.399549   2.424722   3.085223   2.876966
     9  C    3.310029   2.457060   1.366177   3.052338   3.699119
    10  H    2.385416   1.086229   3.936393   3.560234   2.421042
    11  H    4.144914   3.933238   1.081935   3.261608   4.871208
    12  H    2.293799   1.085729   2.650373   2.946393   3.020719
    13  H    2.900268   2.549426   1.079269   2.508602   3.813102
    14  C    2.414584   3.408612   2.849415   1.439145   2.570009
    15  O    2.721091   3.343413   3.382130   2.334512   2.427450
    16  H    3.411584   4.386645   3.139231   2.184916   3.648083
    17  O    4.414080   3.627363   2.422776   4.040343   4.585293
    18  C    5.289650   4.781428   2.762523   4.574850   5.569836
    19  H    6.192450   5.620650   3.826512   5.526304   6.349929
    20  H    5.036965   4.938915   2.787359   4.100242   5.323090
    21  H    5.652811   5.021907   2.650173   4.918091   6.103413
    22  H    3.371583   2.142294   3.315407   3.819869   3.204805
                    6          7          8          9         10
     6  H    0.000000
     7  H    2.512497   0.000000
     8  C    3.481298   3.877469   0.000000
     9  C    4.122218   3.609501   1.417394   0.000000
    10  H    2.561755   4.303834   2.129857   3.416805   0.000000
    11  H    4.759316   3.160717   3.422512   2.156388   5.016482
    12  H    2.362039   3.316604   2.116015   2.714201   1.809724
    13  H    3.248597   2.451187   2.677241   2.125679   3.591771
    14  C    3.393752   2.199812   3.132638   2.868947   4.193200
    15  O    3.799269   3.297544   2.808101   2.862906   3.942887
    16  H    4.298542   2.505657   3.994162   3.385868   5.244244
    17  O    5.334901   4.643058   2.318951   1.363404   4.448435
    18  C    6.200119   4.949953   3.598586   2.344708   5.703125
    19  H    7.146034   5.963892   4.331832   3.238223   6.459972
    20  H    5.971162   4.403927   3.904145   2.669593   5.900419
    21  H    6.443786   5.106124   3.970504   2.606461   5.997102
    22  H    4.183550   4.723297   1.033947   2.083067   2.467998
                   11         12         13         14         15
    11  H    0.000000
    12  H    3.675210   0.000000
    13  H    1.831690   1.992857   0.000000
    14  C    3.253952   3.856418   3.219342   0.000000
    15  O    3.926696   4.083512   3.869209   1.228689   0.000000
    16  H    3.166638   4.702500   3.643768   1.108277   2.030046
    17  O    2.750023   4.031876   3.382326   3.390134   3.098636
    18  C    2.508503   5.013307   3.837863   3.791031   3.774069
    19  H    3.570308   5.944339   4.896634   4.597408   4.387215
    20  H    2.385653   5.178953   3.832112   3.168986   3.344402
    21  H    2.159123   5.027490   3.645015   4.393110   4.577499
    22  H    4.221890   3.021844   3.693511   3.594105   2.913121
                   16         17         18         19         20
    16  H    0.000000
    17  O    3.676634   0.000000
    18  C    3.655038   1.406973   0.000000
    19  H    4.419007   2.014386   1.082304   0.000000
    20  H    2.781777   2.052799   1.089845   1.778930   0.000000
    21  H    4.224783   2.059876   1.088402   1.772934   1.778037
    22  H    4.458779   2.416331   3.809122   4.318704   4.199975
                   21         22
    21  H    0.000000
    22  H    4.353098   0.000000
 Stoichiometry    C8H12O2
 Framework group  C1[X(C8H12O2)]
 Deg. of freedom    60
 Full point group                 C1      NOp   1
 Largest Abelian subgroup         C1      NOp   1
 Largest concise Abelian subgroup C1      NOp   1
                         Standard orientation:                         
 ---------------------------------------------------------------------
 Center     Atomic      Atomic             Coordinates (Angstroms)
 Number     Number       Type             X           Y           Z
 ---------------------------------------------------------------------
      1          6           0        2.379388   -0.003240    0.095982
      2          6           0        1.431987    1.630434   -0.213445
      3          6           0       -0.577713    0.424888    1.416601
      4          6           0        1.596573   -0.961950    0.758136
      5          1           0        2.561376   -0.217842   -0.953235
      6          1           0        3.234636    0.410945    0.625118
      7          1           0        1.690416   -1.172093    1.817602
      8          6           0        0.154849    1.339260   -0.706264
      9          6           0       -0.841458    0.759604    0.118585
     10          1           0        2.113100    2.159997   -0.873402
     11          1           0       -1.278714   -0.111875    2.041952
     12          1           0        1.480526    1.981650    0.812760
     13          1           0        0.285230    0.833741    1.919582
     14          6           0        0.652120   -1.683884   -0.053010
     15          8           0        0.460890   -1.401868   -1.233507
     16          1           0        0.065517   -2.487051    0.435968
     17          8           0       -1.964724    0.408498   -0.569796
     18          6           0       -2.897518   -0.367201    0.142776
     19          1           0       -3.765884   -0.490076   -0.491435
     20          1           0       -2.468483   -1.340805    0.378967
     21          1           0       -3.188170    0.133516    1.064417
     22          1           0       -0.088247    1.419399   -1.708027
 ---------------------------------------------------------------------
 Rotational constants (GHZ):           2.0205458           1.1168170           0.9517688
 Standard basis: 6-31G(d) (6D, 7F)
 There are   174 symmetry adapted cartesian basis functions of A   symmetry.
 There are   174 symmetry adapted basis functions of A   symmetry.
   174 basis functions,   328 primitive gaussians,   174 cartesian basis functions
    38 alpha electrons       38 beta electrons
       nuclear repulsion energy       550.7419184110 Hartrees.
 NAtoms=   22 NActive=   22 NUniq=   22 SFac= 1.00D+00 NAtFMM=   60 NAOKFM=F Big=F
 Integral buffers will be    131072 words long.
 Raffenetti 2 integral format.
 Two-electron integral symmetry is turned on.
 One-electron integrals computed using PRISM.
 NBasis=   174 RedAO= T EigKep=  1.77D-03  NBF=   174
 NBsUse=   174 1.00D-06 EigRej= -1.00D+00 NBFU=   174
 Initial guess from the checkpoint file:  "DATS_13_endo_ii.chk"
 B after Tr=     0.000000   -0.000000    0.000000
         Rot=    0.998645   -0.021804   -0.013748    0.045199 Ang=  -5.97 deg.
 ExpMin= 1.61D-01 ExpMax= 5.48D+03 ExpMxC= 8.25D+02 IAcc=3 IRadAn=         5 AccDes= 0.00D+00
 Harris functional with IExCor= 1009 and IRadAn=       5 diagonalized for initial guess.
 HarFok:  IExCor= 1009 AccDes= 0.00D+00 IRadAn=         5 IDoV= 1 UseB2=F ITyADJ=14
 ICtDFT=  3500011 ScaDFX=  1.000000  1.000000  1.000000  1.000000
 FoFCou: FMM=F IPFlag=           0 FMFlag=      100000 FMFlg1=           0
         NFxFlg=           0 DoJE=T BraDBF=F KetDBF=T FulRan=T
         wScrn=  0.000000 ICntrl=       500 IOpCl=  0 I1Cent=   200000004 NGrid=           0
         NMat0=    1 NMatS0=      1 NMatT0=    0 NMatD0=    1 NMtDS0=    0 NMtDT0=    0
 Petite list used in FoFCou.
 Requested convergence on RMS density matrix=1.00D-08 within 128 cycles.
 Requested convergence on MAX density matrix=1.00D-06.
 Requested convergence on             energy=1.00D-06.
 No special actions if energy rises.
 Integral accuracy reduced to 1.0D-05 until final iterations.
 Initial convergence to 1.0D-05 achieved.  Increase integral accuracy.
 SCF Done:  E(RM062X) =  -462.178484310     A.U. after   17 cycles
            NFock= 17  Conv=0.39D-08     -V/T= 2.0082
 Calling FoFJK, ICntrl=      2127 FMM=F ISym2X=0 I1Cent= 0 IOpClX= 0 NMat=1 NMatS=1 NMatT=0.
 ***** Axes restored to original set *****
 -------------------------------------------------------------------
 Center     Atomic                   Forces (Hartrees/Bohr)
 Number     Number              X              Y              Z
 -------------------------------------------------------------------
      1        6           0.000391664   -0.000821444    0.001024080
      2        6          -0.000286730    0.003356696   -0.002541037
      3        6          -0.004148317   -0.002063941   -0.000578071
      4        6           0.002149222    0.002134721    0.003095586
      5        1           0.000537148    0.000690082   -0.000478261
      6        1          -0.000800426   -0.000211466   -0.000219479
      7        1          -0.000581023   -0.000972004   -0.000352287
      8        6          -0.033223416    0.013406749    0.022337040
      9        6           0.006576225   -0.004943838    0.000138552
     10        1           0.000170821   -0.000796664   -0.000800359
     11        1          -0.000906070   -0.001034172   -0.000914097
     12        1          -0.000719610   -0.001196276    0.001580860
     13        1           0.001781382    0.002516238    0.000680636
     14        6           0.000678151   -0.000694691   -0.003804578
     15        8          -0.001768672   -0.000255635    0.000333157
     16        1           0.000144764    0.000474896    0.000406779
     17        8          -0.001399337    0.002398982    0.004443614
     18        6           0.002146429   -0.003110429    0.002793477
     19        1           0.003142608    0.000431721   -0.004185487
     20        1          -0.004728466   -0.001426648   -0.002269792
     21        1          -0.002055662    0.005689471    0.001321681
     22        1           0.032899317   -0.013572351   -0.022012017
 -------------------------------------------------------------------
 Cartesian Forces:  Max     0.033223416 RMS     0.007634910

 GradGradGradGradGradGradGradGradGradGradGradGradGradGradGradGradGradGrad
 Berny optimization.
 FormGI is forming the generalized inverse of G from B-inverse, IUseBI=4.
 Internal  Forces:  Max     0.041636615 RMS     0.004714273
 Search for a saddle point.
 Step number   2 out of a maximum of  103
 All quantities printed in internal units (Hartrees-Bohrs-Radians)
 Swapping is turned off.
 Update second derivatives using D2CorX and points    1    2
 ITU=  0  0
     Eigenvalues ---   -0.03863   0.00269   0.00442   0.00606   0.01304
     Eigenvalues ---    0.01398   0.01832   0.02205   0.02317   0.02588
     Eigenvalues ---    0.02756   0.03522   0.03857   0.04024   0.04872
     Eigenvalues ---    0.05215   0.06253   0.06279   0.07784   0.08372
     Eigenvalues ---    0.09100   0.09263   0.09460   0.10591   0.10946
     Eigenvalues ---    0.11701   0.12535   0.13625   0.13941   0.15683
     Eigenvalues ---    0.17218   0.18015   0.19102   0.19626   0.22660
     Eigenvalues ---    0.23650   0.25342   0.27715   0.30790   0.32353
     Eigenvalues ---    0.33411   0.36260   0.36477   0.36773   0.37023
     Eigenvalues ---    0.37423   0.37499   0.37949   0.38298   0.39461
     Eigenvalues ---    0.39791   0.40092   0.41630   0.49400   0.51033
     Eigenvalues ---    0.60665   0.62464   0.69407   0.81457   0.86590
 Eigenvectors required to have negative eigenvalues:
                          R1        D20       D24       D12       D21
   1                   -0.71568  -0.24445   0.21972  -0.21887  -0.18089
                          D15       A2        R2        D25       R5
   1                    0.17220   0.16646   0.13703   0.12967   0.12926
 RFO step:  Lambda0=8.135059590D-05 Lambda=-6.58854255D-03.
 Linear search not attempted -- option 19 set.
 Iteration  1 RMS(Cart)=  0.13303974 RMS(Int)=  0.00588875
 Iteration  2 RMS(Cart)=  0.01188109 RMS(Int)=  0.00079155
 Iteration  3 RMS(Cart)=  0.00007968 RMS(Int)=  0.00079017
 Iteration  4 RMS(Cart)=  0.00000006 RMS(Int)=  0.00079017
 Variable       Old X    -DE/DX   Delta X   Delta X   Delta X     New X
                                 (Linear)    (Quad)   (Total)
    R1        3.61635  -0.00077   0.00000   0.14182   0.14182   3.75817
    R2        2.65261   0.00000   0.00000  -0.01807  -0.01807   2.63454
    R3        2.05279   0.00009   0.00000  -0.00121  -0.00121   2.05158
    R4        2.05536   0.00002   0.00000  -0.00139  -0.00139   2.05397
    R5        2.64476  -0.00229   0.00000  -0.02003  -0.02003   2.62473
    R6        2.05268   0.00027   0.00000   0.00080   0.00080   2.05348
    R7        2.05173   0.00082   0.00000   0.00114   0.00114   2.05287
    R8        2.58170   0.00250   0.00000   0.01544   0.01544   2.59714
    R9        2.04456   0.00040   0.00000   0.00112   0.00112   2.04568
   R10        2.03952  -0.00042   0.00000  -0.00121  -0.00121   2.03832
   R11        2.04879   0.00008   0.00000   0.00100   0.00100   2.04979
   R12        2.71959   0.00280   0.00000   0.03216   0.03216   2.75175
   R13        2.67849  -0.00188   0.00000  -0.01870  -0.01870   2.65978
   R14        1.95388   0.04164   0.00000   0.06361   0.06361   2.01748
   R15        2.57646  -0.00149   0.00000  -0.00568  -0.00568   2.57078
   R16        2.32189  -0.00165   0.00000  -0.01932  -0.01932   2.30256
   R17        2.09434  -0.00018   0.00000   0.00410   0.00410   2.09844
   R18        2.65879   0.00306   0.00000  -0.00231  -0.00231   2.65648
   R19        2.04526   0.00505   0.00000   0.01269   0.01269   2.05794
   R20        2.05951   0.00510   0.00000   0.01240   0.01240   2.07191
   R21        2.05678   0.00580   0.00000   0.01599   0.01599   2.07277
    A1        1.96409  -0.00082   0.00000  -0.01355  -0.01361   1.95048
    A2        1.66636  -0.00007   0.00000  -0.00677  -0.00661   1.65974
    A3        1.71414   0.00076   0.00000  -0.03387  -0.03407   1.68007
    A4        1.99778   0.00045   0.00000   0.01883   0.01857   2.01635
    A5        2.05909  -0.00056   0.00000   0.00174   0.00089   2.05998
    A6        1.99697   0.00026   0.00000   0.01857   0.01806   2.01503
    A7        1.90826  -0.00115   0.00000  -0.03521  -0.03480   1.87346
    A8        1.77624   0.00043   0.00000  -0.00429  -0.00429   1.77195
    A9        1.67216  -0.00080   0.00000  -0.05010  -0.04920   1.62296
   A10        2.04844  -0.00078   0.00000   0.00317   0.00199   2.05043
   A11        2.02742   0.00214   0.00000   0.04992   0.04813   2.07555
   A12        1.96982  -0.00024   0.00000   0.01003   0.00867   1.97849
   A13        2.14793   0.00049   0.00000  -0.00193  -0.00346   2.14447
   A14        2.09941  -0.00111   0.00000  -0.01238  -0.01392   2.08549
   A15        2.02264   0.00041   0.00000  -0.00130  -0.00290   2.01974
   A16        2.14728  -0.00102   0.00000  -0.00753  -0.00969   2.13760
   A17        2.02943   0.00254   0.00000   0.03092   0.02883   2.05826
   A18        2.10640  -0.00153   0.00000  -0.02481  -0.02685   2.07954
   A19        2.11952   0.00018   0.00000   0.00382   0.00145   2.12097
   A20        2.14075  -0.00301   0.00000  -0.03391  -0.03598   2.10477
   A21        2.01558   0.00262   0.00000   0.01573   0.01304   2.02863
   A22        2.11462   0.00021   0.00000  -0.00864  -0.00877   2.10585
   A23        2.18421  -0.00074   0.00000  -0.00792  -0.00804   2.17618
   A24        1.97208   0.00046   0.00000   0.01214   0.01198   1.98406
   A25        2.12766   0.00058   0.00000   0.01969   0.01963   2.14729
   A26        2.05129  -0.00059   0.00000  -0.02336  -0.02343   2.02786
   A27        2.10349   0.00001   0.00000   0.00443   0.00436   2.10786
   A28        2.01803   0.00947   0.00000   0.02865   0.02865   2.04668
   A29        1.87313  -0.00333   0.00000  -0.02042  -0.02038   1.85275
   A30        1.91908   0.00288   0.00000   0.01937   0.01927   1.93835
   A31        1.93079   0.00302   0.00000   0.01499   0.01488   1.94567
   A32        1.91923  -0.00097   0.00000  -0.00976  -0.00972   1.90951
   A33        1.91152  -0.00067   0.00000  -0.00355  -0.00353   1.90800
   A34        1.90985  -0.00098   0.00000  -0.00108  -0.00131   1.90854
    D1       -0.79268  -0.00141   0.00000  -0.05022  -0.05040  -0.84307
    D2       -2.97089  -0.00017   0.00000  -0.03394  -0.03381  -3.00470
    D3        1.30794   0.00021   0.00000  -0.02965  -0.02912   1.27881
    D4        1.29042  -0.00122   0.00000  -0.03707  -0.03744   1.25297
    D5       -0.88780   0.00002   0.00000  -0.02080  -0.02086  -0.90865
    D6       -2.89216   0.00040   0.00000  -0.01650  -0.01617  -2.90833
    D7       -2.97369  -0.00083   0.00000  -0.02538  -0.02584  -2.99953
    D8        1.13128   0.00041   0.00000  -0.00911  -0.00926   1.12203
    D9       -0.87308   0.00079   0.00000  -0.00481  -0.00457  -0.87765
   D10       -1.77552  -0.00011   0.00000   0.02157   0.02136  -1.75416
   D11        1.37952   0.00072   0.00000   0.14284   0.14297   1.52249
   D12        2.62980   0.00022   0.00000   0.02732   0.02734   2.65714
   D13       -0.49835   0.00104   0.00000   0.14859   0.14894  -0.34940
   D14        0.20192  -0.00011   0.00000  -0.03226  -0.03257   0.16935
   D15       -2.92622   0.00072   0.00000   0.08901   0.08904  -2.83718
   D16        1.23153  -0.00117   0.00000  -0.09812  -0.09786   1.13367
   D17       -1.77431   0.00057   0.00000   0.03293   0.03161  -1.74270
   D18       -3.04183  -0.00195   0.00000  -0.12759  -0.12717   3.11419
   D19        0.23552  -0.00022   0.00000   0.00346   0.00231   0.23783
   D20       -0.63543  -0.00057   0.00000  -0.04052  -0.03884  -0.67428
   D21        2.64191   0.00116   0.00000   0.09052   0.09063   2.73254
   D22       -3.02627   0.00158   0.00000   0.05362   0.05371  -2.97256
   D23       -0.06440   0.00110   0.00000   0.02272   0.02301  -0.04139
   D24        0.29655   0.00294   0.00000   0.15985   0.15957   0.45612
   D25       -3.02476   0.00247   0.00000   0.12895   0.12887  -2.89589
   D26       -0.10277   0.00031   0.00000  -0.02666  -0.02627  -0.12904
   D27        3.08017   0.00011   0.00000  -0.04763  -0.04724   3.03293
   D28        3.05194   0.00112   0.00000   0.09143   0.09104  -3.14021
   D29       -0.04831   0.00091   0.00000   0.07046   0.07008   0.02176
   D30       -0.03603  -0.00005   0.00000   0.02624   0.02714  -0.00889
   D31       -3.01817   0.00048   0.00000   0.05532   0.05634  -2.96182
   D32        2.97900  -0.00207   0.00000  -0.09955  -0.10057   2.87843
   D33       -0.00314  -0.00154   0.00000  -0.07048  -0.07137  -0.07451
   D34       -0.00839   0.00093   0.00000  -0.07237  -0.07230  -0.08069
   D35        2.96626   0.00048   0.00000  -0.10278  -0.10284   2.86342
   D36        3.05261   0.00126   0.00000   0.08808   0.08809   3.14070
   D37       -1.14340  -0.00026   0.00000   0.07512   0.07491  -1.06849
   D38        0.96810   0.00237   0.00000   0.09624   0.09644   1.06454
         Item               Value     Threshold  Converged?
 Maximum Force            0.041637     0.000450     NO 
 RMS     Force            0.004714     0.000300     NO 
 Maximum Displacement     0.430271     0.001800     NO 
 RMS     Displacement     0.138412     0.001200     NO 
 Predicted change in Energy=-4.096958D-03
 GradGradGradGradGradGradGradGradGradGradGradGradGradGradGradGradGradGrad

                          Input orientation:                          
 ---------------------------------------------------------------------
 Center     Atomic      Atomic             Coordinates (Angstroms)
 Number     Number       Type             X           Y           Z
 ---------------------------------------------------------------------
      1          6           0       -0.870264   -1.135816    1.025285
      2          6           0        0.577067    0.118868    1.560147
      3          6           0       -1.250170    1.895162    0.319095
      4          6           0       -1.876782   -0.488773    0.309827
      5          1           0       -0.224552   -1.784745    0.441690
      6          1           0       -1.100611   -1.485555    2.028283
      7          1           0       -2.814501   -0.189000    0.765239
      8          6           0        0.927105    0.851644    0.433342
      9          6           0        0.020875    1.737360   -0.179278
     10          1           0        1.318840   -0.564838    1.964047
     11          1           0       -2.022495    2.444175   -0.204319
     12          1           0       -0.035556    0.589850    2.323684
     13          1           0       -1.438678    1.702651    1.363531
     14          6           0       -1.717743   -0.366609   -1.132460
     15          8           0       -0.696760   -0.683254   -1.717252
     16          1           0       -2.581984    0.056482   -1.686694
     17          8           0        0.442187    2.201527   -1.386642
     18          6           0       -0.519869    2.802492   -2.216955
     19          1           0        0.006353    3.103892   -3.121503
     20          1           0       -1.314340    2.093029   -2.476937
     21          1           0       -0.963107    3.686923   -1.743213
     22          1           0        1.791606    0.591983   -0.136743
 ---------------------------------------------------------------------
                    Distance matrix (angstroms):
                    1          2          3          4          5
     1  C    0.000000
     2  C    1.988737   0.000000
     3  C    3.135261   2.834471   0.000000
     4  C    1.394139   2.820266   2.464929   0.000000
     5  H    1.085650   2.348889   3.822125   2.103995   0.000000
     6  H    1.086914   2.368106   3.791167   2.132864   1.836919
     7  H    2.178105   3.497055   2.643844   1.084703   3.059235
     8  C    2.744254   1.388948   2.417128   3.110266   2.876966
     9  C    3.240407   2.440177   1.374348   2.965804   3.584838
    10  H    2.449381   1.086654   3.918837   3.599199   2.487530
    11  H    3.956753   3.908723   1.082527   2.981235   4.640441
    12  H    2.315275   1.086334   2.682816   2.934137   3.035840
    13  H    2.914515   2.571042   1.078630   2.470742   3.806025
    14  C    2.442491   3.570990   2.727865   1.456163   2.592041
    15  O    2.785036   3.606574   3.331847   2.353577   2.469270
    16  H    3.421460   4.530504   3.029466   2.186483   3.671187
    17  O    4.321779   3.610987   2.422286   3.936158   4.435956
    18  C    5.113234   4.761471   2.790723   4.365577   5.310211
    19  H    5.994950   5.581571   3.857148   5.312953   6.053795
    20  H    4.784162   4.875734   2.803759   3.840326   4.974250
    21  H    5.561656   5.100524   2.746985   4.741963   5.937880
    22  H    3.379519   2.139714   3.340429   3.850263   3.169908
                    6          7          8          9         10
     6  H    0.000000
     7  H    2.492740   0.000000
     8  C    3.481088   3.897783   0.000000
     9  C    4.064264   3.555606   1.407497   0.000000
    10  H    2.589515   4.320058   2.122013   3.402745   0.000000
    11  H    4.612718   2.915635   3.412171   2.162308   4.992043
    12  H    2.351364   3.279922   2.137439   2.754048   1.815774
    13  H    3.274270   2.414371   2.680746   2.124090   3.620226
    14  C    3.409280   2.199019   3.306221   2.891027   4.341485
    15  O    3.851729   3.300284   3.101275   2.956305   4.198647
    16  H    4.286420   2.475137   4.176187   3.445654   5.378697
    17  O    5.257045   4.577252   2.317255   1.360398   4.432653
    18  C    6.061902   4.807062   3.594943   2.361999   5.674552
    19  H    6.986322   5.822982   4.307822   3.244120   6.406640
    20  H    5.757514   4.239086   3.877479   2.681146   5.806914
    21  H    6.402939   4.974211   4.043402   2.686059   6.085108
    22  H    4.167544   4.758122   1.067606   2.109309   2.444394
                   11         12         13         14         15
    11  H    0.000000
    12  H    3.711771   0.000000
    13  H    1.829987   2.031987   0.000000
    14  C    2.975706   3.960997   3.254180   0.000000
    15  O    3.718515   4.288024   3.966637   1.218463   0.000000
    16  H    2.865579   4.780367   3.649780   1.110447   2.025391
    17  O    2.744344   4.073359   3.368974   3.365298   3.119049
    18  C    2.537121   5.074223   3.856649   3.557279   3.525821
    19  H    3.614058   5.997685   4.916007   4.355821   4.099849
    20  H    2.406155   5.190453   3.862260   2.831991   2.943854
    21  H    2.243863   5.195369   3.716902   4.168167   4.378363
    22  H    4.240584   3.064674   3.730836   3.771721   3.211885
                   16         17         18         19         20
    16  H    0.000000
    17  O    3.719793   0.000000
    18  C    3.474776   1.405749   0.000000
    19  H    4.247926   2.003487   1.089017   0.000000
    20  H    2.525655   2.070243   1.096409   1.783687   0.000000
    21  H    3.975432   2.075668   1.096864   1.783104   1.789473
    22  H    4.670910   2.444138   3.815304   4.290176   4.168519
                   21         22
    21  H    0.000000
    22  H    4.443854   0.000000
 Stoichiometry    C8H12O2
 Framework group  C1[X(C8H12O2)]
 Deg. of freedom    60
 Full point group                 C1      NOp   1
 Largest Abelian subgroup         C1      NOp   1
 Largest concise Abelian subgroup C1      NOp   1
                         Standard orientation:                         
 ---------------------------------------------------------------------
 Center     Atomic      Atomic             Coordinates (Angstroms)
 Number     Number       Type             X           Y           Z
 ---------------------------------------------------------------------
      1          6           0        2.315896   -0.170832   -0.012281
      2          6           0        1.536373    1.647904   -0.211320
      3          6           0       -0.420742    0.392842    1.410022
      4          6           0        1.472671   -1.018832    0.704302
      5          1           0        2.379429   -0.365725   -1.078403
      6          1           0        3.241353    0.147926    0.460273
[...]
 01239965,-0.00021502,-0.00000380,0.00002123,-0.08799271,0.09977268,-0.
 00621622,-0.00566389,-0.00662676,0.13048898,-0.07006968,-0.18637379,0.
 00244357,0.00131150,-0.00093716,0.00158313,-0.00352040,0.00134704,-0.0
 0009352,-0.00010894,0.00005131,0.00059622,0.00099148,0.00086453,0.0000
 1230,0.00009228,0.00001906,0.01737246,-0.01493251,-0.00880970,-0.00283
 514,0.00065537,0.00005038,-0.00766207,0.00576909,0.01075918,-0.0001859
 6,-0.00002115,0.00065029,-0.13447269,0.08062372,0.19035390,-0.00186295
 ,0.00018279,-0.00133045,-0.00003271,0.00290049,0.00090938,-0.05725847,
 0.00435031,0.05239381,0.00022314,-0.00427932,-0.00148560,0.00004292,0.
 00019433,-0.00005876,0.00022814,0.00028524,0.00015190,-0.00015274,-0.0
 0054711,-0.00021517,0.00005503,-0.00268813,-0.00010391,-0.00271398,-0.
 00689190,0.02927166,-0.00003854,-0.00048646,-0.00041398,0.00625888,0.0
 0171447,-0.01985099,-0.00092918,0.00168167,-0.00179549,0.06092448,-0.0
 0603937,-0.00117373,-0.00345612,0.00548055,0.00405212,-0.00133417,0.01
 057801,-0.03063442,0.04863618,-0.00051811,-0.01316566,-0.00354919,0.00
 031980,0.00063451,-0.00001486,0.00031207,0.00035118,0.00033378,0.00016
 062,0.00034453,-0.00000141,0.00075431,-0.00677750,0.00378938,-0.012670
 35,0.00378098,-0.00287682,-0.00067598,-0.00046384,-0.00029942,-0.00410
 808,-0.00012446,0.01418587,0.00206742,-0.00032215,0.00123413,0.0001603
 4,0.03897744,-0.00239954,-0.00032471,-0.00141395,-0.00112395,0.0036048
 6,0.00074530,0.06055455,0.05491354,-0.34779041,0.00055487,-0.00354722,
 -0.00052171,0.00009036,0.00014939,-0.00007114,0.00021596,0.00034109,0.
 00011525,-0.00016557,0.00057566,0.00063875,0.00032920,-0.00094210,-0.0
 0063763,-0.00229998,0.00321395,-0.00712269,-0.00046565,-0.00001181,0.0
 0032876,0.00360043,0.00129266,-0.00944429,-0.00078091,0.00079189,-0.00
 027471,-0.05939701,-0.06006691,0.36298158,0.02267228,0.00377258,-0.020
 25306,-0.00937600,-0.00870900,0.00247697,0.00106519,0.00095159,0.00157
 846,-0.11085821,0.02150634,-0.02777228,-0.00407733,-0.00053959,-0.0026
 4860,-0.00370006,0.00510879,-0.00107731,0.00268335,-0.00382875,0.02991
 322,-0.00392914,-0.00090077,-0.00812114,-0.00357201,-0.00282958,-0.006
 68457,-0.00003309,0.00021018,0.00009811,0.00022973,0.00104860,0.000262
 32,0.00087292,0.00129313,0.00053599,-0.00074003,0.00026075,0.00008785,
 0.82822987,0.00379499,0.00061542,0.01883151,0.00119037,-0.00187971,0.0
 0105738,0.00044238,-0.00741277,-0.00003580,0.01486247,-0.06130514,0.02
 910335,-0.00203511,-0.00298170,0.00110516,0.00636502,0.00293933,0.0030
 0040,-0.00025971,-0.00279640,-0.01028502,-0.00042752,-0.00273077,0.001
 56092,-0.00887076,-0.00393338,-0.00235989,0.00043267,0.00057768,0.0002
 8738,-0.00042720,-0.00178329,-0.00064172,-0.00026980,0.00026575,-0.000
 17034,0.00038459,0.00075572,0.00049068,-0.22064964,0.27591808,-0.02842
 250,0.00911054,-0.02748319,0.00771028,0.00955645,-0.00428660,-0.008432
 80,-0.01323409,-0.00397466,0.01282075,0.02323328,-0.24899737,0.0030161
 0,-0.00089337,0.00036661,-0.00022724,0.00061698,-0.00029369,-0.0042813
 9,0.00136877,-0.00282304,0.00581840,0.00643326,0.00534123,0.00386239,-
 0.00907948,0.01360014,-0.00010434,-0.00044923,0.00021715,-0.00018889,0
 .00241302,0.00091936,-0.00023592,-0.00103160,-0.00004732,0.00040942,0.
 00108003,-0.00011235,-0.15780075,-0.01112081,0.67207481,-0.01649505,0.
 00128899,-0.00782825,0.00684921,0.00676800,-0.00238243,-0.00389693,-0.
 00456082,0.00112187,0.00476498,0.00307377,0.05625874,0.00250968,-0.001
 17347,0.00123302,0.00146031,-0.00127475,-0.00079074,0.00056380,0.00106
 021,-0.00007331,0.00315953,0.00218160,0.00592021,0.00075758,-0.0042341
 7,0.00564632,0.00002233,-0.00026838,0.00004383,-0.00024605,-0.00028020
 ,0.00001483,-0.00056044,-0.00084960,-0.00034359,0.00067901,0.00095745,
 -0.00001385,-0.54121679,0.14259644,0.25650499,0.58473873,0.00124784,-0
 .00234192,0.00253043,-0.00261938,-0.00146154,-0.00000257,-0.00082570,-
 0.00007083,-0.00320758,-0.00019028,0.01352690,-0.00786251,-0.00150595,
 0.00079632,-0.00040166,-0.00128463,0.00030690,0.00014874,0.00079693,0.
 00389802,0.00142329,0.00045595,0.00103601,-0.00192455,0.00319495,-0.00
 305630,-0.00053383,-0.00027475,-0.00013225,-0.00019727,0.00011083,0.00
 044794,0.00022531,0.00036025,0.00016874,0.00021633,-0.00025769,-0.0009
 9510,-0.00035375,0.14329503,-0.10865346,-0.06963309,-0.16617736,0.0857
 3905,0.00746258,-0.00130404,0.00174197,-0.00062562,-0.00085380,0.00110
 681,0.00096921,0.00255133,-0.00112035,0.04540699,-0.01261533,-0.047079
 26,0.00014660,-0.00045479,-0.00115797,0.00098059,-0.00124959,0.0001912
 2,0.00057593,0.00105379,-0.00860661,-0.00056097,-0.00000516,0.00074638
 ,0.00286710,0.00036516,-0.00811458,-0.00008519,0.00001549,-0.00007134,
 0.00020303,-0.00059965,-0.00030462,-0.00001690,0.00015364,0.00015599,-
 0.00023613,-0.00089570,0.00007576,0.27072372,-0.07173544,-0.26519694,-
 0.32920680,0.08880930,0.30108739,0.00173047,0.00009161,-0.00004390,0.0
 0040670,0.00009024,0.00025421,-0.00046576,0.00040569,-0.00061065,0.004
 22968,0.00392084,0.00064387,0.00004522,-0.00029022,0.00075001,-0.00032
 647,-0.00040218,-0.00005514,-0.00017719,-0.00000159,-0.00171533,-0.000
 26924,0.00019306,0.00064345,0.00072685,0.00023946,-0.00101583,0.000046
 21,0.00002502,0.00002750,0.00008803,-0.00036140,-0.00010958,-0.0000054
 2,-0.00005118,-0.00004326,-0.00000255,-0.00027538,0.00002618,-0.179041
 64,0.06108855,-0.09150844,-0.04350583,0.02349478,0.00254525,0.21702519
 ,-0.00061528,0.00275424,-0.00010865,0.00137644,0.00110818,-0.00001459,
 -0.00054333,0.00057100,-0.00107226,0.00781404,0.00863357,0.00312731,0.
 00024177,0.00037277,-0.00044331,-0.00049076,-0.00032646,-0.00009016,-0
 .00046564,-0.00083722,0.00032041,0.00029802,0.00014442,0.00133787,0.00
 028922,-0.00041433,0.00006837,0.00010705,0.00007643,0.00004348,0.00000
 689,0.00036900,0.00004344,-0.00008857,-0.00018873,-0.00004914,-0.00015
 774,-0.00023186,-0.00015110,0.06010206,-0.08789408,0.04818702,0.020269
 81,0.00992079,-0.00177761,-0.08772528,0.06596105,0.00144904,0.00027970
 ,-0.00694558,0.00098623,0.00084456,-0.00008872,0.00076871,0.00083115,0
 .00048622,-0.02562501,0.01394523,-0.01003406,0.00005057,-0.00001585,0.
 00035001,-0.00135895,0.00090196,-0.00072326,0.00084978,-0.00038907,0.0
 0031525,0.00012154,-0.00053534,0.00079931,-0.00070913,0.00050472,-0.00
 028009,0.00002518,-0.00003024,0.00000832,-0.00011306,-0.00068433,-0.00
 019443,-0.00008448,-0.00004646,-0.00006175,0.00005053,0.00005312,0.000
 05293,-0.08490633,0.04168396,-0.12927958,0.01904394,-0.00786820,0.0219
 8752,0.08953389,-0.04926906,0.12323289,0.00076264,-0.00059116,0.001421
 44,-0.00477736,0.00284992,-0.00060990,-0.01196905,-0.01282115,0.041584
 97,0.00095752,0.00152868,0.00087293,-0.00006577,-0.00008963,-0.0000206
 7,-0.00035892,-0.00041218,-0.00011821,0.00009719,0.00005400,-0.0000956
 3,0.01635378,0.01192671,-0.02592846,-0.12929727,-0.00127241,0.05331245
 ,0.00049550,0.00092290,-0.00091248,0.00155270,-0.00063998,-0.00232910,
 0.00044297,-0.00025035,-0.00020196,-0.00459184,0.00331637,0.00088888,-
 0.00132491,0.00191755,-0.00052802,0.00129986,0.00012546,-0.00051576,0.
 00034453,-0.00030680,0.00008721,0.34068754,-0.00700866,-0.00197004,-0.
 00300121,0.00868005,0.00667071,-0.00126543,-0.00060422,0.00951758,0.00
 217797,0.00154993,-0.00723269,0.00240349,0.00034065,0.00045163,0.00027
 427,0.00014243,0.00026418,0.00012133,0.00013903,0.00071658,0.00015724,
 -0.00191552,-0.01611847,0.04349814,-0.01839668,-0.07934914,0.08049369,
 -0.00049170,-0.00090117,0.00084300,-0.00139492,-0.00276439,0.00006184,
 -0.00073789,-0.00084922,-0.00015371,0.00287793,0.00543510,0.00048171,0
 .00155722,0.00144346,0.00220023,-0.00059544,-0.00007320,-0.00087315,-0
 .00061089,0.00027977,-0.00044082,-0.08537528,0.19437672,0.00353934,0.0
 0327416,0.00043299,-0.00379290,-0.00135871,0.00412392,0.02122624,0.009
 12177,-0.02840190,0.00000468,0.00585003,0.00145148,-0.00010946,-0.0001
 0939,-0.00051203,0.00055495,0.00055309,0.00029504,-0.00038403,-0.00059
 368,0.00062068,0.00165497,0.02211671,-0.04615380,0.09005143,0.07825263
 ,-0.26087758,0.00037782,0.00096877,-0.00063607,-0.00163477,-0.00145595
 ,-0.00170181,0.00057678,0.00025735,0.00022987,0.00342602,0.00210012,0.
 00200999,0.00219481,-0.00156161,-0.01124232,-0.00473384,-0.00088195,0.
 00572553,0.00114882,-0.00038317,0.00051223,0.01560580,-0.20218156,0.50
 140393,0.00041621,-0.00043407,0.00032549,0.00051481,-0.00071564,0.0002
 3662,0.00012340,-0.00431461,0.00833655,-0.00086439,-0.00065181,-0.0012
 6678,-0.00005240,-0.00009949,0.00012056,-0.00015314,-0.00012591,-0.000
 13453,0.00002420,0.00006042,-0.00017751,-0.00090354,-0.00084399,0.0053
 6984,0.01099703,-0.00245630,-0.00398399,-0.00012925,-0.00039071,0.0003
 4453,-0.00070464,-0.00085769,0.00261373,-0.00005186,0.00002564,0.00004
 562,-0.00104872,0.00023850,0.00023018,0.00068619,-0.00026130,0.0048555
 5,-0.00002357,0.00072967,-0.00257295,-0.00109433,0.00035542,-0.0002936
 5,-0.17795162,0.06936848,-0.07961309,0.56704029,0.00140802,0.00072768,
 0.00007891,0.00030138,-0.00028825,0.00141403,-0.00010657,0.00072643,-0
 .00364317,-0.00056760,0.00098502,-0.00074847,-0.00005599,-0.00013471,-
 0.00000601,0.00013307,0.00013904,0.00000193,-0.00000100,-0.00007903,-0
 .00001014,-0.00108368,0.00217399,-0.00000323,0.00571676,-0.01573054,0.
 02118115,-0.00011343,-0.00001724,-0.00002084,0.00036606,-0.00081486,0.
 00032190,0.00016606,-0.00002003,0.00005035,0.00120747,-0.00027556,-0.0
 0006389,-0.00125440,-0.00068673,0.00076909,0.00100262,0.00046960,-0.00
 008560,0.00012648,-0.00004968,0.00010532,0.05338938,-0.09985204,0.0517
 3883,0.03356731,0.57312853,-0.00052731,-0.00061114,-0.00010999,-0.0005
 0094,0.00160234,-0.00005272,-0.00068114,-0.00092240,0.00144770,-0.0004
 8718,-0.00072137,-0.00064328,0.00001648,0.00000218,0.00011030,-0.00009
 770,-0.00009706,-0.00006566,0.00004368,0.00008978,-0.00008745,0.004012
 30,-0.00068464,0.00012493,-0.02282228,0.02555778,-0.04539403,0.0000780
 2,0.00003797,-0.00005192,-0.00024897,0.00137749,-0.00276567,-0.0001343
 3,-0.00021610,0.00012352,-0.00181778,0.00087059,0.00038311,0.00154880,
 -0.00007079,0.00285333,-0.00036441,-0.00021705,-0.00159374,-0.00086479
 ,0.00039150,-0.00035982,-0.04976167,0.04723266,-0.13708477,-0.05996564
 ,0.01048584,0.59763283,0.00015676,0.00004357,0.00011900,-0.00041227,0.
 00001799,0.00008444,-0.00099773,0.00034655,0.00034786,0.00008850,0.000
 24204,0.00001343,-0.00001216,-0.00001414,-0.00001101,-0.00000010,-0.00
 002131,0.00000470,0.00000062,0.00000074,0.00000373,0.00053404,0.000420
 42,-0.00121415,-0.00298752,0.00194639,-0.00226344,0.00005452,0.0000854
 9,-0.00007954,0.00054442,-0.00058776,0.00030178,0.00004567,-0.00000928
 ,0.00000131,0.00039192,-0.00015668,0.00011327,-0.00017347,0.00018908,-
 0.00031583,0.00005291,-0.00014664,0.00005867,0.00013419,-0.00004403,0.
 00008292,0.01112150,0.01092773,-0.03089096,-0.12793580,-0.03893641,0.1
 3014346,0.13378693,-0.00014049,-0.00001494,-0.00004103,0.00027735,-0.0
 0000613,-0.00007112,0.00056653,0.00019648,0.00000630,0.00004990,-0.000
 21183,-0.00002407,0.00000250,0.00001284,0.00001001,0.00000903,0.000000
 58,0.00000418,0.00000555,0.00000134,-0.00001140,-0.00023242,-0.0000137
 2,0.00100040,0.00253199,-0.00026485,0.00011960,-0.00006215,-0.00009315
 ,0.00002650,-0.00038100,-0.00017678,-0.00035658,0.00001789,0.00002300,
 -0.00000206,-0.00009576,0.00018921,0.00000080,-0.00027665,0.00025266,0
 .00004574,0.00022154,-0.00003627,-0.00015810,0.00011649,-0.00003100,0.
 00005488,-0.00470451,-0.00731075,0.02003902,-0.03342864,-0.06690821,0.
 04954549,0.03283639,0.06902872,-0.00004268,0.00001120,-0.00000872,-0.0
 0031873,0.00024874,-0.00001222,-0.00028988,0.00018071,0.00017589,0.000
 10356,0.00006620,0.00020782,0.00000936,0.00001272,-0.00002065,0.000009
 96,0.00002431,0.00001142,-0.00000578,-0.00001272,0.00001496,0.00062006
 ,0.00024106,-0.00100335,-0.00345603,0.00070692,0.00118502,0.00001331,0
 .00005263,-0.00010187,-0.00009193,-0.00021504,0.00006910,0.00002579,-0
 .00001389,0.00001727,0.00014166,0.00002864,-0.00001529,-0.00003837,-0.
 00000167,-0.00054016,-0.00011768,0.00003072,0.00028741,0.00008339,-0.0
 0004241,0.00003792,0.00448627,0.01028083,-0.02557679,0.11778145,0.0527
 2929,-0.24088095,-0.12354962,-0.06534395,0.26738208,-0.00001558,0.0002
 2613,-0.00003236,0.00001161,0.00003266,0.00014824,0.00027768,0.0004819
 4,-0.00055644,0.00016705,0.00039700,0.00056675,-0.00000620,0.00004376,
 -0.00004540,-0.00000277,0.00001466,0.00003159,-0.00003290,-0.00005624,
 0.00009366,0.00005284,0.00058832,-0.00081506,-0.00122496,-0.00248127,0
 .00622140,-0.00001708,0.00001534,-0.00005281,0.00025751,0.00007237,0.0
 0031496,0.00005921,0.00003066,0.00000621,0.00022767,-0.00022269,-0.000
 01068,0.00168751,-0.00055257,-0.00214729,-0.00124691,-0.00038956,0.001
 54467,-0.00013943,-0.00014067,0.00005029,-0.02674511,-0.00395698,-0.01
 954281,-0.18676150,-0.12402889,-0.03684832,-0.00996997,-0.01108300,-0.
 00309687,0.21264655,0.00000137,0.00003103,-0.00016968,0.00012514,0.000
 08712,-0.00010717,-0.00129021,0.00064261,0.00006656,-0.00014652,-0.000
 17850,-0.00040870,0.00002559,0.00001185,0.00004700,-0.00002227,-0.0000
 2735,-0.00000645,0.00001218,0.00000744,-0.00004715,-0.00002612,-0.0005
 6495,0.00003479,0.00129772,0.00200217,-0.00155024,0.00002608,0.0000080
 2,-0.00000443,0.00040274,-0.00006407,0.00032277,-0.00003208,0.00001444
 ,-0.00003084,0.00017811,-0.00048177,0.00002302,-0.00099540,-0.00084120
 ,0.00168024,0.00076974,0.00059861,-0.00084375,-0.00014235,-0.00006868,
 0.00015791,0.01791150,0.01360527,0.00807870,-0.12894104,-0.16759023,-0
 .03735024,-0.00338446,-0.00364586,-0.00196127,0.13409144,0.17210791,0.
 00075374,0.00021645,0.00046108,-0.00051381,-0.00061760,0.00041425,0.00
 054661,-0.00067190,0.00018602,0.00011768,0.00084133,-0.00007290,-0.000
 05201,-0.00004738,-0.00003467,-0.00002460,-0.00005878,-0.00000523,-0.0
 0002333,-0.00005559,0.00000192,-0.00021736,0.00124814,-0.00103430,-0.0
 0309274,-0.00393229,0.00504105,0.00000830,0.00001995,0.00000730,-0.000
 04090,-0.00106864,-0.00155065,0.00012498,0.00003067,0.00002016,0.00033
 802,0.00035217,0.00025006,-0.00030970,0.00074614,-0.00090279,0.0000415
 3,-0.00029617,0.00011161,0.00032647,-0.00001275,0.00021249,-0.02360679
 ,-0.00607225,-0.01314677,-0.03425222,-0.03365108,-0.06373044,0.0196803
 4,0.01797344,0.00855347,0.05025459,0.03622720,0.06764673,0.00004026,0.
 00010742,0.00002463,-0.00008832,-0.00025236,-0.00000374,0.00038759,-0.
 00054389,-0.00073404,0.00015903,0.00018007,0.00021705,-0.00000727,0.00
 000298,-0.00001871,0.00002342,0.00001984,0.00001612,-0.00001686,-0.000
 02857,0.00003905,-0.00027834,0.00024076,-0.00094807,-0.00082462,-0.002
 07276,0.00506030,0.00003230,0.00007526,-0.00002216,-0.00021133,-0.0007
 8093,0.00052115,0.00004696,0.00002565,-0.00004568,0.00015839,0.0001517
 7,0.00000430,0.00004888,-0.00010535,-0.00090827,-0.00016999,-0.0001658
 2,0.00058692,0.00018814,-0.00006430,0.00003080,-0.01750170,0.02813042,
 -0.00090403,-0.08192073,0.06894243,0.04003793,-0.00440146,0.01376034,0
 .00774420,0.01073914,-0.01992371,-0.01007843,0.09336071,-0.00079676,-0
 .00019134,-0.00028374,0.00047502,0.00079972,-0.00027307,0.00034888,-0.
 00017205,0.00031666,0.00028249,-0.00074342,0.00046138,0.00004949,0.000
 10028,-0.00000119,0.00000207,0.00002593,0.00003129,-0.00000147,0.00002
 354,0.00003327,0.00037587,-0.00067149,0.00137032,0.00140751,0.00189142
 ,-0.00544040,-0.00007167,-0.00009397,-0.00000234,-0.00101675,-0.000516
 88,0.00045598,-0.00007704,-0.00007291,0.00003862,-0.00038007,0.0003615
 5,-0.00016124,0.00044173,-0.00001824,-0.00081210,-0.00043708,-0.000152
 59,0.00054298,0.00008305,-0.00000783,-0.00000421,0.01446723,-0.0148936
 2,0.00675208,0.06947063,-0.22580263,-0.09620763,-0.00375417,0.00901166
 ,0.00294574,0.00706910,-0.01572457,-0.01102771,-0.08769801,0.24682383,
 0.00067241,0.00008782,0.00046963,-0.00066026,-0.00077655,0.00006032,0.
 00161557,-0.00116235,-0.00019530,-0.00004096,0.00065706,-0.00004685,-0
 .00005671,-0.00004498,-0.00004036,-0.00006717,-0.00007985,-0.00002670,
 -0.00004390,-0.00006352,-0.00000774,-0.00065547,0.00062160,-0.00126263
 ,-0.00140434,-0.00022869,0.00522920,0.00001547,0.00002578,0.00003052,0
 .00069964,0.00209411,-0.00107483,0.00007565,0.00012835,0.00004843,-0.0
 0026860,-0.00020156,-0.00009596,0.00014493,-0.00002593,-0.00044592,-0.
 00014915,-0.00010912,0.00030650,0.00002543,-0.00000832,0.00000209,-0.0
 1281392,0.02534780,0.00791084,0.04229789,-0.10066059,-0.10961003,0.007
 34223,-0.02280688,-0.00979665,0.00386837,-0.00417156,-0.00245425,-0.04
 075064,0.10138748,0.11095724,-0.00075192,-0.00015737,-0.00050746,-0.00
 037646,0.00348962,0.00228950,-0.00048883,0.00389908,-0.00218357,0.0005
 8680,-0.00023647,0.00090274,-0.00004759,-0.00014158,-0.00003427,0.0000
 3978,0.00007793,0.00004654,0.00004064,0.00002935,-0.00003887,-0.244562
 90,0.06868321,0.12793494,-0.01409102,0.00579119,0.01213401,-0.00083919
 ,-0.00239170,-0.00118552,-0.00088442,-0.00031973,0.00043829,0.00304032
 ,0.00134616,0.00080981,0.00018211,-0.00009132,-0.00003889,-0.00013326,
 0.00059485,0.00010379,0.00050365,0.00002608,-0.00025093,0.00006267,-0.
 00021832,-0.00004001,0.00046783,-0.00262569,0.00124424,-0.00020664,-0.
 00017906,-0.00075820,-0.00002150,0.00000910,-0.00001146,0.00003563,0.0
 0006256,0.00001963,0.00023577,-0.00024006,0.00015352,0.25720853,-0.002
 72106,-0.00059363,-0.00172006,-0.01183959,0.01141092,0.01046445,0.0040
 1963,0.00053278,0.00410302,0.00078689,-0.00161854,0.00155405,0.0002233
 2,0.00008008,-0.00017144,0.00026860,0.00036424,0.00018444,0.00005179,0
 .00004537,0.00004818,0.07136669,-0.06948131,-0.03004963,0.01681833,0.0
 0123857,-0.01339213,-0.00194005,-0.00205513,-0.00184441,0.00100185,-0.
 00007746,-0.00031742,0.00201828,0.00100034,0.00373978,-0.00033358,-0.0
 0023630,-0.00025651,0.00043576,0.00014877,-0.00044086,-0.00033892,0.00
 006457,-0.00003999,-0.00001479,-0.00014133,-0.00007894,-0.00194622,-0.
 00144625,-0.00057724,-0.00029485,-0.00010055,-0.00009519,-0.00000150,-
 0.00000302,0.00003123,-0.00015151,0.00007070,-0.00014332,-0.00000124,0
 .00002360,-0.00001010,-0.07740784,0.06077360,-0.00074890,-0.00008414,-
 0.00099183,0.02066841,-0.00682346,-0.01073408,-0.00019332,0.00269085,-
 0.00118807,-0.00018378,-0.00026225,0.00041335,0.00026066,0.00009451,-0
 .00001370,0.00004986,0.00015142,0.00021996,-0.00003142,-0.00004757,-0.
 00003852,0.13334257,-0.03180840,-0.12825584,-0.01216664,0.00600935,0.0
 0882241,-0.00176948,-0.00224250,-0.00010696,-0.00087929,-0.00009198,0.
 00025845,0.00352655,0.00490921,-0.00155972,-0.00011853,0.00003214,-0.0
 0008139,0.00004694,0.00014214,0.00025329,0.00017478,0.00010516,-0.0002
 7867,-0.00004157,-0.00009685,-0.00002988,-0.00081736,-0.00158608,0.000
 61734,-0.00029765,0.00001637,-0.00024525,0.00002739,-0.00001117,0.0000
 1429,0.00004731,0.00001330,0.00002587,0.00013130,-0.00012218,0.0000424
 6,-0.14102783,0.02901211,0.13285653\\0.00000008,0.00000294,-0.00001534
 ,0.00000704,0.00000857,0.00001747,-0.00000614,0.00000242,-0.00000216,-
 0.00000948,-0.00003119,-0.00001364,0.00000319,-0.00000162,0.00000267,-
 0.00000065,0.00000086,0.00000024,0.00000410,0.00000932,0.00000090,0.00
 009042,-0.00000968,-0.00004459,-0.00001245,-0.00000120,0.00002598,-0.0
 0000056,-0.00000243,-0.00000346,0.00000235,0.00000171,-0.00000019,-0.0
 0000163,-0.00000553,0.00000062,0.00000407,0.00000326,-0.00000111,-0.00
 000530,0.00000941,0.00000917,0.00001092,-0.00001061,-0.00000490,0.0000
 0068,0.00000088,-0.00000003,-0.00000611,-0.00000609,-0.00002457,0.0000
 0666,0.00001821,-0.00000012,0.00000169,0.00000048,-0.00000022,-0.00000
 295,-0.00000448,0.00000188,-0.00000036,0.00000014,0.00000030,-0.000085
 54,0.00001463,0.00005109\\\@
 The archive entry for this job was punched.


 CURIOUSER AND CURIOUSER

                  -- ALICE, IN WONDERLAND
 Job cpu time:       0 days  0 hours 25 minutes  9.3 seconds.
 Elapsed time:       0 days  0 hours  1 minutes 35.9 seconds.
 File lengths (MBytes):  RWF=     84 Int=      0 D2E=      0 Chk=      5 Scr=      1
 Normal termination of Gaussian 16 at Tue Jun 21 10:43:00 2022.
