Job Start Time: Fri Apr 15 21:55:28 MDT 2022
SLURM Job ID: 18613
SLURM Job Name: DE09_DP03_TS
 Entering Gaussian System, Link 0=/opt/apps/Gaussian/G16C/g16/g16
 Initial command:
 /opt/apps/Gaussian/G16C/g16/l1.exe "/tmp/Gau-3867986.inp" -scrdir="/tmp/"
 Entering Link 1 = /opt/apps/Gaussian/G16C/g16/l1.exe PID=   3867987.
  
 Copyright (c) 1988-2019, Gaussian, Inc.  All Rights Reserved.
  
 This is part of the Gaussian(R) 16 program.  It is based on
 the Gaussian(R) 09 system (copyright 2009, Gaussian, Inc.),
 the Gaussian(R) 03 system (copyright 2003, Gaussian, Inc.),
 the Gaussian(R) 98 system (copyright 1998, Gaussian, Inc.),
 the Gaussian(R) 94 system (copyright 1995, Gaussian, Inc.),
 the Gaussian 92(TM) system (copyright 1992, Gaussian, Inc.),
 the Gaussian 90(TM) system (copyright 1990, Gaussian, Inc.),
 the Gaussian 88(TM) system (copyright 1988, Gaussian, Inc.),
 the Gaussian 86(TM) system (copyright 1986, Carnegie Mellon
 University), and the Gaussian 82(TM) system (copyright 1983,
 Carnegie Mellon University). Gaussian is a federally registered
 trademark of Gaussian, Inc.
  
 This software contains proprietary and confidential information,
 including trade secrets, belonging to Gaussian, Inc.
  
 This software is provided under written license and may be
 used, copied, transmitted, or stored only in accord with that
 written license.
  
 The following legend is applicable only to US Government
 contracts under FAR:
  
                    RESTRICTED RIGHTS LEGEND
  
 Use, reproduction and disclosure by the US Government is
 subject to restrictions as set forth in subparagraphs (a)
 and (c) of the Commercial Computer Software - Restricted
 Rights clause in FAR 52.227-19.
  
 Gaussian, Inc.
 340 Quinnipiac St., Bldg. 40, Wallingford CT 06492
  
  
 ---------------------------------------------------------------
 Warning -- This program may not be used in any manner that
 competes with the business of Gaussian, Inc. or will provide
 assistance to any competitor of Gaussian, Inc.  The licensee
 of this program is prohibited from giving any competitor of
 Gaussian, Inc. access to this program.  By using this program,
 the user acknowledges that Gaussian, Inc. is engaged in the
 business of creating and licensing software in the field of
 computational chemistry and represents and warrants to the
 licensee that it is not a competitor of Gaussian, Inc. and that
 it will not use this program in any manner prohibited above.
 ---------------------------------------------------------------
  

 Cite this work as:
 Gaussian 16, Revision C.01,
 M. J. Frisch, G. W. Trucks, H. B. Schlegel, G. E. Scuseria, 
 M. A. Robb, J. R. Cheeseman, G. Scalmani, V. Barone, 
 G. A. Petersson, H. Nakatsuji, X. Li, M. Caricato, A. V. Marenich, 
 J. Bloino, B. G. Janesko, R. Gomperts, B. Mennucci, H. P. Hratchian, 
 J. V. Ortiz, A. F. Izmaylov, J. L. Sonnenberg, D. Williams-Young, 
 F. Ding, F. Lipparini, F. Egidi, J. Goings, B. Peng, A. Petrone, 
 T. Henderson, D. Ranasinghe, V. G. Zakrzewski, J. Gao, N. Rega, 
 G. Zheng, W. Liang, M. Hada, M. Ehara, K. Toyota, R. Fukuda, 
 J. Hasegawa, M. Ishida, T. Nakajima, Y. Honda, O. Kitao, H. Nakai, 
 T. Vreven, K. Throssell, J. A. Montgomery, Jr., J. E. Peralta, 
 F. Ogliaro, M. J. Bearpark, J. J. Heyd, E. N. Brothers, K. N. Kudin, 
 V. N. Staroverov, T. A. Keith, R. Kobayashi, J. Normand, 
 K. Raghavachari, A. P. Rendell, J. C. Burant, S. S. Iyengar, 
 J. Tomasi, M. Cossi, J. M. Millam, M. Klene, C. Adamo, R. Cammi, 
 J. W. Ochterski, R. L. Martin, K. Morokuma, O. Farkas, 
 J. B. Foresman, and D. J. Fox, Gaussian, Inc., Wallingford CT, 2019.
 
 ******************************************
 Gaussian 16:  AS64L-G16RevC.01  3-Jul-2019
                15-Apr-2022 
 ******************************************
 %chk=DE09_DP03_TS.chk
 %nprocshared=16
 Will use up to   16 processors via shared memory.
 -------------------------------------------------
 # opt=(calcfc,ts,noeigentest) freq 6-31g(d) m062x
 -------------------------------------------------
 1/5=1,10=4,11=1,18=20,26=3,38=1/1,3;
 2/9=110,12=2,17=6,18=5,40=1/2;
 3/5=1,6=6,7=1,11=2,25=1,30=1,71=2,74=-55,140=1/1,2,3;
 4//1;
 5/5=2,38=5/2;
 8/6=4,10=90,11=11/1;
 11/6=1,8=1,9=11,15=111,16=1/1,2,10;
 10/6=1,13=1/2;
 6/7=2,8=2,9=2,10=2,28=1/1;
 7/10=1,25=1/1,2,3,16;
 1/5=1,10=4,11=1,18=20,26=3/3(2);
 2/9=110/2;
 99//99;
 2/9=110/2;
 3/5=1,6=6,7=1,11=2,25=1,30=1,71=1,74=-55/1,2,3;
 4/5=5,16=3,69=1/1;
 5/5=2,38=5/2;
 7//1,2,3,16;
 1/5=1,11=1,18=20,26=3/3(-5);
 2/9=110/2;
 6/7=2,8=2,9=2,10=2,19=2,28=1/1;
 99/9=1/99;
 -------------------
 Title Card Required
 -------------------
 Symbolic Z-matrix:
 Charge =  0 Multiplicity = 1
 C                     0.51786   1.5466   -1.10421 
 C                    -1.61956   1.69201  -0.45769 
 C                    -0.09977   0.88924   1.79638 
 C                     1.31343   1.07273  -0.08797 
 H                     0.21655   0.88225  -1.90593 
 H                     0.52963   2.6038   -1.34509 
 H                     1.96643   1.72646   0.47947 
 C                    -1.807     0.46031   0.12764 
 C                    -1.06236   0.07191   1.27182 
 H                    -2.14275   1.90556  -1.3839 
 H                     0.54237   0.52676   2.59195 
 H                    -1.07974  -0.96495   1.58883 
 H                    -1.34668   2.54257   0.15106 
 H                    -0.1362    1.96499   1.67927 
 O                    -2.5646   -0.42171  -0.58131 
 C                    -2.51996  -1.78827  -0.22438 
 H                    -2.93622  -1.95542   0.77626 
 H                    -3.1382   -2.30711  -0.95708 
 H                    -1.49728  -2.17762  -0.26515 
 C                     1.74877  -0.40405  -0.12257 
 O                     1.4095   -1.16544  -1.02339 
 H                     2.39009  -0.73422   0.72172 
 
 Add virtual bond connecting atoms C2         and C1         Dist= 4.23D+00.
 Add virtual bond connecting atoms C3         and C4         Dist= 4.46D+00.

 GradGradGradGradGradGradGradGradGradGradGradGradGradGradGradGradGradGrad
 Berny optimization.
 Initialization pass.
                           ----------------------------
                           !    Initial Parameters    !
                           ! (Angstroms and Degrees)  !
 --------------------------                            --------------------------
 ! Name  Definition              Value          Derivative Info.                !
 --------------------------------------------------------------------------------
 ! R1    R(1,2)                  2.2378         calculate D2E/DX2 analytically  !
 ! R2    R(1,4)                  1.3749         calculate D2E/DX2 analytically  !
 ! R3    R(1,5)                  1.0839         calculate D2E/DX2 analytically  !
 ! R4    R(1,6)                  1.0844         calculate D2E/DX2 analytically  !
 ! R5    R(2,8)                  1.3765         calculate D2E/DX2 analytically  !
 ! R6    R(2,10)                 1.085          calculate D2E/DX2 analytically  !
 ! R7    R(2,13)                 1.081          calculate D2E/DX2 analytically  !
 ! R8    R(3,4)                  2.3625         calculate D2E/DX2 analytically  !
 ! R9    R(3,9)                  1.3674         calculate D2E/DX2 analytically  !
 ! R10   R(3,11)                 1.0847         calculate D2E/DX2 analytically  !
 ! R11   R(3,14)                 1.0827         calculate D2E/DX2 analytically  !
 ! R12   R(4,7)                  1.0843         calculate D2E/DX2 analytically  !
 ! R13   R(4,20)                 1.54           calculate D2E/DX2 analytically  !
 ! R14   R(8,9)                  1.4193         calculate D2E/DX2 analytically  !
 ! R15   R(8,15)                 1.3618         calculate D2E/DX2 analytically  !
 ! R16   R(9,12)                 1.0844         calculate D2E/DX2 analytically  !
 ! R17   R(15,16)                1.4131         calculate D2E/DX2 analytically  !
 ! R18   R(16,17)                1.0966         calculate D2E/DX2 analytically  !
 ! R19   R(16,18)                1.0901         calculate D2E/DX2 analytically  !
 ! R20   R(16,19)                1.095          calculate D2E/DX2 analytically  !
 ! R21   R(20,21)                1.2273         calculate D2E/DX2 analytically  !
 ! R22   R(20,22)                1.1105         calculate D2E/DX2 analytically  !
 ! A1    A(2,1,4)              111.1952         calculate D2E/DX2 analytically  !
 ! A2    A(2,1,5)               89.3126         calculate D2E/DX2 analytically  !
 ! A3    A(2,1,6)               90.6411         calculate D2E/DX2 analytically  !
 ! A4    A(4,1,5)              119.7563         calculate D2E/DX2 analytically  !
 ! A5    A(4,1,6)              119.6011         calculate D2E/DX2 analytically  !
 ! A6    A(5,1,6)              115.8664         calculate D2E/DX2 analytically  !
 ! A7    A(1,2,8)              101.2308         calculate D2E/DX2 analytically  !
 ! A8    A(1,2,10)             103.1046         calculate D2E/DX2 analytically  !
 ! A9    A(1,2,13)              88.4363         calculate D2E/DX2 analytically  !
 ! A10   A(8,2,10)             118.2581         calculate D2E/DX2 analytically  !
 ! A11   A(8,2,13)             119.932          calculate D2E/DX2 analytically  !
 ! A12   A(10,2,13)            116.5906         calculate D2E/DX2 analytically  !
 ! A13   A(4,3,9)               99.2965         calculate D2E/DX2 analytically  !
 ! A14   A(4,3,11)             104.8818         calculate D2E/DX2 analytically  !
 ! A15   A(4,3,14)              81.7609         calculate D2E/DX2 analytically  !
 ! A16   A(9,3,11)             119.8899         calculate D2E/DX2 analytically  !
 ! A17   A(9,3,14)             121.9181         calculate D2E/DX2 analytically  !
 ! A18   A(11,3,14)            115.5472         calculate D2E/DX2 analytically  !
 ! A19   A(1,4,3)              105.6753         calculate D2E/DX2 analytically  !
 ! A20   A(1,4,7)              121.836          calculate D2E/DX2 analytically  !
 ! A21   A(1,4,20)             118.522          calculate D2E/DX2 analytically  !
 ! A22   A(3,4,7)               89.4081         calculate D2E/DX2 analytically  !
 ! A23   A(3,4,20)              96.4615         calculate D2E/DX2 analytically  !
 ! A24   A(7,4,20)             114.8127         calculate D2E/DX2 analytically  !
 ! A25   A(2,8,9)              121.0785         calculate D2E/DX2 analytically  !
 ! A26   A(2,8,15)             115.7167         calculate D2E/DX2 analytically  !
 ! A27   A(9,8,15)             122.2966         calculate D2E/DX2 analytically  !
 ! A28   A(3,9,8)              120.9976         calculate D2E/DX2 analytically  !
 ! A29   A(3,9,12)             118.078          calculate D2E/DX2 analytically  !
 ! A30   A(8,9,12)             119.2697         calculate D2E/DX2 analytically  !
 ! A31   A(8,15,16)            118.5075         calculate D2E/DX2 analytically  !
 ! A32   A(15,16,17)           111.4636         calculate D2E/DX2 analytically  !
 ! A33   A(15,16,18)           105.8188         calculate D2E/DX2 analytically  !
 ! A34   A(15,16,19)           111.3425         calculate D2E/DX2 analytically  !
 ! A35   A(17,16,18)           108.9956         calculate D2E/DX2 analytically  !
 ! A36   A(17,16,19)           109.5295         calculate D2E/DX2 analytically  !
 ! A37   A(18,16,19)           109.5975         calculate D2E/DX2 analytically  !
 ! A38   A(4,20,21)            122.2249         calculate D2E/DX2 analytically  !
 ! A39   A(4,20,22)            115.5502         calculate D2E/DX2 analytically  !
 ! A40   A(21,20,22)           122.2249         calculate D2E/DX2 analytically  !
 ! D1    D(4,1,2,8)            -47.7958         calculate D2E/DX2 analytically  !
 ! D2    D(4,1,2,10)          -170.6033         calculate D2E/DX2 analytically  !
 ! D3    D(4,1,2,13)            72.4348         calculate D2E/DX2 analytically  !
 ! D4    D(5,1,2,8)             74.0549         calculate D2E/DX2 analytically  !
 ! D5    D(5,1,2,10)           -48.7526         calculate D2E/DX2 analytically  !
 ! D6    D(5,1,2,13)          -165.7144         calculate D2E/DX2 analytically  !
 ! D7    D(6,1,2,8)           -170.0834         calculate D2E/DX2 analytically  !
 ! D8    D(6,1,2,10)            67.1091         calculate D2E/DX2 analytically  !
 ! D9    D(6,1,2,13)           -49.8528         calculate D2E/DX2 analytically  !
 ! D10   D(2,1,4,3)             -4.887          calculate D2E/DX2 analytically  !
 ! D11   D(2,1,4,7)           -104.1873         calculate D2E/DX2 analytically  !
 ! D12   D(2,1,4,20)           101.7037         calculate D2E/DX2 analytically  !
 ! D13   D(5,1,4,3)           -106.8259         calculate D2E/DX2 analytically  !
 ! D14   D(5,1,4,7)            153.8738         calculate D2E/DX2 analytically  !
 ! D15   D(5,1,4,20)            -0.2352         calculate D2E/DX2 analytically  !
 ! D16   D(6,1,4,3)             98.6517         calculate D2E/DX2 analytically  !
 ! D17   D(6,1,4,7)             -0.6486         calculate D2E/DX2 analytically  !
 ! D18   D(6,1,4,20)          -154.7576         calculate D2E/DX2 analytically  !
 ! D19   D(1,2,8,9)             62.6056         calculate D2E/DX2 analytically  !
 ! D20   D(1,2,8,15)          -106.7287         calculate D2E/DX2 analytically  !
 ! D21   D(10,2,8,9)           174.2694         calculate D2E/DX2 analytically  !
 ! D22   D(10,2,8,15)            4.9352         calculate D2E/DX2 analytically  !
 ! D23   D(13,2,8,9)           -32.1108         calculate D2E/DX2 analytically  !
 ! D24   D(13,2,8,15)          158.5549         calculate D2E/DX2 analytically  !
 ! D25   D(9,3,4,1)             56.2031         calculate D2E/DX2 analytically  !
 ! D26   D(9,3,4,7)            179.2275         calculate D2E/DX2 analytically  !
 ! D27   D(9,3,4,20)           -65.8628         calculate D2E/DX2 analytically  !
 ! D28   D(11,3,4,1)          -179.3256         calculate D2E/DX2 analytically  !
 ! D29   D(11,3,4,7)           -56.3012         calculate D2E/DX2 analytically  !
 ! D30   D(11,3,4,20)           58.6085         calculate D2E/DX2 analytically  !
 ! D31   D(14,3,4,1)           -64.9702         calculate D2E/DX2 analytically  !
 ! D32   D(14,3,4,7)            58.0543         calculate D2E/DX2 analytically  !
 ! D33   D(14,3,4,20)          172.9639         calculate D2E/DX2 analytically  !
 ! D34   D(4,3,9,8)            -59.1644         calculate D2E/DX2 analytically  !
 ! D35   D(4,3,9,12)           106.0673         calculate D2E/DX2 analytically  !
 ! D36   D(11,3,9,8)          -172.3844         calculate D2E/DX2 analytically  !
 ! D37   D(11,3,9,12)           -7.1527         calculate D2E/DX2 analytically  !
 ! D38   D(14,3,9,8)            26.8724         calculate D2E/DX2 analytically  !
 ! D39   D(14,3,9,12)         -167.896          calculate D2E/DX2 analytically  !
 ! D40   D(1,4,20,21)            0.0            calculate D2E/DX2 analytically  !
 ! D41   D(1,4,20,22)          179.9978         calculate D2E/DX2 analytically  !
 ! D42   D(3,4,20,21)          111.7786         calculate D2E/DX2 analytically  !
 ! D43   D(3,4,20,22)          -68.2236         calculate D2E/DX2 analytically  !
 ! D44   D(7,4,20,21)         -155.8769         calculate D2E/DX2 analytically  !
 ! D45   D(7,4,20,22)           24.1209         calculate D2E/DX2 analytically  !
 ! D46   D(2,8,9,3)             -2.5404         calculate D2E/DX2 analytically  !
 ! D47   D(2,8,9,12)          -167.5992         calculate D2E/DX2 analytically  !
 ! D48   D(15,8,9,3)           166.0825         calculate D2E/DX2 analytically  !
 ! D49   D(15,8,9,12)            1.0237         calculate D2E/DX2 analytically  !
 ! D50   D(2,8,15,16)          164.072          calculate D2E/DX2 analytically  !
 ! D51   D(9,8,15,16)           -5.1196         calculate D2E/DX2 analytically  !
 ! D52   D(8,15,16,17)          65.4511         calculate D2E/DX2 analytically  !
 ! D53   D(8,15,16,18)        -176.1951         calculate D2E/DX2 analytically  !
 ! D54   D(8,15,16,19)         -57.1835         calculate D2E/DX2 analytically  !
 --------------------------------------------------------------------------------
 Trust Radius=3.00D-01 FncErr=1.00D-07 GrdErr=1.00D-06 EigMax=2.50D+02 EigMin=1.00D-04
 Number of steps in this run=    126 maximum allowed number of steps=    132.
 Search for a saddle point of order  1.
 GradGradGradGradGradGradGradGradGradGradGradGradGradGradGradGradGradGrad

                          Input orientation:                          
 ---------------------------------------------------------------------
 Center     Atomic      Atomic             Coordinates (Angstroms)
 Number     Number       Type             X           Y           Z
 ---------------------------------------------------------------------
      1          6           0        0.517861    1.546603   -1.104210
      2          6           0       -1.619563    1.692014   -0.457688
      3          6           0       -0.099773    0.889238    1.796375
      4          6           0        1.313428    1.072729   -0.087970
      5          1           0        0.216549    0.882247   -1.905926
      6          1           0        0.529626    2.603796   -1.345089
      7          1           0        1.966434    1.726456    0.479466
      8          6           0       -1.806995    0.460308    0.127638
      9          6           0       -1.062362    0.071906    1.271824
     10          1           0       -2.142745    1.905555   -1.383904
     11          1           0        0.542365    0.526757    2.591951
     12          1           0       -1.079740   -0.964948    1.588830
     13          1           0       -1.346682    2.542567    0.151064
     14          1           0       -0.136204    1.964990    1.679272
     15          8           0       -2.564595   -0.421710   -0.581314
     16          6           0       -2.519956   -1.788266   -0.224378
     17          1           0       -2.936224   -1.955423    0.776263
     18          1           0       -3.138201   -2.307114   -0.957081
     19          1           0       -1.497284   -2.177617   -0.265149
     20          6           0        1.748768   -0.404052   -0.122565
     21          8           0        1.409498   -1.165439   -1.023395
     22          1           0        2.390089   -0.734220    0.721716
 ---------------------------------------------------------------------
                    Distance matrix (angstroms):
                    1          2          3          4          5
     1  C    0.000000
     2  C    2.237793   0.000000
     3  C    3.037597   2.834609   0.000000
     4  C    1.374855   3.020371   2.362533   0.000000
     5  H    1.083931   2.474757   3.715796   2.131758   0.000000
     6  H    1.084351   2.497567   3.633820   2.130460   1.837467
     7  H    2.153774   3.706591   2.589285   1.084324   3.076505
     8  C    2.846479   1.376531   2.425546   3.187254   2.899680
     9  C    3.212067   2.434427   1.367393   2.914629   3.519994
    10  H    2.699241   1.084986   3.914181   3.783937   2.624106
    11  H    3.834357   3.915617   1.084746   2.841584   4.523652
    12  H    4.014061   3.396924   2.107467   3.562448   4.160026
    13  H    2.458491   1.080964   2.644868   3.048565   3.071085
    14  H    2.889744   2.615620   1.082720   2.453713   3.761703
    15  O    3.694484   2.318663   3.667061   4.185188   3.345095
    16  C    4.596062   3.602428   4.136394   4.785262   4.177045
    17  H    5.266030   4.069401   4.144657   5.289248   5.018614
    18  H    5.314092   4.306818   5.199061   5.656474   4.725111
    19  H    4.316787   3.876347   3.950762   4.300726   3.871969
    20  C    2.506754   3.981389   2.961762   1.540000   2.680044
    21  O    2.855997   4.202413   3.801407   2.427683   2.528835
    22  H    3.470072   4.832693   3.160684   2.253853   3.773824
                    6          7          8          9         10
     6  H    0.000000
     7  H    2.482568   0.000000
     8  C    3.496178   3.995708   0.000000
     9  C    3.974057   3.541041   1.419329   0.000000
    10  H    2.762357   4.515482   2.118071   3.403291   0.000000
    11  H    4.451352   2.815998   3.405400   2.127151   4.991826
    12  H    4.892226   4.213493   2.166873   1.084371   4.266956
    13  H    2.400574   3.427918   2.132660   2.727839   1.842723
    14  H    3.161987   2.432595   2.731882   2.146520   3.662347
    15  O    4.394456   5.125436   1.361810   2.436079   2.497653
    16  C    5.463163   5.742505   2.385019   2.797041   3.889872
    17  H    6.107268   6.138434   2.744381   2.804818   4.494784
    18  H    6.141705   6.662631   3.256893   3.864824   4.349677
    19  H    5.304389   5.271962   2.684930   2.758949   4.282584
    20  C    3.468144   2.224609   3.667857   3.173848   4.697780
    21  O    3.883914   3.306331   3.783353   3.592930   4.709501
    22  H    4.344578   2.508604   4.404014   3.587740   5.652312
                   11         12         13         14         15
    11  H    0.000000
    12  H    2.421293   0.000000
    13  H    3.686451   3.800143   0.000000
    14  H    1.833563   3.079444   2.033291   0.000000
    15  O    4.541189   2.685038   3.287344   4.087012   0.000000
    16  C    4.761182   2.457600   4.502626   4.836640   1.413107
    17  H    4.643116   2.255624   4.811386   4.901548   2.081682
    18  H    5.845769   3.538408   5.287431   5.849206   2.006234
    19  H    4.431346   2.254362   4.740891   4.774359   2.079020
    20  C    3.112943   3.353198   4.282435   3.523081   4.337726
    21  O    4.084871   3.613893   4.767094   4.415109   4.067184
    22  H    2.915806   3.583969   5.002643   3.819006   5.132684
                   16         17         18         19         20
    16  C    0.000000
    17  H    1.096587   0.000000
    18  H    1.090084   1.780158   0.000000
    19  H    1.095041   1.790100   1.785539   0.000000
    20  C    4.488699   5.016353   5.310417   3.701718   0.000000
    21  O    4.057949   4.769501   4.689284   3.169988   1.227317
    22  H    5.110250   5.464790   5.987850   4.262508   1.110457
                   21         22
    21  O    0.000000
    22  H    2.047663   0.000000
 Stoichiometry    C8H12O2
 Framework group  C1[X(C8H12O2)]
 Deg. of freedom    60
 Full point group                 C1      NOp   1
 Largest Abelian subgroup         C1      NOp   1
 Largest concise Abelian subgroup C1      NOp   1
                         Standard orientation:                         
 ---------------------------------------------------------------------
 Center     Atomic      Atomic             Coordinates (Angstroms)
 Number     Number       Type             X           Y           Z
 ---------------------------------------------------------------------
      1          6           0       -1.379621   -0.788792   -1.229861
      2          6           0        0.635088   -1.658784   -0.791938
      3          6           0       -0.549097   -0.960340    1.686951
      4          6           0       -1.986777   -0.338242   -0.081561
      5          1           0       -0.912726   -0.080801   -1.904891
      6          1           0       -1.700697   -1.724568   -1.673766
      7          1           0       -2.791192   -0.888430    0.393802
      8          6           0        1.180616   -0.681618    0.009550
      9          6           0        0.599667   -0.352455    1.262006
     10          1           0        1.058351   -1.808547   -1.779670
     11          1           0       -1.045364   -0.610185    2.585720
     12          1           0        0.921527    0.546571    1.775834
     13          1           0        0.138282   -2.508199   -0.344543
     14          1           0       -0.827308   -1.953187    1.356595
     15          8           0        2.148755    0.083165   -0.566941
     16          6           0        2.507279    1.299826    0.056010
     17          1           0        2.971036    1.128075    1.034751
     18          1           0        3.236611    1.768426   -0.604878
     19          1           0        1.640358    1.958650    0.172256
     20          6           0       -1.976977    1.173718    0.210810
     21          8           0       -1.447376    1.982991   -0.544774
     22          1           0       -2.480979    1.483059    1.150707
 ---------------------------------------------------------------------
 Rotational constants (GHZ):           1.6786797           1.0358661           0.8995369
 Standard basis: 6-31G(d) (6D, 7F)
 There are   174 symmetry adapted cartesian basis functions of A   symmetry.
 There are   174 symmetry adapted basis functions of A   symmetry.
   174 basis functions,   328 primitive gaussians,   174 cartesian basis functions
    38 alpha electrons       38 beta electrons
       nuclear repulsion energy       533.5392004611 Hartrees.
 NAtoms=   22 NActive=   22 NUniq=   22 SFac= 1.00D+00 NAtFMM=   60 NAOKFM=F Big=F
 Integral buffers will be    131072 words long.
 Raffenetti 2 integral format.
 Two-electron integral symmetry is turned on.
 One-electron integrals computed using PRISM.
 NBasis=   174 RedAO= T EigKep=  1.84D-03  NBF=   174
 NBsUse=   174 1.00D-06 EigRej= -1.00D+00 NBFU=   174
 ExpMin= 1.61D-01 ExpMax= 5.48D+03 ExpMxC= 8.25D+02 IAcc=3 IRadAn=         5 AccDes= 0.00D+00
 Harris functional with IExCor= 1009 and IRadAn=       5 diagonalized for initial guess.
 HarFok:  IExCor= 1009 AccDes= 0.00D+00 IRadAn=         5 IDoV= 1 UseB2=F ITyADJ=14
 ICtDFT=  3500011 ScaDFX=  1.000000  1.000000  1.000000  1.000000
 FoFCou: FMM=F IPFlag=           0 FMFlag=      100000 FMFlg1=           0
         NFxFlg=           0 DoJE=T BraDBF=F KetDBF=T FulRan=T
         wScrn=  0.000000 ICntrl=       500 IOpCl=  0 I1Cent=   200000004 NGrid=           0
         NMat0=    1 NMatS0=      1 NMatT0=    0 NMatD0=    1 NMtDS0=    0 NMtDT0=    0
 Petite list used in FoFCou.
 Requested convergence on RMS density matrix=1.00D-08 within 128 cycles.
 Requested convergence on MAX density matrix=1.00D-06.
 Requested convergence on             energy=1.00D-06.
 No special actions if energy rises.
 Integral accuracy reduced to 1.0D-05 until final iterations.
 Initial convergence to 1.0D-05 achieved.  Increase integral accuracy.
 SCF Done:  E(RM062X) =  -462.175013019     A.U. after   16 cycles
            NFock= 16  Conv=0.73D-08     -V/T= 2.0089
 DoSCS=F DFT=T ScalE2(SS,OS)=  1.000000  1.000000
 Range of M.O.s used for correlation:     1   174
 NBasis=   174 NAE=    38 NBE=    38 NFC=     0 NFV=     0
 NROrb=    174 NOA=    38 NOB=    38 NVA=   136 NVB=   136
 Symmetrizing basis deriv contribution to polar:
 IMax=3 JMax=2 DiffMx= 0.00D+00
 G2DrvN: will do    23 centers at a time, making    1 passes.
 Calling FoFCou, ICntrl=  3107 FMM=F I1Cent=   0 AccDes= 0.00D+00.
 End of G2Drv F.D. properties file   721 does not exist.
 End of G2Drv F.D. properties file   722 does not exist.
 End of G2Drv F.D. properties file   788 does not exist.
          IDoAtm=1111111111111111111111
          Differentiating once with respect to nuclear coordinates.
 CalDSu exits because no D1Ps are significant.
          There are    69 degrees of freedom in the 1st order CPHF.  IDoFFX=6 NUNeed=     0.
     63 vectors produced by pass  0 Test12= 7.49D-15 1.45D-09 XBig12= 8.30D-02 1.15D-01.
 AX will form    63 AO Fock derivatives at one time.
     63 vectors produced by pass  1 Test12= 7.49D-15 1.45D-09 XBig12= 6.97D-03 1.73D-02.
     63 vectors produced by pass  2 Test12= 7.49D-15 1.45D-09 XBig12= 1.07D-04 2.38D-03.
     63 vectors produced by pass  3 Test12= 7.49D-15 1.45D-09 XBig12= 6.74D-07 1.03D-04.
     63 vectors produced by pass  4 Test12= 7.49D-15 1.45D-09 XBig12= 3.22D-09 6.19D-06.
     63 vectors produced by pass  5 Test12= 7.49D-15 1.45D-09 XBig12= 8.61D-12 3.17D-07.
     29 vectors produced by pass  6 Test12= 7.49D-15 1.45D-09 XBig12= 2.32D-14 2.24D-08.
 InvSVY:  IOpt=1 It=  1 EMax= 3.89D-16
 Solved reduced A of dimension   407 with    69 vectors.
 End of Minotr F.D. properties file   721 does not exist.
 End of Minotr F.D. properties file   722 does not exist.
 End of Minotr F.D. properties file   788 does not exist.

 **********************************************************************

            Population analysis using the SCF Density.

 **********************************************************************

 Orbital symmetries:
       Occupied  (A) (A) (A) (A) (A) (A) (A) (A) (A) (A) (A) (A)
                 (A) (A) (A) (A) (A) (A) (A) (A) (A) (A) (A) (A)
                 (A) (A) (A) (A) (A) (A) (A) (A) (A) (A) (A) (A)
                 (A) (A)
       Virtual   (A) (A) (A) (A) (A) (A) (A) (A) (A) (A) (A) (A)
                 (A) (A) (A) (A) (A) (A) (A) (A) (A) (A) (A) (A)
                 (A) (A) (A) (A) (A) (A) (A) (A) (A) (A) (A) (A)
                 (A) (A) (A) (A) (A) (A) (A) (A) (A) (A) (A) (A)
                 (A) (A) (A) (A) (A) (A) (A) (A) (A) (A) (A) (A)
                 (A) (A) (A) (A) (A) (A) (A) (A) (A) (A) (A) (A)
                 (A) (A) (A) (A) (A) (A) (A) (A) (A) (A) (A) (A)
                 (A) (A) (A) (A) (A) (A) (A) (A) (A) (A) (A) (A)
                 (A) (A) (A) (A) (A) (A) (A) (A) (A) (A) (A) (A)
                 (A) (A) (A) (A) (A) (A) (A) (A) (A) (A) (A) (A)
                 (A) (A) (A) (A) (A) (A) (A) (A) (A) (A) (A) (A)
                 (A) (A) (A) (A)
 The electronic state is 1-A.
 Alpha  occ. eigenvalues --  -19.66659 -19.62649 -10.62960 -10.61066 -10.59458
 Alpha  occ. eigenvalues --  -10.56837 -10.55406 -10.55144 -10.55026 -10.54915
 Alpha  occ. eigenvalues --   -1.18564  -1.14159  -0.91913  -0.85770  -0.84202
 Alpha  occ. eigenvalues --   -0.77605  -0.72033  -0.71772  -0.62389  -0.60865
 Alpha  occ. eigenvalues --   -0.58813  -0.56745  -0.54764  -0.54339  -0.50503
 Alpha  occ. eigenvalues --   -0.49285  -0.48141  -0.47260  -0.46753  -0.45305
 Alpha  occ. eigenvalues --   -0.44510  -0.42664  -0.42079  -0.39271  -0.36533
 Alpha  occ. eigenvalues --   -0.31262  -0.29254  -0.25669
 Alpha virt. eigenvalues --   -0.00014   0.02189   0.08952   0.13180   0.14009
 Alpha virt. eigenvalues --    0.15175   0.16367   0.18239   0.18924   0.19788
 Alpha virt. eigenvalues --    0.20740   0.21666   0.21939   0.22999   0.23801
 Alpha virt. eigenvalues --    0.26415   0.29088   0.31609   0.32968   0.34465
 Alpha virt. eigenvalues --    0.36314   0.37612   0.40775   0.45132   0.53362
 Alpha virt. eigenvalues --    0.54319   0.55343   0.57895   0.60051   0.61242
 Alpha virt. eigenvalues --    0.61386   0.62999   0.64247   0.65661   0.66986
 Alpha virt. eigenvalues --    0.69282   0.69975   0.72285   0.74411   0.77416
 Alpha virt. eigenvalues --    0.77486   0.80136   0.82685   0.85090   0.85228
 Alpha virt. eigenvalues --    0.89659   0.90522   0.91586   0.92185   0.93155
 Alpha virt. eigenvalues --    0.93855   0.94793   0.96152   0.98848   1.00657
 Alpha virt. eigenvalues --    1.01238   1.02391   1.03524   1.05522   1.07830
 Alpha virt. eigenvalues --    1.09327   1.09733   1.12581   1.14191   1.15995
 Alpha virt. eigenvalues --    1.19934   1.21780   1.22312   1.26113   1.27526
 Alpha virt. eigenvalues --    1.34591   1.40893   1.41508   1.42798   1.46477
 Alpha virt. eigenvalues --    1.52104   1.55423   1.58218   1.60482   1.60988
 Alpha virt. eigenvalues --    1.68196   1.71672   1.74978   1.76951   1.79257
 Alpha virt. eigenvalues --    1.83332   1.86159   1.89857   1.92185   1.93777
 Alpha virt. eigenvalues --    1.95728   1.98875   2.00203   2.02893   2.06604
 Alpha virt. eigenvalues --    2.07244   2.10749   2.13724   2.14420   2.17068
 Alpha virt. eigenvalues --    2.18930   2.20167   2.22635   2.26183   2.28493
 Alpha virt. eigenvalues --    2.30011   2.31620   2.37400   2.38061   2.41104
 Alpha virt. eigenvalues --    2.44276   2.53902   2.56117   2.57533   2.59438
 Alpha virt. eigenvalues --    2.60864   2.63067   2.65398   2.71551   2.77346
 Alpha virt. eigenvalues --    2.78840   2.90098   2.95536   3.03749   3.13354
 Alpha virt. eigenvalues --    3.14532   3.90346   4.11241   4.15108   4.25889
 Alpha virt. eigenvalues --    4.29681   4.32177   4.36640   4.40449   4.55213
 Alpha virt. eigenvalues --    4.64905
          Condensed to atoms (all electrons):
               1          2          3          4          5          6
     1  C    5.105950   0.091715  -0.016951   0.516314   0.388046   0.376251
     2  C    0.091715   5.273618  -0.026478  -0.020360  -0.015284  -0.011086
     3  C   -0.016951  -0.026478   5.130981   0.069215   0.000615   0.000771
     4  C    0.516314  -0.020360   0.069215   5.301330  -0.042628  -0.033714
     5  H    0.388046  -0.015284   0.000615  -0.042628   0.481557  -0.030578
     6  H    0.376251  -0.011086   0.000771  -0.033714  -0.030578   0.527277
     7  H   -0.040518   0.001092  -0.008314   0.362048   0.003996  -0.005056
     8  C   -0.010045   0.565761  -0.028860  -0.020931  -0.004850   0.000698
     9  C   -0.021318  -0.081714   0.546515  -0.028563  -0.000003   0.000438
    10  H   -0.005030   0.359340   0.000249   0.000875  -0.000537  -0.000024
    11  H    0.000815   0.000489   0.371788  -0.004797  -0.000012  -0.000023
    12  H    0.000049   0.005481  -0.048809  -0.000019  -0.000001   0.000003
    13  H   -0.012594   0.371195   0.001989  -0.004905   0.000941  -0.002793
    14  H   -0.004920   0.005780   0.380832  -0.012304  -0.000034   0.000373
    15  O   -0.000540  -0.074743   0.004148   0.000207   0.001300   0.000003
    16  C    0.000067   0.005279   0.000036   0.000104   0.000021   0.000001
    17  H    0.000001  -0.000104   0.000003   0.000022   0.000008   0.000000
    18  H   -0.000001  -0.000142  -0.000003  -0.000001  -0.000001  -0.000000
    19  H   -0.000005   0.000243  -0.000323  -0.000340  -0.000103  -0.000001
    20  C   -0.027827  -0.001351  -0.002547   0.339395  -0.007730   0.003398
    21  O    0.000458  -0.000032  -0.001698  -0.089754   0.012443   0.000235
    22  H    0.007082  -0.000053   0.000404  -0.105563   0.000664  -0.000091
               7          8          9         10         11         12
     1  C   -0.040518  -0.010045  -0.021318  -0.005030   0.000815   0.000049
     2  C    0.001092   0.565761  -0.081714   0.359340   0.000489   0.005481
     3  C   -0.008314  -0.028860   0.546515   0.000249   0.371788  -0.048809
     4  C    0.362048  -0.020931  -0.028563   0.000875  -0.004797  -0.000019
     5  H    0.003996  -0.004850  -0.000003  -0.000537  -0.000012  -0.000001
     6  H   -0.005056   0.000698   0.000438  -0.000024  -0.000023   0.000003
     7  H    0.548051   0.000265   0.000674  -0.000014   0.000367  -0.000033
     8  C    0.000265   4.423773   0.495242  -0.022129   0.003438  -0.040787
     9  C    0.000674   0.495242   4.993856   0.006367  -0.025977   0.374063
    10  H   -0.000014  -0.022129   0.006367   0.502408  -0.000005  -0.000125
    11  H    0.000367   0.003438  -0.025977  -0.000005   0.518697  -0.005849
    12  H   -0.000033  -0.040787   0.374063  -0.000125  -0.005849   0.545210
    13  H    0.000125  -0.024765  -0.006877  -0.028395   0.000061   0.000020
    14  H   -0.002362  -0.011715  -0.033725  -0.000038  -0.034148   0.004419
    15  O   -0.000002   0.298749  -0.056447   0.000129  -0.000047  -0.008288
    16  C   -0.000000  -0.048294  -0.007018  -0.000003  -0.000006   0.006632
    17  H   -0.000000  -0.004782   0.001610   0.000026   0.000005   0.000066
    18  H    0.000000   0.003489   0.000477  -0.000034  -0.000000   0.000011
    19  H    0.000001  -0.001692   0.002857   0.000025   0.000016   0.001441
    20  C   -0.029269  -0.001452   0.000021  -0.000008  -0.000525   0.000653
    21  O    0.002519   0.001608   0.000405   0.000001   0.000032  -0.000085
    22  H    0.003363   0.000027   0.000583   0.000000   0.001124   0.000028
              13         14         15         16         17         18
     1  C   -0.012594  -0.004920  -0.000540   0.000067   0.000001  -0.000001
     2  C    0.371195   0.005780  -0.074743   0.005279  -0.000104  -0.000142
     3  C    0.001989   0.380832   0.004148   0.000036   0.000003  -0.000003
     4  C   -0.004905  -0.012304   0.000207   0.000104   0.000022  -0.000001
     5  H    0.000941  -0.000034   0.001300   0.000021   0.000008  -0.000001
     6  H   -0.002793   0.000373   0.000003   0.000001   0.000000  -0.000000
     7  H    0.000125  -0.002362  -0.000002  -0.000000  -0.000000   0.000000
     8  C   -0.024765  -0.011715   0.298749  -0.048294  -0.004782   0.003489
     9  C   -0.006877  -0.033725  -0.056447  -0.007018   0.001610   0.000477
    10  H   -0.028395  -0.000038   0.000129  -0.000003   0.000026  -0.000034
    11  H    0.000061  -0.034148  -0.000047  -0.000006   0.000005  -0.000000
    12  H    0.000020   0.004419  -0.008288   0.006632   0.000066   0.000011
    13  H    0.518713   0.003550   0.002741  -0.000162   0.000014   0.000003
    14  H    0.003550   0.524081  -0.000009   0.000009  -0.000008   0.000001
    15  O    0.002741  -0.000009   8.225399   0.228845  -0.036653  -0.033467
    16  C   -0.000162   0.000009   0.228845   4.930811   0.374041   0.391063
    17  H    0.000014  -0.000008  -0.036653   0.374041   0.583329  -0.031120
    18  H    0.000003   0.000001  -0.033467   0.391063  -0.031120   0.507387
    19  H   -0.000012   0.000004  -0.036082   0.368180  -0.045179  -0.025817
    20  C   -0.000001   0.000378   0.000098  -0.000087   0.000012  -0.000000
    21  O   -0.000004  -0.000001  -0.000125  -0.000718  -0.000004   0.000001
    22  H    0.000000   0.000051  -0.000001  -0.000004   0.000000  -0.000000
              19         20         21         22
     1  C   -0.000005  -0.027827   0.000458   0.007082
     2  C    0.000243  -0.001351  -0.000032  -0.000053
     3  C   -0.000323  -0.002547  -0.001698   0.000404
     4  C   -0.000340   0.339395  -0.089754  -0.105563
     5  H   -0.000103  -0.007730   0.012443   0.000664
     6  H   -0.000001   0.003398   0.000235  -0.000091
     7  H    0.000001  -0.029269   0.002519   0.003363
     8  C   -0.001692  -0.001452   0.001608   0.000027
     9  C    0.002857   0.000021   0.000405   0.000583
    10  H    0.000025  -0.000008   0.000001   0.000000
    11  H    0.000016  -0.000525   0.000032   0.001124
    12  H    0.001441   0.000653  -0.000085   0.000028
    13  H   -0.000012  -0.000001  -0.000004   0.000000
    14  H    0.000004   0.000378  -0.000001   0.000051
    15  O   -0.036082   0.000098  -0.000125  -0.000001
    16  C    0.368180  -0.000087  -0.000718  -0.000004
    17  H   -0.045179   0.000012  -0.000004   0.000000
    18  H   -0.025817  -0.000000   0.000001  -0.000000
    19  H    0.552409   0.000345   0.003405   0.000025
    20  C    0.000345   4.584481   0.546525   0.355774
    21  O    0.003405   0.546525   8.011833  -0.053533
    22  H    0.000025   0.355774  -0.053533   0.668207
 Mulliken charges:
               1
     1  C   -0.347000
     2  C   -0.448647
     3  C   -0.373566
     4  C   -0.225632
     5  H    0.212167
     6  H    0.173917
     7  H    0.163067
     8  C    0.427251
     9  C   -0.161467
    10  H    0.186922
    11  H    0.174559
    12  H    0.165920
    13  H    0.181152
    14  H    0.179785
    15  O   -0.515217
    16  C   -0.248799
    17  H    0.158713
    18  H    0.188153
    19  H    0.180605
    20  C    0.239717
    21  O   -0.433512
    22  H    0.121912
 Sum of Mulliken charges =  -0.00000
 Mulliken charges with hydrogens summed into heavy atoms:
               1
     1  C    0.039084
     2  C   -0.080572
     3  C   -0.019222
     4  C   -0.062565
     8  C    0.427251
     9  C    0.004453
    15  O   -0.515217
    16  C    0.278671
    20  C    0.361628
    21  O   -0.433512
 APT charges:
               1
     1  C   -0.910602
     2  C   -0.840405
     3  C   -0.842938
     4  C   -0.626518
     5  H    0.326054
     6  H    0.591912
     7  H    0.575511
     8  C   -0.054319
     9  C   -0.484887
    10  H    0.533633
    11  H    0.552605
    12  H    0.415016
    13  H    0.469006
    14  H    0.441915
    15  O   -0.258818
    16  C   -1.158470
    17  H    0.460782
    18  H    0.702858
    19  H    0.205163
    20  C   -0.283402
    21  O   -0.284532
    22  H    0.470438
 Sum of APT charges =  -0.00000
 APT charges with hydrogens summed into heavy atoms:
               1
     1  C    0.007364
     2  C    0.162233
     3  C    0.151582
     4  C   -0.051007
     8  C   -0.054319
     9  C   -0.069871
    15  O   -0.258818
    16  C    0.210333
    20  C    0.187036
    21  O   -0.284532
 Electronic spatial extent (au):  <R**2>=           1508.7397
 Charge=             -0.0000 electrons
 Dipole moment (field-independent basis, Debye):
    X=             -0.0575    Y=             -1.6916    Z=              1.9687  Tot=              2.5962
 Quadrupole moment (field-independent basis, Debye-Ang):
   XX=            -58.0727   YY=            -61.5379   ZZ=            -58.5540
   XY=              7.7197   XZ=             -2.2898   YZ=              4.3328
 Traceless Quadrupole moment (field-independent basis, Debye-Ang):
   XX=              1.3155   YY=             -2.1497   ZZ=              0.8342
   XY=              7.7197   XZ=             -2.2898   YZ=              4.3328
 Octapole moment (field-independent basis, Debye-Ang**2):
  XXX=              2.7244  YYY=             -7.9537  ZZZ=             -4.8377  XYY=              9.4854
  XXY=             11.7288  XXZ=              8.3940  XZZ=             -1.3327  YZZ=              2.1628
  YYZ=              0.4232  XYZ=             -2.4167
 Hexadecapole moment (field-independent basis, Debye-Ang**3):
 XXXX=           -996.0739 YYYY=           -570.9822 ZZZZ=           -375.4108 XXXY=             26.9168
 XXXZ=            -14.0097 YYYX=             29.8584 YYYZ=              9.7785 ZZZX=            -13.5980
 ZZZY=              8.0393 XXYY=           -253.4635 XXZZ=           -234.4027 YYZZ=           -155.4740
 XXYZ=              4.6526 YYXZ=            -12.4858 ZZXY=              2.9350
 N-N= 5.335392004611D+02 E-N=-2.143143919447D+03  KE= 4.581167986702D+02
  Exact polarizability:       0.000       0.000       0.000       0.000       0.000       0.000
 Approx polarizability:     137.373       4.199     112.404      -8.625       7.103     128.088
 Calling FoFJK, ICntrl=    100127 FMM=F ISym2X=0 I1Cent= 0 IOpClX= 0 NMat=1 NMatS=1 NMatT=0.
 ***** Axes restored to original set *****
 -------------------------------------------------------------------
 Center     Atomic                   Forces (Hartrees/Bohr)
 Number     Number              X              Y              Z
 -------------------------------------------------------------------
      1        6          -0.006691217    0.003634343   -0.002999623
      2        6           0.004380649    0.002575993   -0.002122757
      3        6           0.001470057   -0.001910317   -0.000797418
      4        6           0.018132176   -0.034217642   -0.000923971
      5        1           0.002345779   -0.002095961    0.000283532
      6        1          -0.000641074    0.000923286   -0.000207537
      7        1          -0.002137844    0.002368018    0.003072778
      8        6           0.000662821   -0.004711579    0.000778130
      9        6          -0.001498348   -0.001360862   -0.000921536
     10        1           0.000047841   -0.000032545    0.000114077
     11        1          -0.000018279    0.000011512    0.001434183
     12        1          -0.000559443   -0.000074322    0.000065031
     13        1          -0.000541313    0.000100353    0.000168249
     14        1           0.001058700   -0.000256593   -0.000120649
     15        8           0.000044422    0.001116673    0.001404486
     16        6          -0.000513641    0.000417859   -0.000181552
     17        1           0.000026546    0.000116919    0.000080117
     18        1           0.000199048    0.000042513   -0.000005040
     19        1           0.001223410    0.000054374   -0.000779527
     20        6          -0.022185242    0.022048188   -0.020782393
     21        8           0.005686286    0.012306291    0.025414904
     22        1          -0.000491334   -0.001056501   -0.002973484
 -------------------------------------------------------------------
 Cartesian Forces:  Max     0.034217642 RMS     0.007709919
 FormGI is forming the generalized inverse of G from B-inverse, IUseBI=4.

 GradGradGradGradGradGradGradGradGradGradGradGradGradGradGradGradGradGrad
 Berny optimization.
 Internal  Forces:  Max     0.036766186 RMS     0.004634578
 Search for a saddle point.
 Step number   1 out of a maximum of  126
 All quantities printed in internal units (Hartrees-Bohrs-Radians)
 Swapping is turned off.
 Second derivative matrix not updated -- analytic derivatives used.
 ITU=  0
     Eigenvalues ---   -0.02810  -0.00085   0.00215   0.00341   0.00798
     Eigenvalues ---    0.01041   0.01260   0.01698   0.01788   0.01963
     Eigenvalues ---    0.02177   0.02392   0.02671   0.02787   0.03130
     Eigenvalues ---    0.03406   0.04152   0.04543   0.04552   0.04892
     Eigenvalues ---    0.05168   0.05267   0.05543   0.05675   0.05942
     Eigenvalues ---    0.06713   0.07334   0.09101   0.09150   0.09256
     Eigenvalues ---    0.12283   0.13597   0.13859   0.14469   0.16687
     Eigenvalues ---    0.19051   0.19087   0.19913   0.22302   0.26754
     Eigenvalues ---    0.31596   0.32910   0.33988   0.34523   0.35795
     Eigenvalues ---    0.36878   0.37054   0.37143   0.37219   0.37308
     Eigenvalues ---    0.37601   0.37835   0.37933   0.38443   0.40839
     Eigenvalues ---    0.49365   0.50257   0.51873   0.59818   0.80964
 Eigenvectors required to have negative eigenvalues:
                          R1        R8        D14       D23       D38
   1                   -0.62588  -0.54054  -0.18328  -0.18193   0.17849
                          D24       D18       D39       D16       A9
   1                   -0.15443   0.14472   0.12799   0.11390   0.10838
 RFO step:  Lambda0=6.030538971D-04 Lambda=-1.67020742D-02.
 Linear search not attempted -- option 19 set.
 Maximum step size (   0.300) exceeded in Quadratic search.
    -- Step size scaled by   0.641
 Iteration  1 RMS(Cart)=  0.18846136 RMS(Int)=  0.01463406
 Iteration  2 RMS(Cart)=  0.02063617 RMS(Int)=  0.00102712
 Iteration  3 RMS(Cart)=  0.00037228 RMS(Int)=  0.00097813
 Iteration  4 RMS(Cart)=  0.00000040 RMS(Int)=  0.00097813
 Variable       Old X    -DE/DX   Delta X   Delta X   Delta X     New X
                                 (Linear)    (Quad)   (Total)
    R1        4.22882  -0.00360   0.00000  -0.05701  -0.05741   4.17141
    R2        2.59810   0.00336   0.00000   0.00491   0.00474   2.60284
    R3        2.04833   0.00042   0.00000   0.00040   0.00040   2.04874
    R4        2.04913   0.00094   0.00000   0.00178   0.00178   2.05091
    R5        2.60127   0.00396   0.00000   0.00367   0.00367   2.60493
    R6        2.05033  -0.00013   0.00000  -0.00024  -0.00024   2.05009
    R7        2.04273   0.00004   0.00000   0.00133   0.00133   2.04406
    R8        4.46454  -0.00189   0.00000   0.14863   0.14893   4.61347
    R9        2.58400   0.00132   0.00000  -0.00905  -0.00889   2.57511
   R10        2.04987   0.00104   0.00000   0.00148   0.00148   2.05135
   R11        2.04604  -0.00028   0.00000  -0.00066  -0.00066   2.04539
   R12        2.04908   0.00175   0.00000   0.00108   0.00108   2.05016
   R13        2.91018  -0.03677   0.00000  -0.12942  -0.12942   2.78075
   R14        2.68214  -0.00027   0.00000   0.00646   0.00658   2.68872
   R15        2.57345  -0.00195   0.00000  -0.01022  -0.01022   2.56323
   R16        2.04916   0.00010   0.00000  -0.00040  -0.00040   2.04876
   R17        2.67039  -0.00081   0.00000   0.00688   0.00688   2.67727
   R18        2.07225   0.00004   0.00000  -0.00112  -0.00112   2.07112
   R19        2.05996  -0.00013   0.00000  -0.00009  -0.00009   2.05988
   R20        2.06933   0.00115   0.00000   0.00274   0.00274   2.07207
   R21        2.31929  -0.02786   0.00000  -0.00362  -0.00362   2.31567
   R22        2.09846  -0.00223   0.00000  -0.00149  -0.00149   2.09697
    A1        1.94072  -0.00223   0.00000  -0.00259  -0.00238   1.93835
    A2        1.55880   0.00137   0.00000  -0.02703  -0.02740   1.53140
    A3        1.58199   0.00139   0.00000   0.03787   0.03759   1.61958
    A4        2.09014  -0.00163   0.00000  -0.01440  -0.01499   2.07516
    A5        2.08743   0.00084   0.00000   0.00186   0.00199   2.08942
    A6        2.02225   0.00067   0.00000   0.00998   0.01030   2.03255
    A7        1.76681  -0.00145   0.00000  -0.03244  -0.03290   1.73391
    A8        1.79951  -0.00013   0.00000  -0.03533  -0.03618   1.76333
    A9        1.54350   0.00155   0.00000   0.06308   0.06351   1.60701
   A10        2.06399  -0.00023   0.00000  -0.00745  -0.00834   2.05565
   A11        2.09321   0.00049   0.00000   0.00959   0.00968   2.10289
   A12        2.03489  -0.00019   0.00000   0.00183   0.00245   2.03734
   A13        1.73305  -0.00211   0.00000  -0.06440  -0.06310   1.66995
   A14        1.83053   0.00193   0.00000   0.04246   0.04134   1.87188
   A15        1.42700  -0.00026   0.00000  -0.03252  -0.03169   1.39531
   A16        2.09247   0.00032   0.00000   0.00135   0.00182   2.09429
   A17        2.12787   0.00014   0.00000   0.01444   0.01179   2.13966
   A18        2.01668  -0.00030   0.00000   0.00340   0.00343   2.02010
   A19        1.84438   0.00350   0.00000   0.00298   0.00115   1.84554
   A20        2.12644  -0.00078   0.00000   0.00138  -0.00031   2.12613
   A21        2.06860  -0.00019   0.00000   0.00056  -0.00473   2.06387
   A22        1.56047  -0.00007   0.00000   0.02286   0.02548   1.58594
   A23        1.68357  -0.00643   0.00000  -0.15001  -0.15006   1.53351
   A24        2.00386   0.00222   0.00000   0.05239   0.05057   2.05443
   A25        2.11322   0.00245   0.00000   0.00967   0.00860   2.12182
   A26        2.01964  -0.00206   0.00000  -0.00552  -0.00496   2.01468
   A27        2.13448  -0.00038   0.00000  -0.00450  -0.00394   2.13054
   A28        2.11181  -0.00039   0.00000   0.00636   0.00561   2.11741
   A29        2.06085   0.00063   0.00000   0.00017   0.00046   2.06131
   A30        2.08165  -0.00020   0.00000  -0.00599  -0.00546   2.07619
   A31        2.06835  -0.00079   0.00000  -0.00458  -0.00458   2.06376
   A32        1.94541   0.00020   0.00000   0.00258   0.00258   1.94798
   A33        1.84689   0.00008   0.00000  -0.00146  -0.00147   1.84541
   A34        1.94329  -0.00109   0.00000  -0.01796  -0.01797   1.92532
   A35        1.90233   0.00025   0.00000  -0.00351  -0.00352   1.89881
   A36        1.91165   0.00061   0.00000   0.01235   0.01235   1.92400
   A37        1.91284  -0.00006   0.00000   0.00782   0.00779   1.92063
   A38        2.13323   0.00601   0.00000   0.01538   0.01484   2.14807
   A39        2.01673  -0.00079   0.00000   0.00886   0.00832   2.02505
   A40        2.13323  -0.00522   0.00000  -0.02425  -0.02479   2.10843
    D1       -0.83419   0.00001   0.00000  -0.01939  -0.01813  -0.85232
    D2       -2.97759   0.00090   0.00000   0.01557   0.01541  -2.96218
    D3        1.26423   0.00072   0.00000   0.00118   0.00163   1.26586
    D4        1.29250  -0.00166   0.00000  -0.04790  -0.04690   1.24560
    D5       -0.85089  -0.00078   0.00000  -0.01295  -0.01336  -0.86425
    D6       -2.89226  -0.00095   0.00000  -0.02733  -0.02713  -2.91940
    D7       -2.96852  -0.00099   0.00000  -0.03841  -0.03768  -3.00620
    D8        1.17127  -0.00010   0.00000  -0.00345  -0.00414   1.16714
    D9       -0.87010  -0.00028   0.00000  -0.01783  -0.01792  -0.88801
   D10       -0.08529   0.00111   0.00000  -0.00376  -0.00324  -0.08853
   D11       -1.81841  -0.00086   0.00000  -0.03461  -0.03555  -1.85397
   D12        1.77506  -0.00458   0.00000  -0.18542  -0.18510   1.58996
   D13       -1.86446   0.00170   0.00000   0.03955   0.04006  -1.82441
   D14        2.68560  -0.00027   0.00000   0.00870   0.00774   2.69335
   D15       -0.00411  -0.00399   0.00000  -0.14211  -0.14180  -0.14591
   D16        1.72180   0.00181   0.00000   0.04352   0.04418   1.76598
   D17       -0.01132  -0.00016   0.00000   0.01267   0.01187   0.00055
   D18       -2.70103  -0.00388   0.00000  -0.13814  -0.13768  -2.83871
   D19        1.09267   0.00121   0.00000   0.08379   0.08416   1.17683
   D20       -1.86277   0.00127   0.00000   0.08640   0.08643  -1.77634
   D21        3.04158  -0.00000   0.00000   0.01643   0.01692   3.05849
   D22        0.08614   0.00006   0.00000   0.01905   0.01919   0.10532
   D23       -0.56044   0.00012   0.00000   0.02626   0.02655  -0.53389
   D24        2.76731   0.00018   0.00000   0.02887   0.02882   2.79612
   D25        0.98093  -0.00062   0.00000   0.01475   0.01597   0.99690
   D26        3.12811  -0.00087   0.00000   0.02420   0.02447  -3.13061
   D27       -1.14952   0.00109   0.00000   0.07354   0.07314  -1.07639
   D28       -3.12982  -0.00044   0.00000   0.00442   0.00501  -3.12481
   D29       -0.98264  -0.00070   0.00000   0.01387   0.01351  -0.96913
   D30        1.02291   0.00127   0.00000   0.06320   0.06218   1.08509
   D31       -1.13394  -0.00089   0.00000  -0.00106  -0.00108  -1.13503
   D32        1.01324  -0.00114   0.00000   0.00839   0.00742   1.02066
   D33        3.01879   0.00082   0.00000   0.05773   0.05609   3.07488
   D34       -1.03261   0.00094   0.00000   0.01725   0.01641  -1.01620
   D35        1.85122   0.00108   0.00000   0.01869   0.01828   1.86950
   D36       -3.00867  -0.00010   0.00000   0.00929   0.00850  -3.00017
   D37       -0.12484   0.00003   0.00000   0.01073   0.01037  -0.11447
   D38        0.46901  -0.00064   0.00000  -0.05900  -0.05957   0.40944
   D39       -2.93034  -0.00051   0.00000  -0.05756  -0.05770  -2.98804
   D40        0.00000  -0.00268   0.00000  -0.12233  -0.12249  -0.12249
   D41        3.14155   0.00035   0.00000  -0.06127  -0.06145   3.08011
   D42        1.95091  -0.00265   0.00000  -0.21319  -0.21030   1.74060
   D43       -1.19073   0.00039   0.00000  -0.15212  -0.14926  -1.33998
   D44       -2.72056  -0.00544   0.00000  -0.25100  -0.25370  -2.97426
   D45        0.42099  -0.00240   0.00000  -0.18994  -0.19265   0.22834
   D46       -0.04434   0.00030   0.00000  -0.03350  -0.03370  -0.07804
   D47       -2.92516   0.00004   0.00000  -0.03588  -0.03646  -2.96162
   D48        2.89869   0.00008   0.00000  -0.03626  -0.03611   2.86258
   D49        0.01787  -0.00017   0.00000  -0.03864  -0.03887  -0.02100
   D50        2.86360  -0.00204   0.00000  -0.17861  -0.17852   2.68508
   D51       -0.08935  -0.00230   0.00000  -0.17762  -0.17771  -0.26706
   D52        1.14234  -0.00040   0.00000   0.07660   0.07659   1.21893
   D53       -3.07518   0.00005   0.00000   0.07288   0.07286  -3.00233
   D54       -0.99804  -0.00056   0.00000   0.07169   0.07172  -0.92632
         Item               Value     Threshold  Converged?
 Maximum Force            0.036766     0.000450     NO 
 RMS     Force            0.004635     0.000300     NO 
 Maximum Displacement     1.171380     0.001800     NO 
 RMS     Displacement     0.195024     0.001200     NO 
 Predicted change in Energy=-1.130978D-02
 GradGradGradGradGradGradGradGradGradGradGradGradGradGradGradGradGradGrad

                          Input orientation:                          
 ---------------------------------------------------------------------
 Center     Atomic      Atomic             Coordinates (Angstroms)
 Number     Number       Type             X           Y           Z
 ---------------------------------------------------------------------
      1          6           0        0.458016    1.498503   -1.150933
      2          6           0       -1.607399    1.740674   -0.410598
      3          6           0       -0.081184    0.925620    1.859533
      4          6           0        1.283969    1.010358   -0.162676
      5          1           0        0.065997    0.811828   -1.892665
      6          1           0        0.530622    2.540139   -1.446889
      7          1           0        2.013146    1.640038    0.336127
      8          6           0       -1.780892    0.505742    0.176792
      9          6           0       -1.049166    0.122458    1.335264
     10          1           0       -2.137638    1.939430   -1.335941
     11          1           0        0.552842    0.559144    2.660832
     12          1           0       -1.089543   -0.909909    1.663875
     13          1           0       -1.334124    2.599399    0.187667
     14          1           0       -0.057022    1.994755    1.692509
     15          8           0       -2.508070   -0.384694   -0.543045
     16          6           0       -2.277986   -1.766278   -0.329828
     17          1           0       -2.637274   -2.088170    0.654293
     18          1           0       -2.851057   -2.283592   -1.099349
     19          1           0       -1.211193   -1.995609   -0.437766
     20          6           0        1.446431   -0.447645   -0.047875
     21          8           0        0.789630   -1.247441   -0.704033
     22          1           0        2.166188   -0.798374    0.720437
 ---------------------------------------------------------------------
                    Distance matrix (angstroms):
                    1          2          3          4          5
     1  C    0.000000
     2  C    2.207414   0.000000
     3  C    3.111565   2.854319   0.000000
     4  C    1.377365   2.992463   2.441343   0.000000
     5  H    1.084144   2.420647   3.756807   2.125025   0.000000
     6  H    1.085296   2.506826   3.730068   2.134705   1.844357
     7  H    2.156341   3.698117   2.686518   1.084896   3.073245
     8  C    2.785881   1.378471   2.428357   3.124620   2.790581
     9  C    3.216562   2.445052   1.362687   2.911308   3.484013
    10  H    2.639329   1.084858   3.932921   3.734584   2.537210
    11  H    3.926950   3.936538   1.085530   2.951328   4.586415
    12  H    4.014789   3.405466   2.103387   3.557707   4.116872
    13  H    2.493107   1.081669   2.677037   3.082564   3.079534
    14  H    2.932011   2.625126   1.082372   2.491788   3.777291
    15  O    3.565617   2.312129   3.657742   4.058375   3.143081
    16  C    4.338055   3.571404   4.106770   4.519422   3.818815
    17  H    5.069900   4.105446   4.131480   5.064037   4.712182
    18  H    5.025621   4.267995   5.169741   5.368976   4.326683
    19  H    3.937472   3.757330   3.884339   3.916293   3.410228
    20  C    2.445649   3.774412   2.803154   1.471512   2.625857
    21  O    2.801767   3.841964   3.471654   2.373836   2.485374
    22  H    3.419872   4.686786   3.052930   2.197661   3.719121
                    6          7          8          9         10
     6  H    0.000000
     7  H    2.487409   0.000000
     8  C    3.481122   3.963172   0.000000
     9  C    4.010149   3.560769   1.422809   0.000000
    10  H    2.737293   4.484913   2.114496   3.409032   0.000000
    11  H    4.560505   2.950436   3.408756   2.124678   5.011793
    12  H    4.919819   4.229873   2.166436   1.084157   4.268036
    13  H    2.480436   3.485201   2.140821   2.744707   1.844607
    14  H    3.240153   2.500238   2.736108   2.148830   3.674716
    15  O    4.313378   5.031289   1.356404   2.431800   2.483437
    16  C    5.261306   5.519085   2.380303   2.801760   3.842426
    17  H    5.989306   5.968850   2.773045   2.805831   4.520203
    18  H    5.901265   6.412170   3.248719   3.868233   4.289389
    19  H    4.962385   4.920691   2.637991   2.766966   4.141202
    20  C    3.423858   2.197053   3.372689   2.909656   4.494752
    21  O    3.868422   3.304006   3.233742   3.068636   4.373140
    22  H    4.303260   2.473251   4.192339   3.400654   5.499744
                   11         12         13         14         15
    11  H    0.000000
    12  H    2.418568   0.000000
    13  H    3.720191   3.815003   0.000000
    14  H    1.835909   3.082855   2.064251   0.000000
    15  O    4.530435   2.675549   3.288905   4.082538   0.000000
    16  C    4.729189   2.473988   4.496422   4.813305   1.416748
    17  H    4.605574   2.191580   4.887662   4.940230   2.086180
    18  H    5.814348   3.553216   5.272674   5.822831   2.008215
    19  H    4.386331   2.368637   4.639006   4.668318   2.070753
    20  C    3.024767   3.094340   4.131760   3.354791   3.985879
    21  O    3.826504   3.041745   4.483708   4.119717   3.412488
    22  H    2.865462   3.391505   4.907228   3.699886   4.859651
                   16         17         18         19         20
    16  C    0.000000
    17  H    1.095992   0.000000
    18  H    1.090039   1.777401   0.000000
    19  H    1.096490   1.798574   1.791585   0.000000
    20  C    3.961007   4.456569   4.790063   3.100190   0.000000
    21  O    3.133607   3.780945   3.805849   2.152661   1.225400
    22  H    4.668038   4.974053   5.539877   3.765835   1.109668
                   21         22
    21  O    0.000000
    22  H    2.031179   0.000000
 Stoichiometry    C8H12O2
 Framework group  C1[X(C8H12O2)]
 Deg. of freedom    60
 Full point group                 C1      NOp   1
 Largest Abelian subgroup         C1      NOp   1
 Largest concise Abelian subgroup C1      NOp   1
                         Standard orientation:                         
 ---------------------------------------------------------------------
 Center     Atomic      Atomic             Coordinates (Angstroms)
 Number     Number       Type             X           Y           Z
 ---------------------------------------------------------------------
      1          6           0       -1.392909   -0.633982   -1.322088
      2          6           0        0.337285   -1.810814   -0.619113
      3          6           0       -0.850494   -0.729485    1.740346
      4          6           0       -2.001502    0.024247   -0.276390
      5          1           0       -0.707131   -0.085771   -1.958124
      6          1           0       -1.871967   -1.502349   -1.762893
      7          1           0       -2.955006   -0.300546    0.126525
      8          6           0        0.970138   -0.848132    0.137803
      9          6           0        0.393279   -0.345392    1.337334
     10          1           0        0.793265   -2.093118   -1.562143
     11          1           0       -1.323695   -0.237075    2.584139
     12          1           0        0.837228    0.523954    1.809079
     13          1           0       -0.303088   -2.545076   -0.149232
     14          1           0       -1.304841   -1.659340    1.423376
     15          8           0        2.043328   -0.259777   -0.446947
     16          6           0        2.393295    1.051520   -0.040501
     17          1           0        2.792566    1.064743    0.980089
     18          1           0        3.175090    1.375228   -0.727666
     19          1           0        1.525988    1.718000   -0.117135
     20          6           0       -1.552452    1.388541    0.043616
     21          8           0       -0.584608    1.916707   -0.491102
     22          1           0       -2.108012    1.906889    0.852337
 ---------------------------------------------------------------------
 Rotational constants (GHZ):           1.7001317           1.1945393           1.0303342
 Standard basis: 6-31G(d) (6D, 7F)
 There are   174 symmetry adapted cartesian basis functions of A   symmetry.
 There are   174 symmetry adapted basis functions of A   symmetry.
   174 basis functions,   328 primitive gaussians,   174 cartesian basis functions
    38 alpha electrons       38 beta electrons
       nuclear repulsion energy       548.4682782014 Hartrees.
 NAtoms=   22 NActive=   22 NUniq=   22 SFac= 1.00D+00 NAtFMM=   60 NAOKFM=F Big=F
 Integral buffers will be    131072 words long.
 Raffenetti 2 integral format.
 Two-electron integral symmetry is turned on.
 One-electron integrals computed using PRISM.
 NBasis=   174 RedAO= T EigKep=  1.86D-03  NBF=   174
 NBsUse=   174 1.00D-06 EigRej= -1.00D+00 NBFU=   174
 Initial guess from the checkpoint file:  "DE09_DP03_TS.chk"
 B after Tr=    -0.000000   -0.000000    0.000000
         Rot=    0.995462    0.031175    0.027820    0.085492 Ang=  10.92 deg.
 ExpMin= 1.61D-01 ExpMax= 5.48D+03 ExpMxC= 8.25D+02 IAcc=3 IRadAn=         5 AccDes= 0.00D+00
 Harris functional with IExCor= 1009 and IRadAn=       5 diagonalized for initial guess.
 HarFok:  IExCor= 1009 AccDes= 0.00D+00 IRadAn=         5 IDoV= 1 UseB2=F ITyADJ=14
 ICtDFT=  3500011 ScaDFX=  1.000000  1.000000  1.000000  1.000000
 FoFCou: FMM=F IPFlag=           0 FMFlag=      100000 FMFlg1=           0
         NFxFlg=           0 DoJE=T BraDBF=F KetDBF=T FulRan=T
         wScrn=  0.000000 ICntrl=       500 IOpCl=  0 I1Cent=   200000004 NGrid=           0
         NMat0=    1 NMatS0=      1 NMatT0=    0 NMatD0=    1 NMtDS0=    0 NMtDT0=    0
 Petite list used in FoFCou.
 Requested convergence on RMS density matrix=1.00D-08 within 128 cycles.
 Requested convergence on MAX density matrix=1.00D-06.
 Requested convergence on             energy=1.00D-06.
 No special actions if energy rises.
 Integral accuracy reduced to 1.0D-05 until final iterations.
 Initial convergence to 1.0D-05 achieved.  Increase integral accuracy.
 SCF Done:  E(RM062X) =  -462.184314773     A.U. after   16 cycles
            NFock= 16  Conv=0.88D-08     -V/T= 2.0085
 Calling FoFJK, ICntrl=      2127 FMM=F ISym2X=0 I1Cent= 0 IOpClX= 0 NMat=1 NMatS=1 NMatT=0.
 ***** Axes restored to original set *****
 -------------------------------------------------------------------
 Center     Atomic                   Forces (Hartrees/Bohr)
 Number     Number              X              Y              Z
 -------------------------------------------------------------------
      1        6          -0.006825277    0.003611328   -0.001434564
      2        6           0.004466709    0.001630607   -0.001420685
      3        6          -0.002202538   -0.001707730    0.001429236
      4        6           0.010170677   -0.011389446   -0.003085292
      5        1           0.001837924   -0.001280379   -0.000256260
      6        1          -0.000367753    0.000303018   -0.000494921
      7        1          -0.001929103    0.001197418    0.002627608
      8        6           0.000474757   -0.003952735   -0.001702442
      9        6          -0.001551506    0.000520183    0.001787498
     10        1          -0.000157656    0.000279738    0.000212304
     11        1          -0.000233952    0.000283886    0.000855425
     12        1          -0.000657974   -0.000132206   -0.000238987
     13        1          -0.000478946   -0.000166676    0.000493045
     14        1           0.000928677   -0.000161023   -0.000738804
     15        8          -0.000127076    0.002251171    0.002058424
     16        6           0.000840495   -0.002340279   -0.000433716
     17        1          -0.000766249    0.000216463    0.000011542
     18        1          -0.000474638    0.000161275   -0.000071469
     19        1          -0.001746383   -0.000183584    0.000633019
     20        6          -0.007696369    0.007024840   -0.003953974
     21        8           0.005599820    0.004649949    0.006250135
     22        1           0.000896363   -0.000815817   -0.002527121
 -------------------------------------------------------------------
 Cartesian Forces:  Max     0.011389446 RMS     0.003086333

 GradGradGradGradGradGradGradGradGradGradGradGradGradGradGradGradGradGrad
 Berny optimization.
 FormGI is forming the generalized inverse of G from B-inverse, IUseBI=4.
 Internal  Forces:  Max     0.010913411 RMS     0.002132929
 Search for a saddle point.
 Step number   2 out of a maximum of  126
 All quantities printed in internal units (Hartrees-Bohrs-Radians)
 Swapping is turned off.
 Update second derivatives using D2CorX and points    1    2
 ITU=  0  0
     Eigenvalues ---   -0.02862  -0.00038   0.00281   0.00379   0.00788
     Eigenvalues ---    0.01238   0.01322   0.01785   0.01848   0.01950
     Eigenvalues ---    0.02383   0.02579   0.02775   0.02977   0.03316
     Eigenvalues ---    0.03450   0.04182   0.04544   0.04726   0.04963
     Eigenvalues ---    0.05218   0.05405   0.05541   0.05745   0.06013
     Eigenvalues ---    0.06748   0.07492   0.09059   0.09150   0.09282
     Eigenvalues ---    0.12280   0.13622   0.13896   0.14698   0.16741
     Eigenvalues ---    0.19049   0.19121   0.19996   0.22314   0.26770
     Eigenvalues ---    0.31596   0.32982   0.33988   0.34598   0.35795
     Eigenvalues ---    0.36888   0.37053   0.37143   0.37219   0.37309
     Eigenvalues ---    0.37601   0.37838   0.37931   0.38449   0.40868
     Eigenvalues ---    0.49370   0.50248   0.51861   0.59950   0.80980
 Eigenvectors required to have negative eigenvalues:
                          R1        R8        D38       D14       D23
   1                    0.60831   0.56170  -0.18369   0.18173   0.17963
                          D18       D24       D39       D16       A9
   1                   -0.14779   0.14702  -0.13114  -0.10984  -0.10572
 RFO step:  Lambda0=1.778085186D-06 Lambda=-9.11864788D-03.
 Linear search not attempted -- option 19 set.
 Maximum step size (   0.300) exceeded in Quadratic search.
    -- Step size scaled by   0.525
 Iteration  1 RMS(Cart)=  0.10109401 RMS(Int)=  0.00357790
 Iteration  2 RMS(Cart)=  0.00474689 RMS(Int)=  0.00043495
 Iteration  3 RMS(Cart)=  0.00000950 RMS(Int)=  0.00043488
 Iteration  4 RMS(Cart)=  0.00000000 RMS(Int)=  0.00043488
 Variable       Old X    -DE/DX   Delta X   Delta X   Delta X     New X
                                 (Linear)    (Quad)   (Total)
    R1        4.17141  -0.00184   0.00000  -0.16646  -0.16641   4.00500
    R2        2.60284   0.00446   0.00000   0.01282   0.01266   2.61550
    R3        2.04874   0.00032   0.00000   0.00154   0.00154   2.05028
    R4        2.05091   0.00040   0.00000   0.00055   0.00055   2.05146
    R5        2.60493   0.00302   0.00000   0.01109   0.01156   2.61649
    R6        2.05009  -0.00005   0.00000   0.00059   0.00059   2.05068
    R7        2.04406   0.00002   0.00000   0.00004   0.00004   2.04410
    R8        4.61347   0.00459   0.00000   0.19572   0.19558   4.80905
    R9        2.57511   0.00111   0.00000  -0.00537  -0.00566   2.56944
   R10        2.05135   0.00040   0.00000  -0.00044  -0.00044   2.05092
   R11        2.04539  -0.00002   0.00000  -0.00130  -0.00130   2.04408
   R12        2.05016   0.00061   0.00000  -0.00080  -0.00080   2.04936
   R13        2.78075  -0.01091   0.00000  -0.04592  -0.04592   2.73484
   R14        2.68872  -0.00045   0.00000   0.00304   0.00321   2.69193
   R15        2.56323  -0.00002   0.00000  -0.01065  -0.01065   2.55258
   R16        2.04876   0.00008   0.00000   0.00043   0.00043   2.04919
   R17        2.67727   0.00177   0.00000   0.00361   0.00361   2.68088
   R18        2.07112   0.00020   0.00000   0.00062   0.00062   2.07174
   R19        2.05988   0.00022   0.00000  -0.00001  -0.00001   2.05987
   R20        2.07207  -0.00172   0.00000  -0.00522  -0.00522   2.06685
   R21        2.31567  -0.00938   0.00000   0.00141   0.00141   2.31708
   R22        2.09697  -0.00091   0.00000  -0.00125  -0.00125   2.09572
    A1        1.93835  -0.00102   0.00000   0.02946   0.02919   1.96753
    A2        1.53140   0.00226   0.00000   0.04609   0.04639   1.57779
    A3        1.61958  -0.00056   0.00000  -0.00660  -0.00592   1.61366
    A4        2.07516  -0.00091   0.00000  -0.02400  -0.02522   2.04993
    A5        2.08942   0.00044   0.00000  -0.00461  -0.00539   2.08403
    A6        2.03255   0.00023   0.00000  -0.00120  -0.00190   2.03065
    A7        1.73391   0.00595   0.00000   0.06207   0.06243   1.79634
    A8        1.76333  -0.00071   0.00000  -0.00439  -0.00432   1.75902
    A9        1.60701  -0.00304   0.00000   0.01014   0.01027   1.61728
   A10        2.05565  -0.00123   0.00000  -0.00859  -0.00983   2.04582
   A11        2.10289  -0.00029   0.00000  -0.01557  -0.01663   2.08626
   A12        2.03734   0.00050   0.00000  -0.00643  -0.00695   2.03039
   A13        1.66995   0.00505   0.00000   0.01026   0.00964   1.67959
   A14        1.87188  -0.00016   0.00000   0.03463   0.03436   1.90623
   A15        1.39531  -0.00403   0.00000  -0.08153  -0.08148   1.31383
   A16        2.09429  -0.00052   0.00000   0.01180   0.01124   2.10552
   A17        2.13966  -0.00012   0.00000  -0.00769  -0.00843   2.13123
   A18        2.02010   0.00031   0.00000   0.00401   0.00471   2.02481
   A19        1.84554  -0.00164   0.00000  -0.03750  -0.03817   1.80737
   A20        2.12613   0.00004   0.00000   0.01151   0.01056   2.13670
   A21        2.06387   0.00055   0.00000  -0.00360  -0.00504   2.05883
   A22        1.58594  -0.00021   0.00000  -0.01209  -0.01183   1.57411
   A23        1.53351   0.00091   0.00000  -0.02399  -0.02365   1.50986
   A24        2.05443  -0.00031   0.00000   0.01442   0.01360   2.06804
   A25        2.12182  -0.00162   0.00000  -0.00496  -0.00412   2.11770
   A26        2.01468  -0.00015   0.00000   0.00526   0.00452   2.01920
   A27        2.13054   0.00205   0.00000   0.00628   0.00551   2.13605
   A28        2.11741  -0.00173   0.00000  -0.00237  -0.00223   2.11518
   A29        2.06131   0.00184   0.00000   0.01179   0.01155   2.07286
   A30        2.07619  -0.00012   0.00000  -0.00324  -0.00349   2.07270
   A31        2.06376   0.00638   0.00000   0.01300   0.01300   2.07677
   A32        1.94798  -0.00097   0.00000  -0.00868  -0.00869   1.93930
   A33        1.84541  -0.00063   0.00000  -0.00322  -0.00323   1.84218
   A34        1.92532   0.00146   0.00000   0.00608   0.00609   1.93141
   A35        1.89881  -0.00024   0.00000   0.00137   0.00135   1.90016
   A36        1.92400   0.00007   0.00000   0.00185   0.00186   1.92586
   A37        1.92063   0.00027   0.00000   0.00245   0.00245   1.92308
   A38        2.14807   0.00215   0.00000   0.00554   0.00550   2.15357
   A39        2.02505   0.00026   0.00000   0.00401   0.00397   2.02902
   A40        2.10843  -0.00233   0.00000  -0.00868  -0.00872   2.09972
    D1       -0.85232  -0.00018   0.00000  -0.02425  -0.02536  -0.87768
    D2       -2.96218  -0.00059   0.00000  -0.03396  -0.03477  -2.99695
    D3        1.26586  -0.00027   0.00000  -0.02914  -0.02944   1.23642
    D4        1.24560  -0.00040   0.00000  -0.02558  -0.02568   1.21993
    D5       -0.86425  -0.00081   0.00000  -0.03530  -0.03509  -0.89934
    D6       -2.91940  -0.00049   0.00000  -0.03048  -0.02976  -2.94916
    D7       -3.00620  -0.00008   0.00000  -0.02505  -0.02561  -3.03180
    D8        1.16714  -0.00049   0.00000  -0.03476  -0.03502   1.13212
    D9       -0.88801  -0.00017   0.00000  -0.02994  -0.02969  -0.91770
   D10       -0.08853   0.00071   0.00000   0.03716   0.03623  -0.05231
   D11       -1.85397   0.00209   0.00000   0.07331   0.07303  -1.78094
   D12        1.58996   0.00105   0.00000  -0.01391  -0.01438   1.57558
   D13       -1.82441  -0.00102   0.00000  -0.02679  -0.02687  -1.85128
   D14        2.69335   0.00036   0.00000   0.00936   0.00993   2.70328
   D15       -0.14591  -0.00068   0.00000  -0.07786  -0.07748  -0.22339
   D16        1.76598  -0.00048   0.00000   0.04689   0.04617   1.81214
   D17        0.00055   0.00090   0.00000   0.08304   0.08297   0.08351
   D18       -2.83871  -0.00015   0.00000  -0.00419  -0.00444  -2.84316
   D19        1.17683  -0.00097   0.00000   0.01052   0.01014   1.18697
   D20       -1.77634  -0.00283   0.00000  -0.02823  -0.02850  -1.80484
   D21        3.05849   0.00137   0.00000   0.04002   0.03968   3.09818
   D22        0.10532  -0.00048   0.00000   0.00127   0.00105   0.10637
   D23       -0.53389  -0.00097   0.00000  -0.03599  -0.03579  -0.56969
   D24        2.79612  -0.00283   0.00000  -0.07474  -0.07443   2.72169
   D25        0.99690  -0.00090   0.00000  -0.04741  -0.04734   0.94956
   D26       -3.13061  -0.00127   0.00000  -0.04712  -0.04706   3.10552
   D27       -1.07639  -0.00157   0.00000  -0.03222  -0.03246  -1.10884
   D28       -3.12481   0.00070   0.00000  -0.01859  -0.01810   3.14027
   D29       -0.96913   0.00034   0.00000  -0.01830  -0.01782  -0.98695
   D30        1.08509   0.00003   0.00000  -0.00340  -0.00322   1.08188
   D31       -1.13503  -0.00002   0.00000  -0.03760  -0.03795  -1.17298
   D32        1.02066  -0.00038   0.00000  -0.03731  -0.03767   0.98299
   D33        3.07488  -0.00069   0.00000  -0.02241  -0.02307   3.05181
   D34       -1.01620   0.00235   0.00000   0.04629   0.04631  -0.96989
   D35        1.86950   0.00231   0.00000   0.07331   0.07334   1.94284
   D36       -3.00017  -0.00067   0.00000  -0.00679  -0.00678  -3.00695
   D37       -0.11447  -0.00071   0.00000   0.02023   0.02024  -0.09422
   D38        0.40944   0.00076   0.00000  -0.04406  -0.04400   0.36544
   D39       -2.98804   0.00072   0.00000  -0.01704  -0.01697  -3.00501
   D40       -0.12249   0.00049   0.00000  -0.09108  -0.09092  -0.21342
   D41        3.08011  -0.00073   0.00000  -0.10691  -0.10675   2.97336
   D42        1.74060  -0.00081   0.00000  -0.14753  -0.14759   1.59301
   D43       -1.33998  -0.00203   0.00000  -0.16335  -0.16341  -1.50340
   D44       -2.97426  -0.00056   0.00000  -0.17436  -0.17446   3.13447
   D45        0.22834  -0.00178   0.00000  -0.19018  -0.19028   0.03806
   D46       -0.07804   0.00039   0.00000   0.02370   0.02355  -0.05450
   D47       -2.96162   0.00015   0.00000  -0.00568  -0.00563  -2.96725
   D48        2.86258   0.00209   0.00000   0.06481   0.06459   2.92717
   D49       -0.02100   0.00185   0.00000   0.03543   0.03542   0.01442
   D50        2.68508   0.00393   0.00000   0.07862   0.07877   2.76385
   D51       -0.26706   0.00250   0.00000   0.04098   0.04083  -0.22623
   D52        1.21893   0.00096   0.00000   0.02163   0.02161   1.24054
   D53       -3.00233  -0.00022   0.00000   0.01673   0.01675  -2.98558
   D54       -0.92632   0.00051   0.00000   0.02098   0.02099  -0.90533
         Item               Value     Threshold  Converged?
 Maximum Force            0.010913     0.000450     NO 
 RMS     Force            0.002133     0.000300     NO 
 Maximum Displacement     0.407617     0.001800     NO 
 RMS     Displacement     0.100671     0.001200     NO 
 Predicted change in Energy=-5.203615D-03
 GradGradGradGradGradGradGradGradGradGradGradGradGradGradGradGradGradGrad

                          Input orientation:                          
 ---------------------------------------------------------------------
 Center     Atomic      Atomic             Coordinates (Angstroms)
 Number     Number       Type             X           Y           Z
 ---------------------------------------------------------------------
      1          6           0        0.463046    1.535242   -1.154082
      2          6           0       -1.526116    1.693796   -0.440108
      3          6           0       -0.109497    0.869658    1.890922
      4          6           0        1.343694    1.081789   -0.187403
      5          1           0        0.143000    0.826836   -1.910964
      6          1           0        0.489097    2.579006   -1.451364
      7          1           0        2.014936    1.746373    0.345369
      8          6           0       -1.743991    0.458598    0.146320
      9          6           0       -1.053710    0.068259    1.329690
     10          1           0       -2.056707    1.905712   -1.362695
     11          1           0        0.498036    0.513823    2.716851
     12          1           0       -1.128946   -0.961208    1.661998
     13          1           0       -1.288139    2.545349    0.183010
     14          1           0       -0.065885    1.932230    1.693252
     15          8           0       -2.501368   -0.402882   -0.566988
     16          6           0       -2.400707   -1.792167   -0.298010
     17          1           0       -2.852767   -2.040902    0.669301
[...]
 14154,-0.00014538,0.00005487,0.00179969,0.00043902,-0.00131812,0.05084
 767,0.33188742,-0.00192071,0.00016347,0.00024944,-0.00355913,0.0003906
 3,-0.00445754,-0.00313365,-0.01708960,0.00818158,0.00046498,-0.0007023
 9,0.00096458,0.00016946,0.00005393,-0.00011332,-0.00001805,-0.00005707
 ,-0.00004163,0.00019545,-0.00000056,-0.00009791,0.00603357,0.02589754,
 -0.00333968,0.00353207,0.09234831,-0.08399187,0.00040169,0.00147799,-0
 .00048217,0.00342953,-0.00139477,-0.00172007,0.00148591,-0.09856823,0.
 08379182,-0.01347028,0.00974869,0.00872652,-0.03621719,-0.04099986,-0.
 05338226,0.00185428,0.00281210,-0.00154021,0.00396474,-0.00307208,0.00
 442300,-0.00139565,0.00017216,0.00038488,0.00088599,0.00016799,-0.0005
 5798,0.00005813,-0.00009843,-0.00032872,-0.00558912,-0.01364170,0.0013
 3512,-0.00505492,-0.00120543,-0.00181604,-0.00181114,-0.01230589,-0.00
 664879,-0.00064987,-0.00000120,0.00053616,0.00001995,-0.00007021,-0.00
 013060,0.05079356,0.00114344,-0.00079460,-0.00055285,-0.05243147,-0.23
 516961,-0.13704851,-0.00058189,-0.00026179,-0.00025331,-0.00011254,0.0
 0025620,-0.00017707,-0.00003738,0.00007990,-0.00005371,-0.00041656,0.0
 0052332,0.00040845,0.00005328,-0.00001444,-0.00006390,-0.00612098,-0.0
 1257945,-0.02115776,-0.00009559,0.00020303,0.00017190,0.00123558,0.008
 73666,0.00566647,0.00000131,0.00058478,-0.00003181,-0.00010086,0.00013
 024,0.00001741,0.05725984,0.24331835,0.00488412,-0.00452619,-0.0034783
 2,-0.05404789,-0.14571815,-0.16197309,-0.00154301,0.00149809,-0.001106
 75,-0.00171280,0.00197175,-0.00138359,0.00057252,0.00032665,-0.0000626
 0,-0.00013077,0.00017997,-0.00007988,0.00001383,-0.00003007,0.00012101
 ,0.00451477,0.01195199,0.01035104,0.00093032,-0.00081493,-0.00055043,-
 0.00242529,-0.01822200,-0.00990397,0.00001524,0.00014598,0.00005362,0.
 00013309,-0.00020441,0.00014770,0.05142279,0.14965787,0.16940893,-0.00
 242071,0.00085117,-0.00051440,0.00166223,-0.00055304,-0.00274164,-0.04
 765015,-0.04833640,-0.00145237,-0.00216645,0.00177568,0.00507357,0.000
 11462,0.00006688,-0.00021144,0.00030333,-0.00009916,-0.00017908,-0.000
 33539,-0.00008460,0.00020778,-0.00242884,0.00006425,0.00570845,-0.0013
 0419,-0.02245251,0.00423717,-0.00035974,0.00027494,0.00045990,0.004944
 89,0.01352863,-0.00335694,0.00300890,-0.00382108,-0.00627375,-0.000311
 44,0.00111928,-0.00187902,0.04709539,0.00100242,-0.00033070,0.00014267
 ,0.00012319,0.00050437,0.00173200,-0.05402452,-0.33039299,0.07640946,0
 .00039287,-0.00034678,-0.00093456,-0.00006443,-0.00005804,0.00004283,-
 0.00019055,0.00001988,0.00016603,0.00001387,0.00043915,0.00021778,0.00
 146796,-0.00163600,-0.00075914,-0.00079553,-0.01240416,0.00735779,0.00
 016056,0.00056219,0.00001981,-0.00280461,-0.00483462,0.00116708,-0.004
 07884,0.00081708,-0.00002942,0.00045426,0.00041142,0.00106907,0.058024
 27,0.34651555,0.00289547,-0.00070886,-0.00018021,-0.00270594,-0.000624
 27,0.00011386,-0.00292373,0.07818870,-0.06728446,0.00221837,-0.0010880
 5,-0.00515087,-0.00023793,-0.00000966,0.00024559,-0.00013476,0.0001113
 3,0.00001425,0.00001985,-0.00004699,0.00005174,0.00192833,0.00057631,-
 0.00404729,0.00164546,-0.01307560,0.01159418,0.00041378,-0.00006132,0.
 00002911,0.00414674,0.02208914,-0.00189304,-0.00590454,0.00002596,0.00
 204362,-0.00265577,0.00083064,-0.00165403,0.00107432,-0.08664846,0.065
 86844,0.01053199,-0.00200062,-0.00285085,-0.01090754,-0.02680454,-0.00
 043964,0.00560954,0.00287640,-0.00190093,-0.00730582,0.00749184,-0.004
 30944,0.00003985,0.00102464,0.00098221,-0.00059124,0.00018187,0.000768
 59,-0.00063842,0.00002886,0.00070292,-0.13169759,-0.07286208,-0.099814
 57,-0.00955942,-0.01561603,-0.02346606,-0.00155967,0.00025992,0.000610
 60,-0.00116171,-0.00006030,0.00030527,-0.00120902,0.00054586,0.0014842
 8,0.00703275,0.00035074,-0.00129521,-0.00014610,0.00040468,0.00048280,
 0.20084616,0.02086139,-0.00325398,-0.00351670,-0.04729834,-0.05893448,
 -0.02049116,0.00096984,0.00090819,0.00309932,-0.01319425,0.01421999,-0
 .00770307,-0.00134862,0.00009304,0.00221126,-0.00072678,0.00071032,0.0
 0127530,-0.00067400,0.00026030,0.00080797,-0.10218838,-0.19397920,-0.0
 8576108,-0.00378880,0.00536682,-0.00872540,0.00261701,0.00190537,-0.00
 330849,0.00035727,0.00047698,0.00000133,-0.00083500,-0.00096412,-0.001
 48939,0.00001217,-0.00521669,0.00267207,0.00013093,0.00107913,0.000711
 34,0.11216263,0.56930672,0.00803644,-0.00010562,-0.00154035,-0.0018631
 2,-0.00630566,0.01889776,0.00269238,0.00800675,-0.00277330,-0.00837334
 ,0.00911232,-0.00250015,-0.00258684,-0.00107407,0.00153714,0.00019565,
 0.00047473,0.00090021,0.00012570,0.00005751,0.00018236,-0.09920798,-0.
 05769339,-0.16629163,-0.03082900,-0.03022685,-0.02540587,0.00289828,-0
 .00118726,-0.00104276,-0.00123261,-0.00098344,-0.00085601,0.00151724,-
 0.00016803,0.00104937,0.00134870,0.00259942,-0.00061029,-0.00032233,0.
 00030602,0.00075848,0.14630529,0.04155810,0.25498310,-0.00204188,0.001
 21150,0.00005213,0.00267020,-0.00196608,-0.00566636,-0.00007330,-0.000
 48013,0.00020970,0.00054567,-0.00099032,0.00084056,0.00020490,-0.00005
 516,0.00007663,0.00038227,-0.00004492,-0.00026393,0.00020414,0.0001122
 7,-0.00014304,-0.00638849,-0.02662803,0.00518176,-0.00223539,-0.001055
 61,-0.00047197,-0.00047378,0.00013537,0.00073581,0.00016191,-0.0000279
 2,-0.00019192,-0.00050836,-0.00175496,-0.00105770,0.00032038,-0.001256
 95,0.00027625,-0.00010088,-0.00002136,-0.00007785,-0.06991298,0.027366
 88,-0.01740971,0.62391242,-0.00663717,0.00008199,0.00088337,0.00547241
 ,0.00763646,-0.00427809,-0.00129977,-0.00328202,0.00129374,0.00574372,
 -0.00579163,0.00235126,-0.00012250,-0.00013271,-0.00037367,0.00008626,
 -0.00006008,-0.00025818,0.00020201,-0.00017631,-0.00013354,-0.01430510
 ,-0.04952455,-0.01275940,0.00395276,0.00596247,0.00364515,-0.00020976,
 -0.00025981,0.00034903,0.00047305,0.00017635,0.00025382,-0.00048592,-0
 .00146147,0.00005283,-0.00160008,0.00052912,0.00099102,-0.00016177,-0.
 00051211,-0.00049830,0.00326196,-0.22759096,0.03474218,0.01565336,0.49
 129676,0.00126363,-0.00028223,-0.00003870,-0.00381926,-0.00101909,-0.0
 0066658,0.00017449,0.00029374,0.00036980,-0.00127486,0.00105872,-0.000
 73886,-0.00010080,-0.00003130,0.00010840,-0.00010727,0.00010627,0.0001
 2825,-0.00006088,0.00003029,0.00004020,0.00405975,-0.02440985,0.003693
 51,-0.00085881,-0.00491591,-0.00247344,0.00071604,-0.00017923,-0.00023
 941,-0.00008324,0.00006898,0.00007091,-0.00163857,-0.00248317,-0.00185
 219,-0.00086350,-0.00024444,0.00065784,0.00007453,0.00000935,0.0001121
 7,-0.01542243,0.05250576,-0.09055046,0.02071561,0.03355330,0.61562219,
 0.00009014,-0.00010461,-0.00003641,-0.00034035,-0.00010426,-0.00015529
 ,-0.00008232,0.00039190,-0.00034845,0.00011605,-0.00019444,-0.00005012
 ,-0.00000122,0.00004812,-0.00005589,-0.00003126,-0.00001759,0.00000198
 ,-0.00004173,-0.00005926,0.00001610,0.00082557,0.00033903,0.00115114,0
 .00007865,-0.00070805,0.00077564,0.00001975,0.00003702,-0.00004879,-0.
 00001254,-0.00001547,0.00002152,-0.00123121,-0.00043989,-0.00070495,0.
 00003383,-0.00005503,0.00003376,0.00010505,0.00012536,0.00007707,0.004
 10732,-0.00161603,-0.00503615,-0.11755473,-0.02188467,0.10964302,0.116
 62708,0.00136980,-0.00008996,-0.00015632,-0.00090044,-0.00216810,-0.00
 035889,-0.00004843,-0.00002330,-0.00020747,-0.00062378,0.00080250,-0.0
 0053506,0.00005697,0.00002972,0.00004776,-0.00003380,-0.00000050,0.000
 03318,-0.00005159,0.00002775,0.00003764,0.00272162,0.00550542,0.006238
 40,-0.00025966,0.00044878,-0.00103146,-0.00012823,0.00026095,0.0000069
 7,-0.00002709,-0.00000448,-0.00004239,-0.00162352,-0.00063687,-0.00059
 388,0.00038642,-0.00035995,-0.00011423,-0.00002317,0.00010143,0.000018
 08,-0.01822410,-0.02725550,0.03279470,-0.01972927,-0.05720229,0.032696
 26,0.02643221,0.07219416,-0.00042377,-0.00006278,0.00008969,0.00055856
 ,0.00062691,0.00003129,-0.00015079,-0.00078331,0.00018331,0.00053968,-
 0.00041574,0.00014539,-0.00003837,-0.00002187,-0.00001797,-0.00000677,
 0.00000529,-0.00000294,0.00003966,-0.00000024,-0.00002409,-0.00202021,
 -0.00226928,-0.00167645,0.00004436,0.00115848,-0.00008007,-0.00000709,
 -0.00011116,0.00004509,0.00002039,0.00003120,0.00003834,-0.00125905,-0
 .00133903,0.00000689,-0.00007403,0.00005385,0.00004531,-0.00006586,-0.
 00011026,-0.00015163,0.00027885,0.01211196,0.00041174,0.10974345,0.037
 91198,-0.24620731,-0.11879994,-0.04903248,0.26477407,-0.00037643,0.000
 08014,-0.00012785,0.00041644,0.00003220,-0.00024592,0.00018668,-0.0001
 0229,-0.00000022,0.00005614,-0.00029551,0.00023075,0.00001670,-0.00001
 801,-0.00002456,0.00002946,-0.00000007,0.00000256,0.00003800,-0.000020
 82,-0.00002590,0.00077846,0.00073187,0.00051118,0.00015165,0.00001239,
 -0.00042502,0.00000313,-0.00001126,-0.00001477,0.00000975,0.00000180,-
 0.00000659,-0.00033344,-0.00017742,0.00023341,-0.00002799,-0.00003537,
 0.00003383,-0.00004489,0.00001050,0.00000752,0.00172927,0.00092170,0.0
 0293830,-0.11857322,-0.05937659,-0.10443305,0.00897816,0.00811620,0.01
 342797,0.11704617,0.00101147,-0.00017000,-0.00010075,-0.00131116,-0.00
 132642,-0.00074805,-0.00009921,0.00044814,-0.00025491,-0.00059493,0.00
 076228,-0.00037853,-0.00008499,-0.00001932,0.00005838,-0.00004193,0.00
 003875,0.00006196,-0.00003164,0.00001456,0.00003320,0.00283424,-0.0032
 9204,0.00258437,0.00023452,-0.00066524,0.00094839,0.00018283,0.0000012
 5,-0.00005583,-0.00006506,-0.00002186,-0.00001453,0.00006869,0.0005795
 2,-0.00019026,-0.00016557,-0.00035872,0.00024151,0.00011926,0.00005189
 ,0.00006904,-0.02069298,-0.03361124,-0.02753333,-0.05190598,-0.0949753
 0,-0.08636666,0.00373351,0.00477655,0.00369164,0.06409040,0.12203901,-
 0.00001219,-0.00000258,-0.00001028,0.00016443,0.00014241,0.00033263,0.
 00013734,-0.00036052,0.00022218,-0.00004638,0.00005209,0.00005814,0.00
 001267,0.00000380,0.00000030,-0.00000898,-0.00000487,0.00000817,0.0000
 1173,0.00000132,-0.00001390,0.00066091,0.00268444,0.00051060,-0.000295
 49,0.00068491,-0.00059726,-0.00003895,-0.00002451,0.00001120,0.0000013
 3,0.00001600,0.00000395,0.00010382,-0.00059282,0.00026812,0.00004804,0
 .00010704,-0.00006329,-0.00008135,-0.00007077,-0.00006254,0.00508303,0
 .00624981,0.00946377,-0.10437584,-0.09872063,-0.22209799,-0.01421123,-
 0.01145893,-0.01984791,0.11199849,0.10031538,0.23070442,0.00193800,-0.
 00047416,0.00019117,-0.00131722,-0.00052390,0.00107494,0.00001812,-0.0
 0017858,0.00034641,-0.00042276,0.00224609,-0.00058098,-0.00012561,-0.0
 0007110,0.00009103,-0.00015566,0.00005804,0.00011384,-0.00016129,0.000
 13661,0.00013455,0.00269817,0.00066046,0.00023319,0.00002054,0.0004977
 4,-0.00110230,0.00005253,-0.00004244,-0.00004444,0.00000753,0.00001015
 ,-0.00001480,0.00028092,-0.00060566,-0.00002734,0.00008184,-0.00004297
 ,-0.00000821,-0.00009344,-0.00011429,-0.00005758,0.00337083,0.00187176
 ,-0.00250454,-0.30913129,0.07533288,-0.00920807,-0.01042539,0.00203027
 ,-0.00167095,-0.00929764,0.00231175,0.00089723,0.32571571,0.00311444,-
 0.00066588,-0.00008002,-0.00300991,-0.00200069,0.00178175,-0.00038498,
 0.00017640,0.00009276,-0.00155263,0.00244921,-0.00121517,-0.00018352,-
 0.00004932,0.00022995,-0.00016737,0.00009704,0.00017386,-0.00010054,0.
 00009041,0.00010293,0.00673539,0.00678159,0.00397514,-0.00003971,0.000
 11941,-0.00095605,0.00031976,0.00009124,-0.00034354,-0.00001519,-0.000
 00481,-0.00002488,0.00017569,-0.00065622,-0.00099524,0.00010830,0.0000
 0057,-0.00006338,0.00003436,0.00002254,0.00001407,0.03186061,-0.032895
 91,0.00290405,0.06195968,-0.06789649,-0.00005603,-0.00565350,0.0039031
 4,-0.00179846,-0.01395873,0.00620849,0.00104503,-0.07978409,0.08670833
 ,-0.00009067,-0.00009220,0.00018427,0.00002454,0.00021361,-0.00010214,
 -0.00054667,-0.00001775,-0.00012835,0.00041960,-0.00044771,-0.00011604
 ,0.00003969,0.00008082,-0.00005823,-0.00003858,-0.00003951,-0.00003390
 ,-0.00004488,-0.00004865,0.00002635,0.00041697,-0.00115948,-0.00027835
 ,0.00041738,-0.00030182,0.00057158,-0.00006839,0.00001407,0.00004473,0
 .00003759,-0.00002150,0.00000327,0.00050645,-0.00073615,-0.00127328,0.
 00000214,-0.00002123,0.00002470,0.00009700,0.00003571,-0.00000285,-0.0
 0774436,0.00730508,0.00092396,-0.00766043,0.00020205,-0.05619442,0.027
 66959,-0.00840013,0.00225315,-0.02464361,0.00767329,0.00109189,0.01123
 528,-0.00459347,0.05438299,0.01726896,0.02321690,-0.00282402,-0.010247
 61,-0.00582465,0.00662674,0.00209888,-0.00010966,0.00135372,-0.1046196
 5,0.04652860,-0.03801065,-0.00556251,0.00104008,0.00061042,-0.00044098
 ,0.00008689,-0.00665166,0.00303130,-0.02257893,0.00686853,-0.00449347,
 0.01393607,0.00352330,-0.00666041,0.00089975,-0.00130095,0.00038341,-0
 .00013747,-0.00028324,0.00033994,-0.00014769,-0.00046425,-0.00001659,-
 0.00029593,0.00068040,0.00138144,-0.00005847,-0.00067676,-0.00044562,-
 0.00018082,-0.00005894,-0.00176706,-0.00592284,-0.00359998,-0.00070537
 ,0.00186062,-0.00002950,0.00027108,-0.00027909,-0.00000531,0.00033274,
 -0.00029718,0.00004815,-0.00217322,-0.00158646,-0.00025223,0.61069619,
 0.05952117,-0.02265111,0.02083361,-0.02577834,-0.01688142,0.01788408,0
 .01423660,0.00058005,-0.00349471,-0.00135508,-0.25649695,0.01191559,-0
 .00571714,0.00014642,-0.00043330,-0.00129578,-0.00000150,0.00080343,0.
 00405396,-0.00797984,0.00567993,0.00020795,0.03175183,0.01681835,-0.00
 850692,0.00187178,-0.01237113,0.00123499,0.00000769,-0.00094860,-0.000
 35577,0.00055474,0.00125954,-0.00090773,-0.00093493,0.00156191,0.00331
 194,-0.00024786,-0.00156504,-0.00137161,0.00004580,0.00077916,-0.01173
 698,-0.02197670,-0.01491605,0.00026825,0.01004568,-0.00176881,0.000779
 31,-0.00126197,0.00075747,0.00050937,-0.00120438,-0.00007579,-0.004199
 60,-0.00444698,0.00093175,0.13590762,0.73085323,0.00159933,0.02321105,
 -0.00088285,-0.00526578,-0.00196098,0.00125533,0.00029129,-0.00151107,
 -0.00299205,-0.03247720,0.05010018,-0.09115161,0.00113921,0.00226773,-
 0.00218647,-0.00824070,0.00158196,0.00013963,0.00476058,-0.01854324,0.
 00052339,-0.00155992,0.00799720,-0.00303731,0.00646416,-0.00184768,0.0
 0088899,-0.00028408,0.00003910,0.00016292,0.00032521,-0.00021166,-0.00
 073314,-0.00022489,0.00009843,0.00064427,0.00046794,-0.00012741,-0.000
 04133,-0.00025485,0.00003538,-0.00006266,0.00029380,-0.00125004,-0.000
 86003,0.00058350,-0.00022012,0.00048349,0.00022777,-0.00010650,-0.0001
 4111,0.00027489,-0.00011845,-0.00000568,-0.00263824,-0.00100354,0.0000
 7019,0.30055600,0.04626566,0.41153676,-0.02831555,0.00679719,-0.005746
 28,0.01404028,0.00912691,-0.00916449,-0.00657636,-0.00106375,0.0008994
 4,0.02309230,-0.05204020,0.01049005,0.00293161,-0.00017617,0.00079071,
 0.00120648,0.00080820,0.00096033,0.00274461,0.00092638,-0.00306745,0.0
 0174447,-0.02012764,-0.00759830,0.00268933,0.00222602,0.00792863,-0.00
 063076,0.00001243,0.00047008,-0.00008487,-0.00001825,0.00000323,0.0002
 8426,0.00036787,-0.00125669,-0.00190637,0.00015112,0.00087515,0.000681
 90,0.00008853,-0.00028511,0.00443752,0.01102408,0.00703192,-0.00080602
 ,-0.00652091,0.00143073,-0.00146720,0.00087123,-0.00020786,-0.00110112
 ,0.00072159,-0.00008368,-0.00125156,0.00192866,0.00037562,-0.33008377,
 -0.22563570,-0.17441737,0.34260335,-0.02115863,0.00154355,-0.00542181,
 0.00830199,0.00695293,-0.00583371,-0.00468913,-0.00177438,0.00033724,-
 0.02459101,-0.07340382,-0.01211220,0.00149929,-0.00163950,-0.00056130,
 -0.00032953,0.00008165,-0.00175296,0.00076402,-0.00785656,0.00117252,-
 0.00471887,-0.01222161,-0.00648150,0.00188822,-0.00227621,0.00289801,-
 0.00041496,-0.00000700,0.00034457,0.00000219,-0.00018205,-0.00031435,0
 .00055382,0.00044311,-0.00083152,-0.00129907,0.00022344,0.00054792,0.0
 0086338,-0.00005066,-0.00064073,0.00726012,0.01097762,0.00736463,-0.00
 087095,-0.00660448,0.00130396,-0.00096962,0.00091837,-0.00037811,-0.00
 051485,0.00070291,0.00001342,0.00088300,0.00181632,-0.00043420,-0.2471
 6856,-0.34014805,-0.15446156,0.29612904,0.40684800,-0.00945493,0.00500
 643,-0.00632104,0.00719017,0.00284285,-0.00303338,0.00115203,-0.002063
 96,-0.00024264,0.00502677,-0.02116923,0.02088529,0.00225346,0.00000159
 ,0.00153383,0.00157327,0.00074751,0.00073550,-0.00232474,0.00206535,0.
 00311323,0.00033713,-0.00748652,-0.00258413,-0.00113661,-0.00261046,-0
 .00281456,0.00008079,-0.00007856,0.00014665,-0.00003708,-0.00000427,0.
 00014858,-0.00017054,0.00006575,0.00005086,-0.00076761,0.00021547,0.00
 015673,0.00038101,-0.00012522,-0.00030646,-0.00047401,0.00200596,0.003
 43972,-0.00141543,0.00096637,-0.00026520,-0.00000525,0.00014614,0.0000
 8710,0.00033636,0.00010170,0.00004060,0.00347866,0.00067032,-0.0013045
 6,-0.17478635,-0.14528063,-0.18060547,0.19813837,0.18305896,0.17011041
 ,0.00294503,0.00131835,-0.00098992,0.00048649,-0.00035186,0.00027861,-
 0.00004831,0.00054985,-0.00015577,0.00354662,0.00056465,-0.00813711,0.
 00012672,-0.00036561,0.00025995,-0.00081383,-0.00000780,0.00018838,-0.
 00060110,0.00110784,0.00045355,0.00097052,-0.00075597,-0.00036017,0.00
 030593,0.00019337,0.00005975,0.00013047,-0.00002763,-0.00003884,-0.000
 05784,0.00004884,0.00025130,-0.00011436,-0.00006320,-0.00002818,0.0000
 0710,0.00003146,0.00001329,-0.00010847,0.00000646,0.00013243,-0.001248
 65,-0.00070263,-0.00012428,0.00010382,0.00056520,-0.00017754,-0.000064
 73,-0.00003255,0.00007711,-0.00001804,-0.00001764,-0.00001309,0.000370
 87,0.00019974,-0.00015203,-0.16858766,0.06682950,-0.09162066,-0.024232
 54,-0.01141990,-0.02937545,0.18690196,0.00024154,-0.00693295,0.0008466
 8,-0.00084432,-0.00011736,0.00027614,-0.00097730,-0.00002087,0.0002776
 9,0.02275929,-0.00366724,0.01889925,-0.00010496,0.00016559,0.00002348,
 0.00120935,-0.00044093,0.00131197,-0.00077749,0.00041485,-0.00062496,-
 0.00032047,0.00017803,-0.00083911,0.00046484,0.00029153,0.00068623,-0.
 00004504,-0.00000064,-0.00001310,0.00013799,-0.00003074,-0.00022003,0.
 00003033,0.00001922,-0.00002169,0.00002564,0.00000605,0.00000448,0.000
 05030,-0.00000437,-0.00001152,0.00028751,0.00037427,0.00027330,0.00008
 034,-0.00025861,0.00013009,-0.00006406,0.00003415,-0.00002605,0.000004
 36,0.00002117,-0.00000424,-0.00000195,0.00015160,-0.00014258,0.0611112
 0,-0.10162549,0.04976556,-0.02559661,0.01565643,-0.01907558,-0.0576704
 7,0.09578631,-0.00065225,0.00066822,0.00334177,-0.00123641,-0.00023207
 ,0.00044976,0.00052752,-0.00010740,0.00018363,-0.00999916,0.00250847,0
 .00530457,-0.00018170,-0.00091854,0.00040317,0.00054699,0.00004039,-0.
 00026716,0.00069950,0.00100729,-0.00087880,-0.00034947,0.00098974,0.00
 017464,-0.00031483,0.00005893,-0.00048060,-0.00006704,-0.00000297,0.00
 003051,-0.00016998,0.00009772,0.00026016,-0.00004777,-0.00002726,-0.00
 002858,0.00007022,0.00000347,-0.00005932,0.00001928,-0.00003313,-0.000
 03540,0.00041985,-0.00026992,-0.00011678,0.00031877,0.00004584,0.00003
 779,-0.00016512,0.00001859,0.00003808,-0.00004775,-0.00001757,-0.00001
 711,0.00006116,0.00013991,-0.00008496,-0.09132343,0.05536358,-0.133005
 27,-0.02756704,-0.00781729,-0.00297104,0.12945867,-0.05151599,0.127720
 93\\0.00001150,0.00001839,-0.00003490,0.00000481,0.00003360,-0.0000197
 6,-0.00000714,0.00000227,0.00001695,-0.00001204,0.00003665,0.00000328,
 -0.00001073,-0.00000355,0.00000500,-0.00001314,0.00000676,0.00000473,0
 .00000332,-0.00000800,0.00000306,-0.00001124,-0.00003367,-0.00001662,0
 .00002032,-0.00001161,0.00001819,0.00000486,0.00000335,-0.00000350,0.0
 0000591,-0.00000945,-0.00000064,0.00000026,0.00000156,0.00000145,0.000
 00979,-0.00000317,0.00000554,-0.00000914,-0.00000096,-0.00000084,0.000
 00592,0.00001922,0.00001498,0.00000128,-0.00000287,0.00000007,-0.00000
 277,0.00000204,-0.00000110,-0.00000131,0.00000307,-0.00000036,0.000007
 98,0.00000367,-0.00000418,0.00003273,-0.00002106,0.00002022,-0.0000468
 4,-0.00003501,-0.00000245,0.00000567,-0.00000123,-0.00000911\\\@
 The archive entry for this job was punched.


 ON A CLEAR DISK YOU CAN SEEK FOREVER.
 Job cpu time:       0 days  0 hours 25 minutes  9.9 seconds.
 Elapsed time:       0 days  0 hours  1 minutes 36.2 seconds.
 File lengths (MBytes):  RWF=     84 Int=      0 D2E=      0 Chk=      5 Scr=      1
 Normal termination of Gaussian 16 at Fri Apr 15 22:01:13 2022.
