Job Start Time: Fri Jun 24 13:13:49 MDT 2022
SLURM Job ID: 43008
SLURM Job Name: DATS_14_exo_ii_DLPNO
SLURM Job Nodes: node10
SLURM Memory / CPU: 8000

                                 *****************
                                 * O   R   C   A *
                                 *****************

                                            #,                                       
                                            ###                                      
                                            ####                                     
                                            #####                                    
                                            ######                                   
                                           ########,                                 
                                     ,,################,,,,,                         
                               ,,#################################,,                 
                          ,,##########################################,,             
                       ,#########################################, ''#####,          
                    ,#############################################,,   '####,        
                  ,##################################################,,,,####,       
                ,###########''''           ''''###############################       
              ,#####''   ,,,,##########,,,,          '''####'''          '####       
            ,##' ,,,,###########################,,,                        '##       
           ' ,,###''''                  '''############,,,                           
         ,,##''                                '''############,,,,        ,,,,,,###''
      ,#''                                            '''#######################'''  
     '                                                          ''''####''''         
             ,#######,   #######,   ,#######,      ##                                
            ,#'     '#,  ##    ##  ,#'     '#,    #''#        ######   ,####,        
            ##       ##  ##   ,#'  ##            #'  '#       #        #'  '#        
            ##       ##  #######   ##           ,######,      #####,   #    #        
            '#,     ,#'  ##    ##  '#,     ,#' ,#      #,         ##   #,  ,#        
             '#######'   ##     ##  '#######'  #'      '#     #####' # '####'        



                  #######################################################
                  #                        -***-                        #
                  #          Department of theory and spectroscopy      #
                  #    Directorship and core code : Frank Neese         #
                  #        Max Planck Institute fuer Kohlenforschung    #
                  #                Kaiser Wilhelm Platz 1               #
                  #                 D-45470 Muelheim/Ruhr               #
                  #                      Germany                        #
                  #                                                     #
                  #                  All rights reserved                #
                  #                        -***-                        #
                  #######################################################


                         Program Version 5.0.3 -  RELEASE  -


 With contributions from (in alphabetic order):
   Daniel Aravena         : Magnetic Suceptibility
   Michael Atanasov       : Ab Initio Ligand Field Theory (pilot matlab implementation)
   Alexander A. Auer      : GIAO ZORA, VPT2 properties, NMR spectrum
   Ute Becker             : Parallelization
   Giovanni Bistoni       : ED, misc. LED, open-shell LED, HFLD
   Martin Brehm           : Molecular dynamics
   Dmytro Bykov           : SCF Hessian
   Vijay G. Chilkuri      : MRCI spin determinant printing, contributions to CSF-ICE
   Dipayan Datta          : RHF DLPNO-CCSD density
   Achintya Kumar Dutta   : EOM-CC, STEOM-CC
   Dmitry Ganyushin       : Spin-Orbit,Spin-Spin,Magnetic field MRCI
   Miquel Garcia          : C-PCM and meta-GGA Hessian, CC/C-PCM, Gaussian charge scheme
   Yang Guo               : DLPNO-NEVPT2, F12-NEVPT2, CIM, IAO-localization
   Andreas Hansen         : Spin unrestricted coupled pair/coupled cluster methods
   Benjamin Helmich-Paris : MC-RPA, TRAH-SCF, COSX integrals
   Lee Huntington         : MR-EOM, pCC
   Robert Izsak           : Overlap fitted RIJCOSX, COSX-SCS-MP3, EOM
   Marcus Kettner         : VPT2
   Christian Kollmar      : KDIIS, OOCD, Brueckner-CCSD(T), CCSD density, CASPT2, CASPT2-K
   Simone Kossmann        : Meta GGA functionals, TD-DFT gradient, OOMP2, MP2 Hessian
   Martin Krupicka        : Initial AUTO-CI
   Lucas Lang             : DCDCAS
   Marvin Lechner         : AUTO-CI (C++ implementation), FIC-MRCC
   Dagmar Lenk            : GEPOL surface, SMD
   Dimitrios Liakos       : Extrapolation schemes; Compound Job, initial MDCI parallelization
   Dimitrios Manganas     : Further ROCIS development; embedding schemes
   Dimitrios Pantazis     : SARC Basis sets
   Anastasios Papadopoulos: AUTO-CI, single reference methods and gradients
   Taras Petrenko         : DFT Hessian,TD-DFT gradient, ASA, ECA, R-Raman, ABS, FL, XAS/XES, NRVS
   Peter Pinski           : DLPNO-MP2, DLPNO-MP2 Gradient
   Christoph Reimann      : Effective Core Potentials
   Marius Retegan         : Local ZFS, SOC
   Christoph Riplinger    : Optimizer, TS searches, QM/MM, DLPNO-CCSD(T), (RO)-DLPNO pert. Triples
   Tobias Risthaus        : Range-separated hybrids, TD-DFT gradient, RPA, STAB
   Michael Roemelt        : Original ROCIS implementation
   Masaaki Saitow         : Open-shell DLPNO-CCSD energy and density
   Barbara Sandhoefer     : DKH picture change effects
   Avijit Sen             : IP-ROCIS
   Kantharuban Sivalingam : CASSCF convergence, NEVPT2, FIC-MRCI
   Bernardo de Souza      : ESD, SOC TD-DFT
   Georgi Stoychev        : AutoAux, RI-MP2 NMR, DLPNO-MP2 response
   Willem Van den Heuvel  : Paramagnetic NMR
   Boris Wezisla          : Elementary symmetry handling
   Frank Wennmohs         : Technical directorship


 We gratefully acknowledge several colleagues who have allowed us to
 interface, adapt or use parts of their codes:
   Stefan Grimme, W. Hujo, H. Kruse, P. Pracht,  : VdW corrections, initial TS optimization,
                  C. Bannwarth, S. Ehlert          DFT functionals, gCP, sTDA/sTD-DF
   Ed Valeev, F. Pavosevic, A. Kumar             : LibInt (2-el integral package), F12 methods
   Garnet Chan, S. Sharma, J. Yang, R. Olivares  : DMRG
   Ulf Ekstrom                                   : XCFun DFT Library
   Mihaly Kallay                                 : mrcc  (arbitrary order and MRCC methods)
   Jiri Pittner, Ondrej Demel                    : Mk-CCSD
   Frank Weinhold                                : gennbo (NPA and NBO analysis)
   Christopher J. Cramer and Donald G. Truhlar   : smd solvation model
   Lars Goerigk                                  : TD-DFT with DH, B97 family of functionals
   V. Asgeirsson, H. Jonsson                     : NEB implementation
   FAccTs GmbH                                   : IRC, NEB, NEB-TS, DLPNO-Multilevel, CI-OPT
                                                   MM, QMMM, 2- and 3-layer-ONIOM, Crystal-QMMM,
                                                   LR-CPCM, SF, NACMEs, symmetry and pop. for TD-DFT,
                                                   nearIR, NL-DFT gradient (VV10), updates on ESD,
                                                   ML-optimized integration grids
   S Lehtola, MJT Oliveira, MAL Marques          : LibXC Library
   Liviu Ungur et al                             : ANISO software


 Your calculation uses the libint2 library for the computation of 2-el integrals
 For citations please refer to: http://libint.valeyev.net

 Your ORCA version has been built with support for libXC version: 5.1.0
 For citations please refer to: https://tddft.org/programs/libxc/

 This ORCA versions uses:
   CBLAS   interface :  Fast vector & matrix operations
   LAPACKE interface :  Fast linear algebra routines
   SCALAPACK package :  Parallel linear algebra routines
   Shared memory     :  Shared parallel matrices
   BLAS/LAPACK       :  OpenBLAS 0.3.15  USE64BITINT DYNAMIC_ARCH NO_AFFINITY Zen SINGLE_THREADED
        Core in use  :  Zen
   Copyright (c) 2011-2014, The OpenBLAS Project


================================================================================

----- Orbital basis set information -----
Your calculation utilizes the basis: def2-TZVPP
   F. Weigend and R. Ahlrichs, Phys. Chem. Chem. Phys. 7, 3297 (2005).

----- AuxC basis set information -----
Your calculation utilizes the auxiliary basis: def2-TZVPP/C
  H-La, Hf-Rn : A. Hellweg, C. Hattig, S. Hofener and W. Klopper, Theor. Chem. Acc. 117, 587 (2007).
        Ce-Lu : J. Chmela and M. E. Harding, Mol. Phys. (2018).

================================================================================
                                        WARNINGS
                       Please study these warnings very carefully!
================================================================================


WARNING: Post HF methods need fully converged wavefunctions
  ===> : Setting SCFConvForced true
         You can overwrite this default with %scf ConvForced false 


WARNING: MDCI localization with Augmented Hessian Foster-Boys
  ===> : Switching off randomization!

INFO   : the flag for use of the SHARK integral package has been found!

================================================================================
                                       INPUT FILE
================================================================================
NAME = /tmp/43008/DATS_14_exo_ii_DLPNO.inp
|  1> # DATS_14_exo_ii_DLPNO
|  2> %maxcore 4000
|  3> %pal nprocs 16 end
|  4> ! pal16 DLPNO-CCSD(T) def2-tzvpp def2-tzvpp/C
|  5> 
|  6> * xyz 0 1
|  7>  C  -0.65471900  -1.21953000  -0.75681100
|  8>  C   0.53004500  -0.66952000   0.75871700
|  9>  C  -0.71546000   1.85776600   0.23983700
| 10>  C  -1.61489000  -0.24837600  -1.04517100
| 11>  H   0.08930400  -1.45837400  -1.51164700
| 12>  H  -0.99824700  -2.06561900  -0.16636600
| 13>  H  -1.56872800   0.35482300  -1.94397000
| 14>  C   1.24348600   0.41886800   0.26737200
| 15>  C   0.59649200   1.64481800  -0.04017100
| 16>  H   1.05543000  -1.58685200   1.00166300
| 17>  H  -1.21131700   2.75563600  -0.11605700
| 18>  H   1.15705800   2.34404900  -0.65456900
| 19>  H  -0.33098600  -0.47570000   1.39145200
| 20>  H  -1.25099100   1.28120900   0.98386700
| 21>  O   2.51408100   0.34509200  -0.19494900
| 22>  C   3.23439900  -0.84819500   0.03276300
| 23>  H   2.78228300  -1.69358700  -0.49902400
| 24>  H   4.23798400  -0.67320100  -0.35360100
| 25>  H   3.28598800  -1.08057800   1.10266600
| 26>  C  -2.77429700  -0.15562300  -0.18713200
| 27>  O  -2.85319000  -0.70370500   0.90691900
| 28>  H  -3.60524400   0.48584900  -0.54659500
| 29> **                         ****END OF INPUT****
================================================================================

                       ****************************
                       * Single Point Calculation *
                       ****************************

---------------------------------
CARTESIAN COORDINATES (ANGSTROEM)
---------------------------------
  C     -0.654719   -1.219530   -0.756811
  C      0.530045   -0.669520    0.758717
  C     -0.715460    1.857766    0.239837
  C     -1.614890   -0.248376   -1.045171
  H      0.089304   -1.458374   -1.511647
  H     -0.998247   -2.065619   -0.166366
  H     -1.568728    0.354823   -1.943970
  C      1.243486    0.418868    0.267372
  C      0.596492    1.644818   -0.040171
  H      1.055430   -1.586852    1.001663
  H     -1.211317    2.755636   -0.116057
  H      1.157058    2.344049   -0.654569
  H     -0.330986   -0.475700    1.391452
  H     -1.250991    1.281209    0.983867
  O      2.514081    0.345092   -0.194949
  C      3.234399   -0.848195    0.032763
  H      2.782283   -1.693587   -0.499024
  H      4.237984   -0.673201   -0.353601
  H      3.285988   -1.080578    1.102666
  C     -2.774297   -0.155623   -0.187132
  O     -2.853190   -0.703705    0.906919
  H     -3.605244    0.485849   -0.546595

----------------------------
CARTESIAN COORDINATES (A.U.)
----------------------------
  NO LB      ZA    FRAG     MASS         X           Y           Z
   0 C     6.0000    0    12.011   -1.237240   -2.304578   -1.430166
   1 C     6.0000    0    12.011    1.001640   -1.265209    1.433767
   2 C     6.0000    0    12.011   -1.352023    3.510669    0.453226
   3 C     6.0000    0    12.011   -3.051700   -0.469363   -1.975087
   4 H     1.0000    0     1.008    0.168760   -2.755927   -2.856599
   5 H     1.0000    0     1.008   -1.886413   -3.903454   -0.314386
   6 H     1.0000    0     1.008   -2.964466    0.670518   -3.673571
   7 C     6.0000    0    12.011    2.349848    0.791546    0.505260
   8 C     6.0000    0    12.011    1.127207    3.108256   -0.075912
   9 H     1.0000    0     1.008    1.994474   -2.998716    1.892869
  10 H     1.0000    0     1.008   -2.289057    5.207397   -0.219316
  11 H     1.0000    0     1.008    2.186523    4.429611   -1.236956
  12 H     1.0000    0     1.008   -0.625473   -0.898943    2.629463
  13 H     1.0000    0     1.008   -2.364030    2.421134    1.859239
  14 O     8.0000    0    15.999    4.750925    0.652129   -0.368400
  15 C     6.0000    0    12.011    6.112128   -1.602856    0.061913
  16 H     1.0000    0     1.008    5.257753   -3.200416   -0.943019
  17 H     1.0000    0     1.008    8.008629   -1.272166   -0.668209
  18 H     1.0000    0     1.008    6.209617   -2.041996    2.083737
  19 C     6.0000    0    12.011   -5.242662   -0.294085   -0.353628
  20 O     8.0000    0    15.999   -5.391748   -1.329810    1.713829
  21 H     1.0000    0     1.008   -6.812924    0.918122   -1.032915

--------------------------------
INTERNAL COORDINATES (ANGSTROEM)
--------------------------------
 C      0   0   0     0.000000000000     0.00000000     0.00000000
 C      1   0   0     2.000750322899     0.00000000     0.00000000
 C      2   1   0     2.864907273407    81.24991621     0.00000000
 C      1   2   3     1.395786491752   111.87426402   346.96933671
 H      1   2   3     1.086459418368   100.43884433   113.87295817
 H      1   2   3     1.087429713007    89.40801385   229.19853889
 H      4   1   2     1.083429557584   121.96829467   108.73449120
 C      2   1   3     1.391045077648   104.55094012   306.52953540
 C      3   2   1     1.358296499691    58.60898304   249.64502865
 H      2   1   3     1.084688967108   102.94364710   180.96406522
 H      3   2   1     1.085681924223   170.92364032   334.90222762
 H      9   3   2     1.086574035269   120.92904788   167.01482191
 H      2   1   3     1.085953109294    91.19762559    66.13425169
 H      3   2   1     1.082955247049    67.72210868    91.47625123
 O      8   2   1     1.354103119870   124.00185948   259.84015627
 C     15   8   2     1.412318887659   118.00553113   349.22358266
 H     16  15   8     1.096309228498   111.28403202    64.83828291
 H     16  15   8     1.089533337148   106.07595407   183.70274292
 H     16  15   8     1.096063735838   111.13244985   302.86068912
 C      4   1   2     1.445357615325   118.28231567   281.92361861
 O     20   4   1     1.226199647192   123.54556545    13.75798368
 H     20   4   1     1.109582305177   116.45546621   191.25406584

---------------------------
INTERNAL COORDINATES (A.U.)
---------------------------
 C      0   0   0     0.000000000000     0.00000000     0.00000000
 C      1   0   0     3.780870172633     0.00000000     0.00000000
 C      2   1   0     5.413890145819    81.24991621     0.00000000
 C      1   2   3     2.637654210838   111.87426402   346.96933671
 H      1   2   3     2.053110756335   100.43884433   113.87295817
 H      1   2   3     2.054944347471    89.40801385   229.19853889
 H      4   1   2     2.047385149229   121.96829467   108.73449120
 C      2   1   3     2.628694236695   104.55094012   306.52953540
 C      3   2   1     2.566808393079    58.60898304   249.64502865
 H      2   1   3     2.049765088319   102.94364710   180.96406522
 H      3   2   1     2.051641505331   170.92364032   334.90222762
 H      9   3   2     2.053327350888   120.92904788   167.01482191
 H      2   1   3     2.052153970847    91.19762559    66.13425169
 H      3   2   1     2.046488832215    67.72210868    91.47625123
 O      8   2   1     2.558884053643   124.00185948   259.84015627
 C     15   8   2     2.668895911439   118.00553113   349.22358266
 H     16  15   8     2.071724199951   111.28403202    64.83828291
 H     16  15   8     2.058919620987   106.07595407   183.70274292
 H     16  15   8     2.071260286056   111.13244985   302.86068912
 C      4   1   2     2.731330058542   118.28231567   281.92361861
 O     20   4   1     2.317181518704   123.54556545    13.75798368
 H     20   4   1     2.096806679830   116.45546621   191.25406584

---------------------
BASIS SET INFORMATION
---------------------
There are 3 groups of distinct atoms

 Group   1 Type C   : 11s6p2d1f contracted to 5s3p2d1f pattern {62111/411/11/1}
 Group   2 Type H   : 5s2p1d contracted to 3s2p1d pattern {311/11/1}
 Group   3 Type O   : 11s6p2d1f contracted to 5s3p2d1f pattern {62111/411/11/1}

Atom   0C    basis set group =>   1
Atom   1C    basis set group =>   1
Atom   2C    basis set group =>   1
Atom   3C    basis set group =>   1
Atom   4H    basis set group =>   2
Atom   5H    basis set group =>   2
Atom   6H    basis set group =>   2
Atom   7C    basis set group =>   1
Atom   8C    basis set group =>   1
Atom   9H    basis set group =>   2
Atom  10H    basis set group =>   2
Atom  11H    basis set group =>   2
Atom  12H    basis set group =>   2
Atom  13H    basis set group =>   2
Atom  14O    basis set group =>   3
Atom  15C    basis set group =>   1
Atom  16H    basis set group =>   2
Atom  17H    basis set group =>   2
Atom  18H    basis set group =>   2
Atom  19C    basis set group =>   1
Atom  20O    basis set group =>   3
Atom  21H    basis set group =>   2
---------------------------------
AUXILIARY/C BASIS SET INFORMATION
---------------------------------
There are 3 groups of distinct atoms

 Group   1 Type C   : 8s6p5d3f1g contracted to 8s6p4d3f1g pattern {11111111/111111/2111/111/1}
 Group   2 Type H   : 4s3p2d1f contracted to 4s3p2d1f pattern {1111/111/11/1}
 Group   3 Type O   : 8s6p5d3f1g contracted to 8s6p4d3f1g pattern {11111111/111111/2111/111/1}

Atom   0C    basis set group =>   1
Atom   1C    basis set group =>   1
Atom   2C    basis set group =>   1
Atom   3C    basis set group =>   1
Atom   4H    basis set group =>   2
Atom   5H    basis set group =>   2
Atom   6H    basis set group =>   2
Atom   7C    basis set group =>   1
Atom   8C    basis set group =>   1
Atom   9H    basis set group =>   2
Atom  10H    basis set group =>   2
Atom  11H    basis set group =>   2
Atom  12H    basis set group =>   2
Atom  13H    basis set group =>   2
Atom  14O    basis set group =>   3
Atom  15C    basis set group =>   1
Atom  16H    basis set group =>   2
Atom  17H    basis set group =>   2
Atom  18H    basis set group =>   2
Atom  19C    basis set group =>   1
Atom  20O    basis set group =>   3
Atom  21H    basis set group =>   2


           ************************************************************
           *        Program running with 16 parallel MPI-processes    *
           *              working on a common directory               *
           ************************************************************
------------------------------------------------------------------------------
                           ORCA GTO INTEGRAL CALCULATION
------------------------------------------------------------------------------
------------------------------------------------------------------------------
                   ___                                                        
                  /   \      - P O W E R E D   B Y -                         
                 /     \                                                     
                 |  |  |   _    _      __       _____    __    __             
                 |  |  |  | |  | |    /  \     |  _  \  |  |  /  |          
                  \  \/   | |  | |   /    \    | | | |  |  | /  /          
                 / \  \   | |__| |  /  /\  \   | |_| |  |  |/  /          
                |  |  |   |  __  | /  /__\  \  |    /   |      \           
                |  |  |   | |  | | |   __   |  |    \   |  |\   \          
                \     /   | |  | | |  |  |  |  | |\  \  |  | \   \       
                 \___/    |_|  |_| |__|  |__|  |_| \__\ |__|  \__/        
                                                                              
                      - O R C A' S   B I G   F R I E N D -                    
                                      &                                       
                       - I N T E G R A L  F E E D E R -                       
                                                                              
 v1 FN, 2020, v2 2021                                                         
------------------------------------------------------------------------------


Reading SHARK input file /tmp/43008/DATS_14_exo_ii_DLPNO.SHARKINP.tmp ... ok
----------------------
SHARK INTEGRAL PACKAGE
----------------------

Number of atoms                             ...     22
Number of basis functions                   ...    478
Number of shells                            ...    182
Maximum angular momentum                    ...      3
Integral batch strategy                     ... SHARK/LIBINT Hybrid
RI-J (if used) integral strategy            ... SPLIT-RIJ (Revised 2003 algorithm where possible)
Printlevel                                  ...      1
Contraction scheme used                     ... SEGMENTED contraction
Coulomb Range Separation                    ... NOT USED
Exchange Range Separation                   ... NOT USED
Finite Nucleus Model                        ... NOT USED
Auxiliary Coulomb fitting basis             ... NOT available
Auxiliary J/K fitting basis                 ... NOT available
Auxiliary Correlation fitting basis         ... AVAILABLE
   # of basis functions in Aux-C            ...   1120
   # of shells in Aux-C                     ...    340
   Maximum angular momentum in Aux-C        ...      4
Auxiliary 'external' fitting basis          ... NOT available
Integral threshold                          ...     1.000000e-10
Primitive cut-off                           ...     1.000000e-11
Primitive pair pre-selection threshold      ...     1.000000e-11

Calculating pre-screening integrals         ... done (  0.0 sec) Dimension = 182
Organizing shell pair data                  ... done (  0.1 sec)
Shell pair information
Total number of shell pairs                 ...     16653
Shell pairs after pre-screening             ...     14258
Total number of primitive shell pairs       ...     44212
Primitive shell pairs kept                  ...     28339
          la=0 lb=0:   3168 shell pairs
          la=1 lb=0:   4038 shell pairs
          la=1 lb=1:   1334 shell pairs
          la=2 lb=0:   2260 shell pairs
          la=2 lb=1:   1486 shell pairs
          la=2 lb=2:    437 shell pairs
          la=3 lb=0:    739 shell pairs
          la=3 lb=1:    475 shell pairs
          la=3 lb=2:    270 shell pairs
          la=3 lb=3:     51 shell pairs

Calculating one electron integrals          ... done (  0.0 sec)
Calculating RI/C V-Matrix + Cholesky decomp.... done (  0.0 sec)
Calculating Nuclear repulsion               ... done (  0.0 sec) ENN=    528.340344220970 Eh

SHARK setup successfully completed in   0.4 seconds

Maximum memory used throughout the entire GTOINT-calculation: 26.5 MB


           ************************************************************
           *        Program running with 16 parallel MPI-processes    *
           *              working on a common directory               *
           ************************************************************
-------------------------------------------------------------------------------
                                 ORCA SCF
-------------------------------------------------------------------------------

------------
SCF SETTINGS
------------
Hamiltonian:
 Ab initio Hamiltonian  Method          .... Hartree-Fock(GTOs)


General Settings:
 Integral files         IntName         .... /tmp/43008/DATS_14_exo_ii_DLPNO
 Hartree-Fock type      HFTyp           .... RHF
 Total Charge           Charge          ....    0
 Multiplicity           Mult            ....    1
 Number of Electrons    NEL             ....   76
 Basis Dimension        Dim             ....  478
 Nuclear Repulsion      ENuc            ....    528.3403442210 Eh

Convergence Acceleration:
 DIIS                   CNVDIIS         .... on
   Start iteration      DIISMaxIt       ....    12
   Startup error        DIISStart       ....  0.200000
   # of expansion vecs  DIISMaxEq       ....     5
   Bias factor          DIISBfac        ....   1.050
   Max. coefficient     DIISMaxC        ....  10.000
 Trust-Rad. Augm. Hess. CNVTRAH         .... auto
   Auto Start mean grad. ratio tolernc. ....  1.125000
   Auto Start start iteration           ....    20
   Auto Start num. interpolation iter.  ....    10
   Max. Number of Micro iterations      ....    16
   Max. Number of Macro iterations      .... Maxiter - #DIIS iter
   Number of Davidson start vectors     ....     2
   Converg. threshold I  (grad. norm)   ....   5.000e-05
   Converg. threshold II (energy diff.) ....   1.000e-06
   Grad. Scal. Fac. for Micro threshold ....   0.100
   Minimum threshold for Micro iter.    ....   0.010
   NR start threshold (gradient norm)   ....   0.001
   Initial trust radius                 ....   0.400
   Minimum AH scaling param. (alpha)    ....   1.000
   Maximum AH scaling param. (alpha)    .... 1000.000
   Orbital update algorithm             .... Taylor
   White noise on init. David. guess    .... on
   Maximum white noise                  ....   0.010
   Quad. conv. algorithm                .... NR
 SOSCF                  CNVSOSCF        .... on
   Start iteration      SOSCFMaxIt      ....   150
   Startup grad/error   SOSCFStart      ....  0.003300
 Level Shifting         CNVShift        .... on
   Level shift para.    LevelShift      ....    0.2500
   Turn off err/grad.   ShiftErr        ....    0.0010
 Zerner damping         CNVZerner       .... off
 Static damping         CNVDamp         .... on
   Fraction old density DampFac         ....    0.7000
   Max. Damping (<1)    DampMax         ....    0.9800
   Min. Damping (>=0)   DampMin         ....    0.0000
   Turn off err/grad.   DampErr         ....    0.1000
 Fernandez-Rico         CNVRico         .... off

SCF Procedure:
 Maximum # iterations   MaxIter         ....   125
 SCF integral mode      SCFMode         .... Direct
   Integral package                     .... SHARK and LIBINT hybrid scheme
 Reset frequency        DirectResetFreq ....    20
 Integral Threshold     Thresh          ....  1.000e-10 Eh
 Primitive CutOff       TCut            ....  1.000e-11 Eh

Convergence Tolerance:
 Convergence Check Mode ConvCheckMode   .... Total+1el-Energy
 Convergence forced     ConvForced      .... 1
 Energy Change          TolE            ....  1.000e-06 Eh
 1-El. energy change                    ....  1.000e-03 Eh
 Orbital Gradient       TolG            ....  5.000e-05
 Orbital Rotation angle TolX            ....  5.000e-05
 DIIS Error             TolErr          ....  1.000e-06


Diagonalization of the overlap matrix:
Smallest eigenvalue                        ... 5.329e-05
Time for diagonalization                   ...    0.028 sec
Threshold for overlap eigenvalues          ... 1.000e-08
Number of eigenvalues below threshold      ... 0
Time for construction of square roots      ...    0.025 sec
Total time needed                          ...    0.053 sec

Time for model grid setup =    0.076 sec

------------------------------
INITIAL GUESS: MODEL POTENTIAL
------------------------------
Loading Hartree-Fock densities                     ... done
Calculating cut-offs                               ... done
Initializing the effective Hamiltonian             ... done
Setting up the integral package (SHARK)            ... done
Starting the Coulomb interaction                   ... done (   0.1 sec)
Reading the grid                                   ... done
Mapping shells                                     ... done
Starting the XC term evaluation                    ... done (   0.0 sec)
Transforming the Hamiltonian                       ... done (   0.0 sec)
Diagonalizing the Hamiltonian                      ... done (   0.0 sec)
Back transforming the eigenvectors                 ... done (   0.0 sec)
Now organizing SCF variables                       ... done
                      ------------------
                      INITIAL GUESS DONE (   0.2 sec)
                      ------------------
--------------
SCF ITERATIONS
--------------
ITER       Energy         Delta-E        Max-DP      RMS-DP      [F,P]     Damp
               ***  Starting incremental Fock matrix formation  ***
  0   -459.2369846036   0.000000000000 0.05576448  0.00070231  0.3020948 0.7000
  1   -459.3888794019  -0.151894798351 0.05801045  0.00060451  0.2205752 0.7000
                               ***Turning on DIIS***
  2   -459.4820292417  -0.093149839789 0.02808909  0.00040033  0.1628477 0.7000
  3   -460.6345754509  -1.152546209206 0.00977027  0.00024346  0.1205303 0.7000
  4   -460.4861913823   0.148384068647 0.03251039  0.00059358  0.0847682 0.0000
  5   -459.7161343251   0.770057057226 0.01186576  0.00009926  0.0047853 0.0000
                      *** Initiating the SOSCF procedure ***
                           *** Shutting down DIIS ***
                      *** Re-Reading the Fockian *** 
                      *** Removing any level shift *** 
ITER      Energy       Delta-E        Grad      Rot      Max-DP    RMS-DP
  6   -459.68480722   0.0313271040  0.002752  0.002752  0.010109  0.000068
               *** Restarting incremental Fock matrix formation ***
  7   -459.68098735   0.0038198752  0.001769  0.004490  0.004530  0.000048
  8   -459.68106506  -0.0000777158  0.000945  0.006477  0.009385  0.000074
  9   -459.68110290  -0.0000378433  0.000250  0.000523  0.001937  0.000015
 10   -459.68110683  -0.0000039268  0.000106  0.000317  0.000458  0.000006
                 **** Energy Check signals convergence ****
              ***Rediagonalizing the Fockian in SOSCF/NRSCF***

               *****************************************************
               *                     SUCCESS                       *
               *           SCF CONVERGED AFTER  11 CYCLES          *
               *****************************************************


----------------
TOTAL SCF ENERGY
----------------

Total Energy       :         -459.68110745 Eh          -12508.55886 eV

Components:
Nuclear Repulsion  :          528.34034422 Eh           14376.87167 eV
Electronic Energy  :         -988.02145167 Eh          -26885.43053 eV
One Electron Energy:        -1673.69681266 Eh          -45543.60566 eV
Two Electron Energy:          685.67536099 Eh           18658.17514 eV

Virial components:
Potential Energy   :         -918.83112073 Eh          -25002.66591 eV
Kinetic Energy     :          459.15001328 Eh           12494.10705 eV
Virial Ratio       :            2.00115669


---------------
SCF CONVERGENCE
---------------

  Last Energy change         ...   -6.2184e-07  Tolerance :   1.0000e-06
  Last MAX-Density change    ...    2.6974e-04  Tolerance :   1.0000e-05
  Last RMS-Density change    ...    3.2454e-06  Tolerance :   1.0000e-06
  Last Orbital Gradient      ...    6.8270e-05  Tolerance :   5.0000e-05
  Last Orbital Rotation      ...    3.6311e-04  Tolerance :   5.0000e-05

             **** THE GBW FILE WAS UPDATED (/tmp/43008/DATS_14_exo_ii_DLPNO.gbw) ****
             **** DENSITY /tmp/43008/DATS_14_exo_ii_DLPNO.scfp WAS UPDATED ****
             **** ENERGY FILE WAS UPDATED (/tmp/43008/DATS_14_exo_ii_DLPNO.en.tmp) ****
             **** THE GBW FILE WAS UPDATED (/tmp/43008/DATS_14_exo_ii_DLPNO.gbw) ****
             **** DENSITY /tmp/43008/DATS_14_exo_ii_DLPNO.scfp WAS UPDATED ****
----------------
ORBITAL ENERGIES
----------------

  NO   OCC          E(Eh)            E(eV) 
   0   2.0000     -20.605405      -560.7016 
   1   2.0000     -20.509346      -558.0877 
   2   2.0000     -11.324944      -308.1674 
   3   2.0000     -11.299899      -307.4859 
   4   2.0000     -11.297507      -307.4208 
   5   2.0000     -11.261890      -306.4516 
   6   2.0000     -11.259250      -306.3798 
   7   2.0000     -11.239906      -305.8534 
   8   2.0000     -11.237063      -305.7760 
   9   2.0000     -11.205636      -304.9209 
  10   2.0000      -1.434881       -39.0451 
  11   2.0000      -1.348068       -36.6828 
  12   2.0000      -1.116064       -30.3697 
  13   2.0000      -1.045955       -28.4619 
  14   2.0000      -1.003683       -27.3116 
  15   2.0000      -0.974341       -26.5132 
  16   2.0000      -0.876388       -23.8477 
  17   2.0000      -0.855123       -23.2691 
  18   2.0000      -0.755216       -20.5505 
  19   2.0000      -0.733138       -19.9497 
  20   2.0000      -0.706424       -19.2228 
  21   2.0000      -0.691413       -18.8143 
  22   2.0000      -0.672463       -18.2987 
  23   2.0000      -0.666484       -18.1359 
  24   2.0000      -0.621523       -16.9125 
  25   2.0000      -0.603961       -16.4346 
  26   2.0000      -0.587836       -15.9958 
  27   2.0000      -0.579022       -15.7560 
  28   2.0000      -0.551332       -15.0025 
  29   2.0000      -0.546107       -14.8603 
  30   2.0000      -0.538379       -14.6500 
  31   2.0000      -0.527683       -14.3590 
  32   2.0000      -0.505863       -13.7652 
  33   2.0000      -0.503511       -13.7012 
  34   2.0000      -0.451072       -12.2743 
  35   2.0000      -0.397545       -10.8177 
  36   2.0000      -0.361405        -9.8343 
  37   2.0000      -0.277601        -7.5539 
  38   0.0000       0.065099         1.7714 
  39   0.0000       0.117419         3.1951 
  40   0.0000       0.132161         3.5963 
  41   0.0000       0.155407         4.2288 
  42   0.0000       0.173469         4.7203 
  43   0.0000       0.178761         4.8643 
  44   0.0000       0.186266         5.0685 
  45   0.0000       0.200159         5.4466 
  46   0.0000       0.206711         5.6249 
  47   0.0000       0.209184         5.6922 
  48   0.0000       0.216853         5.9009 
  49   0.0000       0.221402         6.0246 
  50   0.0000       0.231210         6.2915 
  51   0.0000       0.238812         6.4984 
  52   0.0000       0.256296         6.9742 
  53   0.0000       0.265807         7.2330 
  54   0.0000       0.289516         7.8781 
  55   0.0000       0.297114         8.0849 
  56   0.0000       0.308114         8.3842 
  57   0.0000       0.315024         8.5722 
  58   0.0000       0.321811         8.7569 
  59   0.0000       0.328695         8.9443 
  60   0.0000       0.342236         9.3127 
  61   0.0000       0.350053         9.5254 
  62   0.0000       0.360690         9.8149 
  63   0.0000       0.378220        10.2919 
  64   0.0000       0.385092        10.4789 
  65   0.0000       0.390800        10.6342 
  66   0.0000       0.402288        10.9468 
  67   0.0000       0.423150        11.5145 
  68   0.0000       0.429584        11.6896 
  69   0.0000       0.449589        12.2339 
  70   0.0000       0.454250        12.3608 
  71   0.0000       0.483929        13.1684 
  72   0.0000       0.488376        13.2894 
  73   0.0000       0.492740        13.4081 
  74   0.0000       0.503434        13.6991 
  75   0.0000       0.513779        13.9806 
  76   0.0000       0.519490        14.1360 
  77   0.0000       0.525340        14.2952 
  78   0.0000       0.534308        14.5393 
  79   0.0000       0.544640        14.8204 
  80   0.0000       0.555019        15.1028 
  81   0.0000       0.561996        15.2927 
  82   0.0000       0.571334        15.5468 
  83   0.0000       0.576631        15.6909 
  84   0.0000       0.582190        15.8422 
  85   0.0000       0.592031        16.1100 
  86   0.0000       0.601346        16.3635 
  87   0.0000       0.613630        16.6977 
  88   0.0000       0.621748        16.9186 
  89   0.0000       0.624503        16.9936 
  90   0.0000       0.633004        17.2249 
  91   0.0000       0.637565        17.3490 
  92   0.0000       0.666418        18.1342 
  93   0.0000       0.667640        18.1674 
  94   0.0000       0.674068        18.3423 
  95   0.0000       0.686883        18.6910 
  96   0.0000       0.698376        19.0038 
  97   0.0000       0.713488        19.4150 
  98   0.0000       0.729045        19.8383 
  99   0.0000       0.739267        20.1165 
 100   0.0000       0.739633        20.1264 
 101   0.0000       0.748284        20.3618 
 102   0.0000       0.755652        20.5623 
 103   0.0000       0.786991        21.4151 
 104   0.0000       0.795647        21.6507 
 105   0.0000       0.810265        22.0484 
 106   0.0000       0.811905        22.0930 
 107   0.0000       0.835334        22.7306 
 108   0.0000       0.841806        22.9067 
 109   0.0000       0.859316        23.3832 
 110   0.0000       0.865845        23.5608 
 111   0.0000       0.876412        23.8484 
 112   0.0000       0.891557        24.2605 
 113   0.0000       0.896586        24.3974 
 114   0.0000       0.917517        24.9669 
 115   0.0000       0.942828        25.6557 
 116   0.0000       0.956381        26.0244 
 117   0.0000       0.977715        26.6050 
 118   0.0000       0.987229        26.8639 
 119   0.0000       1.003860        27.3164 
 120   0.0000       1.012369        27.5480 
 121   0.0000       1.035557        28.1789 
 122   0.0000       1.063113        28.9288 
 123   0.0000       1.067809        29.0566 
 124   0.0000       1.075866        29.2758 
 125   0.0000       1.094514        29.7832 
 126   0.0000       1.100519        29.9466 
 127   0.0000       1.107496        30.1365 
 128   0.0000       1.132101        30.8060 
 129   0.0000       1.140100        31.0237 
 130   0.0000       1.144740        31.1500 
 131   0.0000       1.148855        31.2619 
 132   0.0000       1.158353        31.5204 
 133   0.0000       1.180684        32.1281 
 134   0.0000       1.185696        32.2644 
 135   0.0000       1.188268        32.3344 
 136   0.0000       1.210619        32.9426 
 137   0.0000       1.217965        33.1425 
 138   0.0000       1.236794        33.6549 
 139   0.0000       1.244097        33.8536 
 140   0.0000       1.255671        34.1685 
 141   0.0000       1.263038        34.3690 
 142   0.0000       1.266535        34.4642 
 143   0.0000       1.278478        34.7892 
 144   0.0000       1.288487        35.0615 
 145   0.0000       1.309800        35.6415 
 146   0.0000       1.322401        35.9844 
 147   0.0000       1.331363        36.2282 
 148   0.0000       1.340761        36.4840 
 149   0.0000       1.361442        37.0467 
 150   0.0000       1.376144        37.4468 
 151   0.0000       1.386061        37.7166 
 152   0.0000       1.403727        38.1974 
 153   0.0000       1.411136        38.3990 
 154   0.0000       1.431129        38.9430 
 155   0.0000       1.443965        39.2923 
 156   0.0000       1.452452        39.5232 
 157   0.0000       1.466676        39.9103 
 158   0.0000       1.473339        40.0916 
 159   0.0000       1.495847        40.7041 
 160   0.0000       1.498978        40.7893 
 161   0.0000       1.523260        41.4500 
 162   0.0000       1.529371        41.6163 
 163   0.0000       1.548807        42.1452 
 164   0.0000       1.564953        42.5845 
 165   0.0000       1.573757        42.8241 
 166   0.0000       1.579945        42.9925 
 167   0.0000       1.585611        43.1467 
 168   0.0000       1.592841        43.3434 
 169   0.0000       1.610505        43.8241 
 170   0.0000       1.617414        44.0121 
 171   0.0000       1.630928        44.3798 
 172   0.0000       1.632921        44.4340 
 173   0.0000       1.640289        44.6345 
 174   0.0000       1.665278        45.3145 
 175   0.0000       1.677131        45.6371 
 176   0.0000       1.687887        45.9297 
 177   0.0000       1.709430        46.5160 
 178   0.0000       1.716948        46.7205 
 179   0.0000       1.725916        46.9646 
 180   0.0000       1.750777        47.6411 
 181   0.0000       1.768750        48.1301 
 182   0.0000       1.770440        48.1761 
 183   0.0000       1.780863        48.4597 
 184   0.0000       1.785687        48.5910 
 185   0.0000       1.809248        49.2321 
 186   0.0000       1.822025        49.5798 
 187   0.0000       1.848115        50.2898 
 188   0.0000       1.857458        50.5440 
 189   0.0000       1.893639        51.5285 
 190   0.0000       1.898190        51.6524 
 191   0.0000       1.909517        51.9606 
 192   0.0000       1.919055        52.2201 
 193   0.0000       1.922642        52.3178 
 194   0.0000       1.934021        52.6274 
 195   0.0000       1.962085        53.3911 
 196   0.0000       1.985185        54.0196 
 197   0.0000       2.003195        54.5097 
 198   0.0000       2.021956        55.0202 
 199   0.0000       2.047665        55.7198 
 200   0.0000       2.053895        55.8893 
 201   0.0000       2.084307        56.7169 
 202   0.0000       2.098705        57.1087 
 203   0.0000       2.133783        58.0632 
 204   0.0000       2.141576        58.2752 
 205   0.0000       2.185493        59.4703 
 206   0.0000       2.210558        60.1524 
 207   0.0000       2.238660        60.9170 
 208   0.0000       2.253682        61.3258 
 209   0.0000       2.264474        61.6195 
 210   0.0000       2.290565        62.3294 
 211   0.0000       2.318729        63.0958 
 212   0.0000       2.325520        63.2806 
 213   0.0000       2.330806        63.4245 
 214   0.0000       2.359852        64.2149 
 215   0.0000       2.386953        64.9523 
 216   0.0000       2.394700        65.1631 
 217   0.0000       2.432996        66.2052 
 218   0.0000       2.447793        66.6078 
 219   0.0000       2.464511        67.0628 
 220   0.0000       2.475649        67.3658 
 221   0.0000       2.494682        67.8837 
 222   0.0000       2.520993        68.5997 
 223   0.0000       2.564419        69.7814 
 224   0.0000       2.653625        72.2088 
 225   0.0000       2.666228        72.5518 
 226   0.0000       2.719847        74.0108 
 227   0.0000       2.726230        74.1845 
 228   0.0000       2.745634        74.7125 
 229   0.0000       2.755150        74.9715 
 230   0.0000       2.785601        75.8001 
 231   0.0000       2.796583        76.0989 
 232   0.0000       2.843009        77.3622 
 233   0.0000       2.852308        77.6153 
 234   0.0000       2.862803        77.9008 
 235   0.0000       2.875341        78.2420 
 236   0.0000       2.903479        79.0077 
 237   0.0000       2.921902        79.5090 
 238   0.0000       2.952708        80.3473 
 239   0.0000       2.974427        80.9383 
 240   0.0000       2.977522        81.0225 
 241   0.0000       3.002023        81.6892 
 242   0.0000       3.004629        81.7601 
 243   0.0000       3.030510        82.4644 
 244   0.0000       3.042941        82.8026 
 245   0.0000       3.052342        83.0585 
 246   0.0000       3.058188        83.2175 
 247   0.0000       3.067748        83.4777 
 248   0.0000       3.078214        83.7625 
 249   0.0000       3.086943        84.0000 
 250   0.0000       3.090939        84.1087 
 251   0.0000       3.100837        84.3781 
 252   0.0000       3.112659        84.6997 
 253   0.0000       3.120659        84.9175 
 254   0.0000       3.144580        85.5684 
 255   0.0000       3.163734        86.0896 
 256   0.0000       3.182352        86.5962 
 257   0.0000       3.192175        86.8635 
 258   0.0000       3.196251        86.9744 
 259   0.0000       3.207037        87.2679 
 260   0.0000       3.214148        87.4614 
 261   0.0000       3.216995        87.5389 
 262   0.0000       3.238620        88.1273 
 263   0.0000       3.240412        88.1761 
 264   0.0000       3.249538        88.4244 
 265   0.0000       3.278360        89.2087 
 266   0.0000       3.296758        89.7094 
 267   0.0000       3.304398        89.9173 
 268   0.0000       3.324284        90.4584 
 269   0.0000       3.334939        90.7483 
 270   0.0000       3.350439        91.1701 
 271   0.0000       3.367144        91.6246 
 272   0.0000       3.374306        91.8195 
 273   0.0000       3.391842        92.2967 
 274   0.0000       3.398123        92.4676 
 275   0.0000       3.408170        92.7410 
 276   0.0000       3.428110        93.2836 
 277   0.0000       3.432043        93.3906 
 278   0.0000       3.435415        93.4824 
 279   0.0000       3.449177        93.8569 
 280   0.0000       3.467876        94.3657 
 281   0.0000       3.484767        94.8253 
 282   0.0000       3.492571        95.0377 
 283   0.0000       3.515965        95.6743 
 284   0.0000       3.523771        95.8867 
 285   0.0000       3.531743        96.1036 
 286   0.0000       3.550563        96.6157 
 287   0.0000       3.557910        96.8156 
 288   0.0000       3.570519        97.1588 
 289   0.0000       3.577792        97.3567 
 290   0.0000       3.581251        97.4508 
 291   0.0000       3.593866        97.7941 
 292   0.0000       3.612460        98.3000 
 293   0.0000       3.618968        98.4771 
 294   0.0000       3.627098        98.6983 
 295   0.0000       3.636721        98.9602 
 296   0.0000       3.643270        99.1384 
 297   0.0000       3.651150        99.3528 
 298   0.0000       3.662662        99.6661 
 299   0.0000       3.668389        99.8219 
 300   0.0000       3.693250       100.4984 
 301   0.0000       3.724702       101.3543 
 302   0.0000       3.726757       101.4102 
 303   0.0000       3.733242       101.5867 
 304   0.0000       3.749062       102.0172 
 305   0.0000       3.749454       102.0278 
 306   0.0000       3.760897       102.3392 
 307   0.0000       3.778119       102.8078 
 308   0.0000       3.794348       103.2495 
 309   0.0000       3.812547       103.7447 
 310   0.0000       3.818785       103.9144 
 311   0.0000       3.820319       103.9562 
 312   0.0000       3.843491       104.5867 
 313   0.0000       3.851908       104.8157 
 314   0.0000       3.869637       105.2982 
 315   0.0000       3.876280       105.4789 
 316   0.0000       3.885116       105.7194 
 317   0.0000       3.892779       105.9279 
 318   0.0000       3.915106       106.5355 
 319   0.0000       3.922147       106.7270 
 320   0.0000       3.938990       107.1854 
 321   0.0000       3.949262       107.4649 
 322   0.0000       3.968453       107.9871 
 323   0.0000       3.977811       108.2417 
 324   0.0000       4.003993       108.9542 
 325   0.0000       4.007855       109.0593 
 326   0.0000       4.025166       109.5303 
 327   0.0000       4.043418       110.0270 
 328   0.0000       4.052736       110.2806 
 329   0.0000       4.065003       110.6144 
 330   0.0000       4.093907       111.4009 
 331   0.0000       4.102747       111.6414 
 332   0.0000       4.105609       111.7193 
 333   0.0000       4.119281       112.0913 
 334   0.0000       4.128510       112.3425 
 335   0.0000       4.142165       112.7140 
 336   0.0000       4.153302       113.0171 
 337   0.0000       4.168401       113.4280 
 338   0.0000       4.175076       113.6096 
 339   0.0000       4.180547       113.7585 
 340   0.0000       4.203317       114.3781 
 341   0.0000       4.218881       114.8016 
 342   0.0000       4.226391       115.0059 
 343   0.0000       4.244299       115.4932 
 344   0.0000       4.265802       116.0784 
 345   0.0000       4.272286       116.2548 
 346   0.0000       4.280458       116.4772 
 347   0.0000       4.297139       116.9311 
 348   0.0000       4.306010       117.1725 
 349   0.0000       4.315686       117.4358 
 350   0.0000       4.324189       117.6672 
 351   0.0000       4.353277       118.4587 
 352   0.0000       4.357663       118.5780 
 353   0.0000       4.361468       118.6816 
 354   0.0000       4.379864       119.1822 
 355   0.0000       4.389663       119.4488 
 356   0.0000       4.403109       119.8147 
 357   0.0000       4.411320       120.0381 
 358   0.0000       4.434196       120.6606 
 359   0.0000       4.453316       121.1809 
 360   0.0000       4.458820       121.3307 
 361   0.0000       4.463080       121.4466 
 362   0.0000       4.481529       121.9486 
 363   0.0000       4.490120       122.1824 
 364   0.0000       4.506696       122.6334 
 365   0.0000       4.519537       122.9829 
 366   0.0000       4.521988       123.0496 
 367   0.0000       4.546392       123.7136 
 368   0.0000       4.565924       124.2451 
 369   0.0000       4.577726       124.5663 
 370   0.0000       4.600606       125.1889 
 371   0.0000       4.613032       125.5270 
 372   0.0000       4.631576       126.0316 
 373   0.0000       4.645727       126.4167 
 374   0.0000       4.665109       126.9441 
 375   0.0000       4.688948       127.5928 
 376   0.0000       4.722948       128.5179 
 377   0.0000       4.730419       128.7213 
 378   0.0000       4.755068       129.3920 
 379   0.0000       4.758253       129.4786 
 380   0.0000       4.781934       130.1230 
 381   0.0000       4.787965       130.2872 
 382   0.0000       4.796899       130.5302 
 383   0.0000       4.830253       131.4379 
 384   0.0000       4.856523       132.1527 
 385   0.0000       4.876743       132.7029 
 386   0.0000       4.886501       132.9685 
 387   0.0000       4.918152       133.8297 
 388   0.0000       4.934740       134.2811 
 389   0.0000       4.943188       134.5110 
 390   0.0000       4.951928       134.7488 
 391   0.0000       4.993839       135.8893 
 392   0.0000       5.007388       136.2580 
 393   0.0000       5.018773       136.5678 
 394   0.0000       5.060885       137.7137 
 395   0.0000       5.067413       137.8913 
 396   0.0000       5.078013       138.1798 
 397   0.0000       5.088195       138.4568 
 398   0.0000       5.115190       139.1914 
 399   0.0000       5.136412       139.7689 
 400   0.0000       5.149863       140.1349 
 401   0.0000       5.184448       141.0760 
 402   0.0000       5.197526       141.4319 
 403   0.0000       5.224485       142.1655 
 404   0.0000       5.252790       142.9357 
 405   0.0000       5.262177       143.1911 
 406   0.0000       5.277495       143.6079 
 407   0.0000       5.310382       144.5028 
 408   0.0000       5.331871       145.0876 
 409   0.0000       5.332723       145.1108 
 410   0.0000       5.373111       146.2098 
 411   0.0000       5.383909       146.5036 
 412   0.0000       5.403184       147.0281 
 413   0.0000       5.412994       147.2950 
 414   0.0000       5.447120       148.2237 
 415   0.0000       5.468508       148.8057 
 416   0.0000       5.481772       149.1666 
 417   0.0000       5.501830       149.7124 
 418   0.0000       5.541942       150.8039 
 419   0.0000       5.543422       150.8442 
 420   0.0000       5.550515       151.0372 
 421   0.0000       5.583775       151.9422 
 422   0.0000       5.609175       152.6334 
 423   0.0000       5.614789       152.7862 
 424   0.0000       5.639515       153.4590 
 425   0.0000       5.672654       154.3608 
 426   0.0000       5.706807       155.2901 
 427   0.0000       5.712981       155.4581 
 428   0.0000       5.729674       155.9124 
 429   0.0000       5.736614       156.1012 
 430   0.0000       5.768376       156.9655 
 431   0.0000       5.800192       157.8312 
 432   0.0000       5.850087       159.1890 
 433   0.0000       5.857308       159.3855 
 434   0.0000       5.883748       160.1049 
 435   0.0000       5.915213       160.9611 
 436   0.0000       5.925588       161.2434 
 437   0.0000       5.934903       161.4969 
 438   0.0000       5.973892       162.5579 
 439   0.0000       5.984773       162.8540 
 440   0.0000       6.012146       163.5988 
 441   0.0000       6.032026       164.1398 
 442   0.0000       6.050564       164.6442 
 443   0.0000       6.084806       165.5760 
 444   0.0000       6.111584       166.3046 
 445   0.0000       6.171157       167.9257 
 446   0.0000       6.216494       169.1594 
 447   0.0000       6.283732       170.9890 
 448   0.0000       6.357138       172.9865 
 449   0.0000       6.361784       173.1129 
 450   0.0000       6.529186       177.6682 
 451   0.0000       6.544616       178.0881 
 452   0.0000       6.607109       179.7886 
 453   0.0000       6.626389       180.3132 
 454   0.0000       6.888784       187.4533 
 455   0.0000       6.942080       188.9036 
 456   0.0000       6.975485       189.8126 
 457   0.0000       7.134026       194.1267 
 458   0.0000       7.143847       194.3939 
 459   0.0000       7.250705       197.3017 
 460   0.0000       7.307692       198.8524 
 461   0.0000       7.364050       200.3860 
 462   0.0000       7.409698       201.6281 
 463   0.0000       7.474782       203.3992 
 464   0.0000       7.638215       207.8464 
 465   0.0000       7.650381       208.1774 
 466   0.0000       7.814591       212.6458 
 467   0.0000       7.966750       216.7863 
 468   0.0000      23.982895       652.6078 
 469   0.0000      24.202735       658.5899 
 470   0.0000      24.265888       660.3084 
 471   0.0000      24.430262       664.7812 
 472   0.0000      24.549865       668.0358 
 473   0.0000      24.664157       671.1458 
 474   0.0000      24.721179       672.6975 
 475   0.0000      24.837194       675.8544 
 476   0.0000      45.541283      1239.2413 
 477   0.0000      45.917535      1249.4797 

                    ********************************
                    * MULLIKEN POPULATION ANALYSIS *
                    ********************************

-----------------------
MULLIKEN ATOMIC CHARGES
-----------------------
   0 C :   -0.066351
   1 C :   -0.200137
   2 C :   -0.109911
   3 C :   -0.231495
   4 H :    0.101000
   5 H :    0.137499
   6 H :    0.089745
   7 C :    0.270317
   8 C :   -0.166287
   9 H :    0.100510
  10 H :    0.095758
  11 H :    0.096954
  12 H :    0.126905
  13 H :    0.109013
  14 O :   -0.364593
  15 C :   -0.007710
  16 H :    0.066465
  17 H :    0.096165
  18 H :    0.075376
  19 C :    0.270885
  20 O :   -0.538109
  21 H :    0.048001
Sum of atomic charges:   -0.0000000

--------------------------------
MULLIKEN REDUCED ORBITAL CHARGES
--------------------------------
  0 C s       :     3.088792  s :     3.088792
      pz      :     0.929914  p :     2.853238
      px      :     0.935494
      py      :     0.987830
      dz2     :     0.010803  d :     0.118456
      dxz     :     0.035675
      dyz     :     0.021576
      dx2y2   :     0.029530
      dxy     :     0.020872
      f0      :     0.000553  f :     0.005864
      f+1     :     0.000728
      f-1     :     0.000473
      f+2     :     0.000676
      f-2     :     0.001173
      f+3     :     0.001205
      f-3     :     0.001055
  1 C s       :     3.092047  s :     3.092047
      pz      :     1.036725  p :     3.014551
      px      :     1.020481
      py      :     0.957346
      dz2     :     0.012817  d :     0.088226
      dxz     :     0.020115
      dyz     :     0.012668
      dx2y2   :     0.018110
      dxy     :     0.024517
      f0      :     0.000595  f :     0.005313
      f+1     :     0.000481
      f-1     :     0.000793
      f+2     :     0.000951
      f-2     :     0.000807
      f+3     :     0.000977
      f-3     :     0.000709
  2 C s       :     3.161331  s :     3.161331
      pz      :     0.911789  p :     2.854374
      px      :     0.945239
      py      :     0.997347
      dz2     :     0.007642  d :     0.088586
      dxz     :     0.025763
      dyz     :     0.010023
      dx2y2   :     0.018424
      dxy     :     0.026735
      f0      :     0.000632  f :     0.005620
      f+1     :     0.000819
      f-1     :     0.000285
      f+2     :     0.000915
      f-2     :     0.000823
      f+3     :     0.001109
      f-3     :     0.001036
  3 C s       :     3.116604  s :     3.116604
      pz      :     1.020042  p :     3.010920
      px      :     0.893956
      py      :     1.096923
      dz2     :     0.014986  d :     0.095917
      dxz     :     0.020683
      dyz     :     0.021533
      dx2y2   :     0.023651
      dxy     :     0.015063
      f0      :     0.000725  f :     0.008054
      f+1     :     0.001158
      f-1     :     0.000897
      f+2     :     0.001170
      f-2     :     0.001570
      f+3     :     0.001340
      f-3     :     0.001194
  4 H s       :     0.857501  s :     0.857501
      pz      :     0.017327  p :     0.039390
      px      :     0.014008
      py      :     0.008055
      dz2     :     0.000539  d :     0.002109
      dxz     :     0.000596
      dyz     :     0.000322
      dx2y2   :     0.000310
      dxy     :     0.000342
  5 H s       :     0.820899  s :     0.820899
      pz      :     0.013180  p :     0.039404
      px      :     0.010149
      py      :     0.016075
      dz2     :     0.000343  d :     0.002197
      dxz     :     0.000298
      dyz     :     0.000601
      dx2y2   :     0.000475
      dxy     :     0.000480
  6 H s       :     0.863165  s :     0.863165
      pz      :     0.019990  p :     0.044755
      px      :     0.009420
      py      :     0.015345
      dz2     :     0.000722  d :     0.002335
      dxz     :     0.000516
      dyz     :     0.000617
      dx2y2   :     0.000240
      dxy     :     0.000240
  7 C s       :     3.109930  s :     3.109930
      pz      :     0.829626  p :     2.400612
      px      :     0.671072
      py      :     0.899913
      dz2     :     0.022765  d :     0.201923
      dxz     :     0.038063
      dyz     :     0.028408
      dx2y2   :     0.046496
      dxy     :     0.066190
      f0      :     0.001417  f :     0.017219
      f+1     :     0.002884
      f-1     :     0.001452
      f+2     :     0.002607
      f-2     :     0.002008
      f+3     :     0.002818
      f-3     :     0.004033
  8 C s       :     3.146114  s :     3.146114
      pz      :     1.023227  p :     2.910363
      px      :     0.948679
      py      :     0.938458
      dz2     :     0.007582  d :     0.101063
      dxz     :     0.021709
      dyz     :     0.012781
      dx2y2   :     0.031226
      dxy     :     0.027766
      f0      :     0.001095  f :     0.008746
      f+1     :     0.001000
      f-1     :     0.000844
      f+2     :     0.001004
      f-2     :     0.001268
      f+3     :     0.001646
      f-3     :     0.001889
  9 H s       :     0.854216  s :     0.854216
      pz      :     0.011270  p :     0.043008
      px      :     0.013203
      py      :     0.018535
      dz2     :     0.000245  d :     0.002267
      dxz     :     0.000191
      dyz     :     0.000528
      dx2y2   :     0.000695
      dxy     :     0.000607
 10 H s       :     0.864398  s :     0.864398
      pz      :     0.009213  p :     0.037818
      px      :     0.010129
      py      :     0.018476
      dz2     :     0.000228  d :     0.002026
      dxz     :     0.000215
      dyz     :     0.000458
      dx2y2   :     0.000552
      dxy     :     0.000574
 11 H s       :     0.861714  s :     0.861714
      pz      :     0.013762  p :     0.039091
      px      :     0.011627
      py      :     0.013702
      dz2     :     0.000374  d :     0.002241
      dxz     :     0.000407
      dyz     :     0.000463
      dx2y2   :     0.000553
      dxy     :     0.000444
 12 H s       :     0.826109  s :     0.826109
      pz      :     0.014627  p :     0.044659
      px      :     0.021958
      py      :     0.008074
      dz2     :     0.000500  d :     0.002327
      dxz     :     0.000657
      dyz     :     0.000224
      dx2y2   :     0.000444
      dxy     :     0.000503
 13 H s       :     0.840524  s :     0.840524
      pz      :     0.016668  p :     0.048287
      px      :     0.016492
      py      :     0.015127
      dz2     :     0.000402  d :     0.002176
      dxz     :     0.000524
      dyz     :     0.000521
      dx2y2   :     0.000381
      dxy     :     0.000347
 14 O s       :     3.766261  s :     3.766261
      pz      :     1.730446  p :     4.552812
      px      :     1.316377
      py      :     1.505989
      dz2     :     0.005118  d :     0.043251
      dxz     :     0.009085
      dyz     :     0.004485
      dx2y2   :     0.015351
      dxy     :     0.009212
      f0      :     0.000277  f :     0.002270
      f+1     :     0.000343
      f-1     :     0.000193
      f+2     :     0.000338
      f-2     :     0.000197
      f+3     :     0.000569
      f-3     :     0.000354
 15 C s       :     3.123726  s :     3.123726
      pz      :     1.041402  p :     2.752268
      px      :     0.962808
      py      :     0.748058
      dz2     :     0.023501  d :     0.122120
      dxz     :     0.014538
      dyz     :     0.029319
      dx2y2   :     0.031667
      dxy     :     0.023096
      f0      :     0.001533  f :     0.009597
      f+1     :     0.000454
      f-1     :     0.001155
      f+2     :     0.000595
      f-2     :     0.001748
      f+3     :     0.002018
      f-3     :     0.002093
 16 H s       :     0.899006  s :     0.899006
      pz      :     0.011787  p :     0.032397
      px      :     0.008427
      py      :     0.012183
      dz2     :     0.000405  d :     0.002132
      dxz     :     0.000197
      dyz     :     0.000498
      dx2y2   :     0.000565
      dxy     :     0.000468
 17 H s       :     0.868951  s :     0.868951
      pz      :     0.009906  p :     0.032769
      px      :     0.017100
      py      :     0.005764
      dz2     :     0.000323  d :     0.002115
      dxz     :     0.000568
      dyz     :     0.000064
      dx2y2   :     0.000520
      dxy     :     0.000640
 18 H s       :     0.889502  s :     0.889502
      pz      :     0.020825  p :     0.032963
      px      :     0.006593
      py      :     0.005545
      dz2     :     0.000791  d :     0.002160
      dxz     :     0.000565
      dyz     :     0.000657
      dx2y2   :     0.000062
      dxy     :     0.000085
 19 C s       :     3.121605  s :     3.121605
      pz      :     0.757245  p :     2.376685
      px      :     0.888738
      py      :     0.730702
      dz2     :     0.052013  d :     0.213489
      dxz     :     0.073442
      dyz     :     0.039202
      dx2y2   :     0.013553
      dxy     :     0.035279
      f0      :     0.003937  f :     0.017337
      f+1     :     0.004472
      f-1     :     0.002103
      f+2     :     0.002284
      f-2     :     0.002841
      f+3     :     0.000623
      f-3     :     0.001077
 20 O s       :     3.855119  s :     3.855119
      pz      :     1.378921  p :     4.646563
      px      :     1.782450
      py      :     1.485192
      dz2     :     0.013051  d :     0.034419
      dxz     :     0.006377
      dyz     :     0.010742
      dx2y2   :     0.002322
      dxy     :     0.001927
      f0      :     0.000620  f :     0.002008
      f+1     :     0.000301
      f-1     :     0.000551
      f+2     :     0.000248
      f-2     :     0.000203
      f+3     :     0.000043
      f-3     :     0.000041
 21 H s       :     0.915618  s :     0.915618
      pz      :     0.006458  p :     0.034129
      px      :     0.017431
      py      :     0.010240
      dz2     :     0.000374  d :     0.002252
      dxz     :     0.000436
      dyz     :     0.000472
      dx2y2   :     0.000411
      dxy     :     0.000559


                     *******************************
                     * LOEWDIN POPULATION ANALYSIS *
                     *******************************

----------------------
LOEWDIN ATOMIC CHARGES
----------------------
   0 C :    0.076333
   1 C :    0.030203
   2 C :    0.119822
   3 C :   -0.112946
   4 H :    0.008528
   5 H :    0.027485
   6 H :   -0.008625
   7 C :   -0.171371
   8 C :   -0.050914
   9 H :    0.002404
  10 H :    0.008371
  11 H :    0.021358
  12 H :    0.022414
  13 H :    0.011367
  14 O :    0.243048
  15 C :   -0.028503
  16 H :    0.001458
  17 H :    0.008922
  18 H :    0.004045
  19 C :   -0.202783
  20 O :   -0.013225
  21 H :    0.002611

-------------------------------
LOEWDIN REDUCED ORBITAL CHARGES
-------------------------------
  0 C s       :     2.737775  s :     2.737775
      pz      :     0.883616  p :     2.780307
      px      :     0.922980
      py      :     0.973711
      dz2     :     0.033094  d :     0.372442
      dxz     :     0.112523
      dyz     :     0.067840
      dx2y2   :     0.092128
      dxy     :     0.066857
      f0      :     0.003869  f :     0.033143
      f+1     :     0.004455
      f-1     :     0.002920
      f+2     :     0.003703
      f-2     :     0.005892
      f+3     :     0.005895
      f-3     :     0.006408
  1 C s       :     2.727702  s :     2.727702
      pz      :     0.934164  p :     2.895292
      px      :     0.971583
      py      :     0.989545
      dz2     :     0.036086  d :     0.316583
      dxz     :     0.074808
      dyz     :     0.048171
      dx2y2   :     0.068616
      dxy     :     0.088902
      f0      :     0.002871  f :     0.030221
      f+1     :     0.002541
      f-1     :     0.003758
      f+2     :     0.004891
      f-2     :     0.004178
      f+3     :     0.006281
      f-3     :     0.005700
  2 C s       :     2.758224  s :     2.758224
      pz      :     0.870850  p :     2.798899
      px      :     1.011989
      py      :     0.916059
      dz2     :     0.027478  d :     0.294650
      dxz     :     0.083058
      dyz     :     0.028297
      dx2y2   :     0.058334
      dxy     :     0.097484
      f0      :     0.002701  f :     0.028405
      f+1     :     0.003716
      f-1     :     0.001446
      f+2     :     0.004591
      f-2     :     0.003263
      f+3     :     0.006024
      f-3     :     0.006664
  3 C s       :     2.739584  s :     2.739584
      pz      :     0.988328  p :     2.968134
      px      :     0.980291
      py      :     0.999515
      dz2     :     0.062625  d :     0.367232
      dxz     :     0.077450
      dyz     :     0.072893
      dx2y2   :     0.084896
      dxy     :     0.069368
      f0      :     0.004289  f :     0.037996
      f+1     :     0.006374
      f-1     :     0.003386
      f+2     :     0.005209
      f-2     :     0.006688
      f+3     :     0.005458
      f-3     :     0.006592
  4 H s       :     0.817771  s :     0.817771
      pz      :     0.056356  p :     0.146661
      px      :     0.052846
      py      :     0.037460
      dz2     :     0.006335  d :     0.027040
      dxz     :     0.007699
      dyz     :     0.004603
      dx2y2   :     0.003506
      dxy     :     0.004897
  5 H s       :     0.793263  s :     0.793263
      pz      :     0.051540  p :     0.151124
      px      :     0.041990
      py      :     0.057594
      dz2     :     0.004413  d :     0.028129
      dxz     :     0.004109
      dyz     :     0.007199
      dx2y2   :     0.006241
      dxy     :     0.006167
  6 H s       :     0.816356  s :     0.816356
      pz      :     0.067428  p :     0.163827
      px      :     0.035820
      py      :     0.060579
      dz2     :     0.009284  d :     0.028443
      dxz     :     0.005830
      dyz     :     0.007844
      dx2y2   :     0.002777
      dxy     :     0.002708
  7 C s       :     2.716155  s :     2.716155
      pz      :     0.805252  p :     2.661478
      px      :     0.827167
      py      :     1.029059
      dz2     :     0.082507  d :     0.694265
      dxz     :     0.137716
      dyz     :     0.091858
      dx2y2   :     0.199407
      dxy     :     0.182777
      f0      :     0.006601  f :     0.099473
      f+1     :     0.014668
      f-1     :     0.004956
      f+2     :     0.017924
      f-2     :     0.011414
      f+3     :     0.016515
      f-3     :     0.027395
  8 C s       :     2.722321  s :     2.722321
      pz      :     0.924932  p :     2.899074
      px      :     1.014920
      py      :     0.959222
      dz2     :     0.032189  d :     0.388016
      dxz     :     0.076966
      dyz     :     0.049135
      dx2y2   :     0.098902
      dxy     :     0.130825
      f0      :     0.003713  f :     0.041504
      f+1     :     0.004100
      f-1     :     0.002905
      f+2     :     0.005871
      f-2     :     0.004437
      f+3     :     0.008694
      f-3     :     0.011784
  9 H s       :     0.811627  s :     0.811627
      pz      :     0.047148  p :     0.157519
      px      :     0.048735
      py      :     0.061636
      dz2     :     0.003034  d :     0.028450
      dxz     :     0.002626
      dyz     :     0.006823
      dx2y2   :     0.008017
      dxy     :     0.007949
 10 H s       :     0.819152  s :     0.819152
      pz      :     0.040549  p :     0.146274
      px      :     0.040591
      py      :     0.065134
      dz2     :     0.003141  d :     0.026203
      dxz     :     0.002349
      dyz     :     0.006271
      dx2y2   :     0.007245
      dxy     :     0.007196
 11 H s       :     0.804501  s :     0.804501
      pz      :     0.054230  p :     0.146414
      px      :     0.041498
      py      :     0.050687
      dz2     :     0.005482  d :     0.027727
      dxz     :     0.004751
      dyz     :     0.005728
      dx2y2   :     0.006220
      dxy     :     0.005546
 12 H s       :     0.787946  s :     0.787946
      pz      :     0.053822  p :     0.160482
      px      :     0.068889
      py      :     0.037772
      dz2     :     0.006496  d :     0.029159
      dxz     :     0.008084
      dyz     :     0.003171
      dx2y2   :     0.005054
      dxy     :     0.006354
 13 H s       :     0.800859  s :     0.800859
      pz      :     0.059526  p :     0.160199
      px      :     0.046199
      py      :     0.054474
      dz2     :     0.006017  d :     0.027574
      dxz     :     0.006053
      dyz     :     0.006449
      dx2y2   :     0.004931
      dxy     :     0.004123
 14 O s       :     3.230830  s :     3.230830
      pz      :     1.613152  p :     4.412617
      px      :     1.336134
      py      :     1.463331
      dz2     :     0.011903  d :     0.107277
      dxz     :     0.020913
      dyz     :     0.011058
      dx2y2   :     0.034233
      dxy     :     0.029169
      f0      :     0.000482  f :     0.006228
      f+1     :     0.000814
      f-1     :     0.000385
      f+2     :     0.001055
      f-2     :     0.000733
      f+3     :     0.001009
      f-3     :     0.001750
 15 C s       :     2.718726  s :     2.718726
      pz      :     1.025645  p :     2.796597
      px      :     0.943564
      py      :     0.827388
      dz2     :     0.088135  d :     0.447717
      dxz     :     0.045590
      dyz     :     0.098590
      dx2y2   :     0.123591
      dxy     :     0.091812
      f0      :     0.009150  f :     0.065462
      f+1     :     0.003218
      f-1     :     0.006961
      f+2     :     0.006427
      f-2     :     0.012333
      f+3     :     0.013898
      f-3     :     0.013474
 16 H s       :     0.834771  s :     0.834771
      pz      :     0.045722  p :     0.136740
      px      :     0.038667
      py      :     0.052350
      dz2     :     0.005958  d :     0.027032
      dxz     :     0.002491
      dyz     :     0.006545
      dx2y2   :     0.005760
      dxy     :     0.006276
 17 H s       :     0.828049  s :     0.828049
      pz      :     0.042413  p :     0.135580
      px      :     0.065211
      py      :     0.027957
      dz2     :     0.004657  d :     0.027448
      dxz     :     0.008203
      dyz     :     0.000926
      dx2y2   :     0.006678
      dxy     :     0.006984
 18 H s       :     0.831858  s :     0.831858
      pz      :     0.073889  p :     0.136985
      px      :     0.033337
      py      :     0.029758
      dz2     :     0.009387  d :     0.027112
      dxz     :     0.008733
      dyz     :     0.008041
      dx2y2   :     0.000374
      dxy     :     0.000578
 19 C s       :     2.770477  s :     2.770477
      pz      :     0.914847  p :     2.615248
      px      :     0.946087
      py      :     0.754314
      dz2     :     0.191080  d :     0.714813
      dxz     :     0.215878
      dyz     :     0.147305
      dx2y2   :     0.052716
      dxy     :     0.107834
      f0      :     0.021583  f :     0.102244
      f+1     :     0.027707
      f-1     :     0.015490
      f+2     :     0.011316
      f-2     :     0.016213
      f+3     :     0.004112
      f-3     :     0.005823
 20 O s       :     3.408965  s :     3.408965
      pz      :     1.470503  p :     4.532464
      px      :     1.627549
      py      :     1.434412
      dz2     :     0.022143  d :     0.066426
      dxz     :     0.016392
      dyz     :     0.019957
      dx2y2   :     0.003556
      dxy     :     0.004378
      f0      :     0.001195  f :     0.005370
      f+1     :     0.001061
      f-1     :     0.001610
      f+2     :     0.000622
      f-2     :     0.000738
      f+3     :     0.000077
      f-3     :     0.000068
 21 H s       :     0.848432  s :     0.848432
      pz      :     0.028397  p :     0.125484
      px      :     0.056408
      py      :     0.040679
      dz2     :     0.003532  d :     0.023473
      dxz     :     0.004811
      dyz     :     0.003496
      dx2y2   :     0.004970
      dxy     :     0.006663


                      *****************************
                      * MAYER POPULATION ANALYSIS *
                      *****************************

  NA   - Mulliken gross atomic population
  ZA   - Total nuclear charge
  QA   - Mulliken gross atomic charge
  VA   - Mayer's total valence
  BVA  - Mayer's bonded valence
  FA   - Mayer's free valence

  ATOM       NA         ZA         QA         VA         BVA        FA
  0 C      6.0664     6.0000    -0.0664     3.8848     3.8848     0.0000
  1 C      6.2001     6.0000    -0.2001     3.7845     3.7845    -0.0000
  2 C      6.1099     6.0000    -0.1099     3.9472     3.9472    -0.0000
  3 C      6.2315     6.0000    -0.2315     3.6050     3.6050     0.0000
  4 H      0.8990     1.0000     0.1010     0.9960     0.9960    -0.0000
  5 H      0.8625     1.0000     0.1375     1.0044     1.0044     0.0000
  6 H      0.9103     1.0000     0.0897     1.0219     1.0219     0.0000
  7 C      5.7297     6.0000     0.2703     3.8857     3.8857    -0.0000
  8 C      6.1663     6.0000    -0.1663     3.8155     3.8155     0.0000
  9 H      0.8995     1.0000     0.1005     1.0039     1.0039    -0.0000
 10 H      0.9042     1.0000     0.0958     1.0080     1.0080    -0.0000
 11 H      0.9030     1.0000     0.0970     1.0232     1.0232    -0.0000
 12 H      0.8731     1.0000     0.1269     1.0318     1.0318    -0.0000
 13 H      0.8910     1.0000     0.1090     1.0148     1.0148    -0.0000
 14 O      8.3646     8.0000    -0.3646     1.9553     1.9553    -0.0000
 15 C      6.0077     6.0000    -0.0077     3.8837     3.8837     0.0000
 16 H      0.9335     1.0000     0.0665     0.9842     0.9842    -0.0000
 17 H      0.9038     1.0000     0.0962     0.9990     0.9990     0.0000
 18 H      0.9246     1.0000     0.0754     0.9974     0.9974    -0.0000
 19 C      5.7291     6.0000     0.2709     4.0702     4.0702     0.0000
 20 O      8.5381     8.0000    -0.5381     1.9087     1.9087    -0.0000
 21 H      0.9520     1.0000     0.0480     1.0018     1.0018    -0.0000

  Mayer bond orders larger than 0.100000
B(  0-C ,  1-C ) :   0.3779 B(  0-C ,  3-C ) :   1.3880 B(  0-C ,  4-H ) :   1.0081 
B(  0-C ,  5-H ) :   0.9846 B(  1-C ,  7-C ) :   1.4034 B(  1-C ,  9-H ) :   1.0082 
B(  1-C , 12-H ) :   0.9952 B(  2-C ,  3-C ) :   0.1957 B(  2-C ,  8-C ) :   1.6613 
B(  2-C , 10-H ) :   1.0025 B(  2-C , 13-H ) :   1.0033 B(  3-C ,  6-H ) :   1.0138 
B(  3-C ,  7-C ) :   0.1013 B(  3-C , 19-C ) :   1.1277 B(  7-C ,  8-C ) :   1.2224 
B(  7-C , 14-O ) :   1.0695 B(  8-C , 11-H ) :   1.0008 B( 14-O , 15-C ) :   0.8877 
B( 15-C , 16-H ) :   0.9952 B( 15-C , 17-H ) :   1.0026 B( 15-C , 18-H ) :   0.9996 
B( 19-C , 20-O ) :   1.8328 B( 19-C , 21-H ) :   1.0604 

-------
TIMINGS
-------

Total SCF time: 0 days 0 hours 0 min 59 sec 

Total time                  ....      59.837 sec
Sum of individual times     ....      59.287 sec  ( 99.1%)

Fock matrix formation       ....      58.075 sec  ( 97.1%)
Diagonalization             ....       0.351 sec  (  0.6%)
Density matrix formation    ....       0.022 sec  (  0.0%)
Population analysis         ....       0.257 sec  (  0.4%)
Initial guess               ....       0.144 sec  (  0.2%)
Orbital Transformation      ....       0.000 sec  (  0.0%)
Orbital Orthonormalization  ....       0.000 sec  (  0.0%)
DIIS solution               ....       0.174 sec  (  0.3%)
SOSCF solution              ....       0.187 sec  (  0.3%)

Maximum memory used throughout the entire SCF-calculation: 246.6 MB


           ************************************************************
           *        Program running with 16 parallel MPI-processes    *
           *              working on a common directory               *
           ************************************************************


--------------------------------------------------------------------------------
                             ORCA-MATRIX DRIVEN CI
--------------------------------------------------------------------------------


Wavefunction type
-----------------
Correlation treatment                      ...      CCSD     
Single excitations                         ... ON
Orbital optimization                       ... OFF
Calculation of Z vector                    ... OFF
Calculation of Brueckner orbitals          ... OFF
Perturbative triple excitations            ... ON
Calculation of F12 correction              ... OFF
Frozen core treatment                      ... chemical core (20 el)
Reference Wavefunction                     ... RHF
  Internal Orbitals:    10 ...   37 ( 28 MO's/ 56 electrons)
  Virtual  Orbitals:    38 ...  477 (440 MO's              )
Number of AO's                             ...    478
Number of electrons                        ...     76
Number of correlated electrons             ...     56

Algorithmic settings
--------------------
Integral transformation                    ... All integrals via the RI transformation
K(C) Formation                             ... RI-DLPNO
   PNO-Integral Storage                    ... ON DISK
   PNO occupation number cut-off           ... 3.330e-07
   Singles PNO occupation number cut-off   ... 9.990e-09
   PNO Mulliken prescreening cut-off       ... 1.000e-03
   Domain cut-off (Mulliken population)    ... 1.000e-03
   PNO Normalization                       ...    1
Maximum number of iterations               ...        50
Convergence tolerance (max. residuum)      ... 2.500e-05
Level shift for amplitude update           ... 2.000e-01
Maximum number of DIIS vectors             ...         7
DIIS turned on at iteration                ...         0
Damping before turning on DIIS             ...     0.500
Damping after turning on DIIS              ...     0.000
[...]

   .... Finished loop over pairs
Making pair pair interaction lists          ... done

                       ===========================
                        277 OF  406 PAIRS ARE KEPT CCSD PAIRS
                         94 OF  406 PAIRS ARE KEPT MP2 PAIRS FOR (T)
                         35 OF  406 PAIRS ARE SKIPPED
                       ===========================

Total time spent in the initial guess                 ...     2.158 sec
SL-MP2 correlation energy (all non-screened pairs)    ...      -1.742671806210 Eh

Initial PNO correlation energy                        ...      -1.733066451363 Eh
sum of pair energies prescreened and skipped MP2 pairs...      -0.000161866751 Eh
sum of pair energies of crude MP2 skipped pairs only  ...      -0.000161866751 Eh
sum of MP2 pair energies for pairs that were not kept ...      -0.004481397638 Eh
sum of PNO error estimates for the kept pairs         ...      -0.005123957209 Eh
                                                          --------------------
sum of all corrections                                         -0.009605354847
Initial total correlation energy                               -1.742671806210
Thresholds for map construction and integral transformation for fine MP2 and CCSD(T) calculation:
   TCutMKN   ...     1.0e-03
   TCutDO    ...     1.0e-02
   TCutPairs ...     1.0e-04
   TCutCMO   ...     1.0e-03
   TCutCPAO  ...     1.0e-03

Thresholds for map construction and integral transformation for strong Triples:
   TCutMKN   ...     1.0e-02
   TCutDO    ...     2.0e-02
   TCutCMO   ...     1.0e-03
   TCutCPAO  ...     1.0e-03

Thresholds for map construction and integral transformation for weak Triples:
   TCutMKN   ...     1.0e-01
   TCutDO    ...     4.0e-02
   TCutCMO   ...     1.0e-03
   TCutCPAO  ...     1.0e-03

--------------------------------
LOCAL RI TRANSFORMATION (IAVPAO)
--------------------------------

Orbital window:      10 to 37
Number of PAOs:     478
Basis functions:    478 (182 shells)
Aux. functions:    1120 (340 shells)
Use SHARK:           on

Processing maps (0.0 sec)
Average map sizes:
   Aux shells -> MOs              27.9
   Aux shells -> PAOs            478.0
   MOs        -> AO shells       175.4
   PAOs       -> AO shells       182.0

Calculating integrals (0.5 sec, 114.050 MB)
Sorting integrals (0.1 sec, 114.037 MB)
Total time for the integral transformation: 0.6 sec
--------------------------------
INITIAL GUESS AND PNO GENERATION
--------------------------------

PNO truncation parameters                   .... 
    PAOOverlapThresh   =        1.000e-08

    TCutPairs          =        1.000e-04
    TCutPNO            =        3.330e-07
    TCutPNOSingles     =        9.990e-09
    TCutMP2Pairs       =        1.000e-05
    TCutMKN            =        1.000e-03
    TCutDO             =        1.000e-02

Pair selection                          .... not used
Type of local MP2 treatment                 .... semi-local MP2
Strategy for PNO selection                  .... occupation number selection
Pair density normalization                  .... MP2 norm
Spin component scaling                      .... not used

   .... Finished loop over pairs

 PNO Occupation Number Statistics: 
  | Av. % of trace(Dij) retained        ...  97.546920413268
  | sigma^2 in % of trace(Dij) retained ...   1.12e+01
  | Av. % of trace(Di) retained         ...  99.999018772227
  | sigma^2 in % of trace(Di) retained  ...   1.79e-07
 Distributions of % trace(Dij) recovered:
  |       >= 99.9  ...    79 ( 21.3 % of all pairs)
  |   [70.0, 80.0) ...     2 (  0.5 % of all pairs)
  |   [80.0, 90.0) ...    13 (  3.5 % of all pairs)
  |   [90.0, 99.0) ...   184 ( 49.6 % of all pairs)
  |   [99.0, 99.9) ...    93 ( 25.1 % of all pairs)
 Distributions of % trace(Di) recovered :
  |       >= 99.9  ...    28 (100.0 % of all I-pairs )

Making pair pair interaction lists          ... done

                       ===========================
                        277 OF  371 PAIRS ARE KEPT
                       ===========================

Total time spent in the initial guess                 ...     3.889 sec
SL-MP2 correlation energy (all non-screened pairs)    ...      -1.743741476814 Eh

Initial PNO correlation energy                        ...      -1.734248119950 Eh
sum of pair energies estimated for screened out pairs ...      -0.000161866751 Eh
sum of MP2 pair energies for pairs that were not kept ...      -0.004326135065 Eh
sum of PNO error estimates for the kept pairs         ...      -0.005167221800 Eh
                                                          --------------------
sum of all corrections                                         -0.009655223615
Initial total correlation energy                               -1.743903343565
Thresholds for map construction and integral transformation for fine MP2 and CCSD(T) calculation:
   TCutMKN   ...     1.0e-03
   TCutDO    ...     1.0e-02
   TCutPairs ...     1.0e-04
   TCutCMO   ...     1.0e-03
   TCutCPAO  ...     1.0e-03

Time for aux screen maps:            0.003
Time for maps after fine MP2:            0.013
-----------------------------
LOCAL RI TRANSFORMATION (IJV)
-----------------------------

Orbital window:      10 to 37
Basis functions:    478 (182 shells)
Aux. functions:    1120 (340 shells)
Use SHARK:           on

Processing maps (0.0 sec)
Average map sizes:
   Aux shells -> MOs(i)           27.5
   Aux shells -> MOs(j)           28.0
   MOs        -> AO shells       175.4

Calculating integrals (0.4 sec, 6.609 MB)
Sorting integrals (0.0 sec, 6.597 MB)
Total time for the integral transformation: 0.4 sec
--------------------------------
LOCAL RI TRANSFORMATION (VABPAO)
--------------------------------

Number of PAOs:     478
Basis functions:    478 (182 shells)
Aux. functions:    1120 (340 shells)
Use SHARK:           on

Processing maps (0.0 sec)
Average map sizes:
   Aux shells -> PAOs            478.0
   PAOs       -> AO shells       182.0

Calculating integrals (1.4 sec, 1952.391 MB)
Finished


-------------------------------------
Pair Pair Term precalculation with     
RI-(ij|mn) and (im|jn) transformation  
ON THE FLY                             
-------------------------------------

   IBatch   1 (of   2)              ... done (   31.969 sec)
   IBatch   2 (of   2)              ... done (   16.687 sec)
Total EXT                           ...          48.656 sec

---------------------
RI-PNO TRANSFORMATION
---------------------

Total Number of PNOs                   ...  9374
Average number of PNOs per pair        ...    33
Maximal number of PNOs per pair        ...    82
   #pairs with  1 -  5 PNOs   :    0
   #pairs with  6 - 10 PNOs   :   12
   #pairs with 11 - 15 PNOs   :   20
   #pairs with 16 - 20 PNOs   :   31
   #pairs with 21 - 25 PNOs   :   28
   #pairs with 26 - 30 PNOs   :   30
   #pairs with 31 - 35 PNOs   :   33
   #pairs with 36 - 40 PNOs   :   26
   #pairs with 41 - 45 PNOs   :   34
   #pairs with 46 - 50 PNOs   :   24
   #pairs with 51 - 55 PNOs   :   19
   #pairs with 56 - 60 PNOs   :    8
   #pairs with 61 - 65 PNOs   :    5
   #pairs with 66 - 70 PNOs   :    2
   #pairs with 71 - 75 PNOs   :    3
   #pairs with 76 - 80 PNOs   :    1
   #pairs with 81 - 85 PNOs   :    1

Generation of (ij|ab)[P] integrals            ... on
Generation of (ia|bc)[P],(ja|bc)[P] integrals ... on
Storage of 3 and 4 external integrals         ... on
Generation of ALL (ka|bc)[P] integrals        ... on
Keep RI integrals in memory                   ... off

Ibatch:  1 (of  1)
Starting 2-4 index PNO integral generation ... done

Timings:
Total PNO integral transformation time     ...         21.336 sec
Size of the 3-external file                ...       136 MB
Size of the 4-external file                ...       874 MB
Size of the IKJL file                      ...         0 MB
Size of the all 3-external file            ...      1903 MB
Size of the 1-external file                ...         6 MB

Making pair/pair overlap matrices          ... done (    2.160 sec)
Size of the pair overlap file              ... 515 MB
Redoing the guess amplitudes               ... done (    0.003 sec)

-------------------------
FINAL STARTUP INFORMATION
-------------------------

E(0)                                       ...   -459.681107617
E(SL-MP2)                                  ...     -1.743741477
E(SL-MP2) including corrections            ...     -1.743903344
Initial E(tot)                             ...   -461.425010961
<T|T>                                      ...      0.501699911
Number of pairs included                   ... 277
Total number of pairs                      ... 406

------------------------------------------------
                  RHF COUPLED CLUSTER ITERATIONS
------------------------------------------------

Number of PNO amplitudes to be optimized   ...       379724
Number of non-PNO amplitudes               ...     53627200
Untruncated number of regular amplitudes   ...     78601600

Iter       E(tot)           E(Corr)          Delta-E          Residual     Time
  0   -461.425091661     -1.734328821      0.009412656      0.019234087   12.48
                           *** Turning on DIIS ***
  1   -461.480607345     -1.789844504     -0.055515684      0.012166450    5.33
  2   -461.526429700     -1.835666859     -0.045822355      0.005959550    5.35
  3   -461.535435294     -1.844672453     -0.009005594      0.003929857    5.34
  4   -461.538415482     -1.847652641     -0.002980188      0.001933443    5.36
  5   -461.539587867     -1.848825026     -0.001172385      0.001239774    5.36
  6   -461.539958416     -1.849195575     -0.000370549      0.000738415    5.55
  7   -461.540037441     -1.849274600     -0.000079025      0.000418722    5.54
  8   -461.540089006     -1.849326165     -0.000051565      0.000204726    6.01
  9   -461.540075863     -1.849313022      0.000013143      0.000075405    5.46
 10   -461.540091493     -1.849328652     -0.000015630      0.000030111    5.72
 11   -461.540089128     -1.849326287      0.000002365      0.000012375    5.29
               --- The Coupled-Cluster iterations have converged ---

----------------------
COUPLED CLUSTER ENERGY
----------------------

E(0)                                       ...   -459.681107617
E(CORR)(strong-pairs)                      ...     -1.849326287
E(CORR)(weak-pairs)                        ...     -0.009655224
E(CORR)(corrected)                         ...     -1.858981511
E(TOT)                                     ...   -461.540089128
Singles Norm <S|S>**1/2                    ...      0.107206984  
T1 diagnostic                              ...      0.014326136  

------------------
LARGEST AMPLITUDES
------------------
  15-> 38  15-> 38       0.053612
  36-> 38  36-> 38       0.051103
  35-> 38  35-> 38       0.050724
  30-> 38  30-> 38       0.049407
  20-> 38  20-> 38       0.045293
  29-> 39  29-> 39       0.040867
  36-> 38  35-> 38       0.039989
  22-> 38  22-> 38       0.037713
  15-> 38  -1-> -1       0.035901
  20-> 39  20-> 39       0.034418
  32-> 41  32-> 41       0.033442
  35-> 38  -1-> -1       0.032931
  31-> 38  31-> 38       0.032501
  22-> 39  22-> 39       0.032230
  36-> 38  -1-> -1       0.032128
  33-> 38  33-> 38       0.031298


-------------------------------------------
DLPNO BASED TRIPLES CORRECTION
-------------------------------------------

Singles multiplier          ...  1.000000
TCutTNO                     ... 1.000e-09
TCutMP2Pairs                ... 1.000e-05
TCutDOStrong                ... 2.000e-02
TCutMKNStrong               ... 1.000e-02
TCutDOWeak                  ... 4.000e-02
TCutMKNWeak                 ... 1.000e-01

Fragment selection                          .... not used
Number of Triples that are to be computed   ...      2489

 . . . . . . . . .
10% done  
20% done  
30% done  
40% done  
50% done  
60% done  
70% done  
80% done  
90% done               (     96.155 sec)
Triples timings:
Total time for T0               ...   104.385 sec
Total time for Iterative (T)    ...     0.000 sec
Total time of overall (T)       ...   111.142 sec

Triples List generation         ...     0.000 sec
TNO generation                  ...     8.219 sec
Pair density generation         ...     0.005 sec
Look up tables                  ...     0.000 sec
Generating 3-index integrals    ...    64.843 sec
  Make 4-ind.int. from 3-ind.int...     7.419 sec
  Projecting amplitudes (D + S) ...    12.455 sec
  Downprojecting integrals      ...     0.001 sec
  Energy contr. (sum over a,b,c)...     3.347 sec
Fitting ET(->0)                 ...     0.000 sec

Everything after 3-index        ...    31.312 sec

Timing details:
 TNO integrals                  ...    71.733 sec
   Reading 3-index integrals    ...     0.366 sec
   Sorting integrals            ...     7.765 sec
       Sorting integrals 1      ...     0.001 sec
       Sorting integrals 2      ...     5.804 sec
       Sorting integrals 3      ...     0.290 sec
       Sorting integrals 4      ...     0.021 sec
       Sorting integrals 5      ...     0.071 sec
       Sorting integrals 6      ...     1.578 sec
   Calculating local VM**-1/2   ...     0.297 sec
   Orthogonal. integrals        ...     0.626 sec
   Multipl. 3-index integrals   ...    62.679 sec
   All concerning IRIab (w/TNO) ...     4.603 sec

 Calculate W0/W1                ...     8.081 sec
 W 3-ext contribution           ...     4.871 sec
 W 3-int contribution           ...     1.427 sec
 Sorting W                      ...     1.629 sec

 V exchange contribution        ...     1.519 sec

 Timings for Triples without generation
     of 3-index integrals       ...    31.310 sec
       0 weak pairs             ...    26.871 sec
       1 weak pair              ...     4.439 sec
       2 weak pairs             ...     0.000 sec
       3 weak pairs             ...     0.000 sec
  Extra time for extrapolation  ...     0.000 sec

Number of Triples   (0, 1, 2, 3 weak pairs; overall):   1664     825       0       0  (  2489)
Number of Atoms     (0, 1, 2, 3 weak pairs; overall):   15.6    12.9     0.0     0.0  (    22)
Number of PAOs      (0, 1, 2, 3 weak pairs; overall):  363.9   310.2     0.0     0.0  (   478)
Number of AuxFcns   (0, 1, 2, 3 weak pairs; overall):  439.7   351.5     0.0     0.0  (  1120)
Number of TNOs      (0, 1, 2, 3 weak pairs         ):   90.5    66.9     0.0     0.0
Aver. Number of NTNO, Atoms, PAOs, AuxFcns / Triples:   2489    82.7    14.7   346.1   410.5

Triples Correction (T)                     ...     -0.085110104
Final correlation energy                   ...     -1.944091614
E(CCSD)                                    ...   -461.540089128
E(CCSD(T))                                 ...   -461.625199232



--------------------------------------------------------------------------------
                                    TIMINGS
--------------------------------------------------------------------------------


Total execution time                   ...      280.148 sec

Localization of occupied MO's          ...        0.489 sec (  0.2%)
Fock Matrix Formation                  ...        7.902 sec (  2.8%)
Global overlap, Fock, MKN matrices     ...        0.396 sec (  0.1%)
Differential overlap integrals         ...        0.568 sec (  0.2%)
Organizing maps                        ...        0.039 sec (  0.0%)
RI 3-index integral generations        ...        2.989 sec (  1.1%)
RI-PNO integral transformation         ...       77.247 sec ( 27.6%)
Initial Guess                          ...        6.098 sec (  2.2%)
DIIS Solver                            ...        0.283 sec (  0.1%)
State Vector Update                    ...        0.018 sec (  0.0%)
Sigma-vector construction              ...       72.496 sec ( 25.9%)
  <D|H|D>(0-ext)                       ...        1.989 sec (  2.7% of sigma)
  <D|H|D>(2-ext Fock)                  ...        0.010 sec (  0.0% of sigma)
  <D|H|D>(2-ext)                       ...       10.521 sec ( 14.5% of sigma)
  <D|H|D>(4-ext)                       ...        7.576 sec ( 10.4% of sigma)
  <D|H|D>(4-ext-corr)                  ...       31.382 sec ( 43.3% of sigma)
  CCSD doubles correction              ...        0.101 sec (  0.1% of sigma)
  <S|H|S>                              ...        0.434 sec (  0.6% of sigma)
  <S|H|D>(1-ext)                       ...        0.258 sec (  0.4% of sigma)
  <D|H|S>(1-ext)                       ...        0.006 sec (  0.0% of sigma)
  <S|H|D>(3-ext)                       ...        0.115 sec (  0.2% of sigma)
  Fock-dressing                        ...        6.488 sec (  9.0% of sigma)
  Singles amplitudes                   ...        0.732 sec (  1.0% of sigma)
  (ik|jl)-dressing                     ...        1.788 sec (  2.5% of sigma)
  (ij|ab),(ia|jb)-dressing             ...        2.039 sec (  2.8% of sigma)
  Pair energies                        ...        0.107 sec (  0.1% of sigma)
Total Time for computing (T)           ...      111.150 sec ( 39.7% of ALL)


Maximum memory used throughout the entire MDCI-calculation: 3967.9 MB

-------------------------   --------------------
FINAL SINGLE POINT ENERGY      -461.625199231771
-------------------------   --------------------


                            ***************************************
                            *     ORCA property calculations      *
                            ***************************************


  WARNING: The energy has been calculated at the MDCI level but the densities
           used in the property calculations are still SCF densities
           MDCI response densities have not been calculated 
           use %mdci Density linearized end
           or  %mdci Density unrelaxed end
           or  %mdci Density orbopt end

                                    ---------------------
                                    Active property flags
                                    ---------------------
   (+) Dipole Moment


------------------------------------------------------------------------------
                       ORCA ELECTRIC PROPERTIES CALCULATION
------------------------------------------------------------------------------

Dipole Moment Calculation                       ... on
Quadrupole Moment Calculation                   ... off
Polarizability Calculation                      ... off
GBWName                                         ... /tmp/43008/DATS_14_exo_ii_DLPNO.gbw
Electron density                                ... /tmp/43008/DATS_14_exo_ii_DLPNO.scfp
The origin for moment calculation is the CENTER OF MASS  = (-0.048729,  0.024356  0.017430)

-------------
DIPOLE MOMENT
-------------
                                X             Y             Z
Electronic contribution:     -2.19619       1.98592       0.66142
Nuclear contribution   :      3.70339      -1.85109      -1.32464
                        -----------------------------------------
Total Dipole Moment    :      1.50720       0.13483      -0.66322
                        -----------------------------------------
Magnitude (a.u.)       :      1.65218
Magnitude (Debye)      :      4.19951



--------------------
Rotational spectrum 
--------------------
 
Rotational constants in cm-1:     0.083347     0.026638     0.023251 
Rotational constants in MHz :  2498.667243   798.583990   697.050702 

 Dipole components along the rotational axes: 
x,y,z [a.u.] :    -1.516512     0.071129    -0.651788 
x,y,z [Debye]:    -3.854666     0.180797    -1.656715 

 

Timings for individual modules:

Sum of individual times         ...      342.301 sec (=   5.705 min)
GTO integral calculation        ...        0.686 sec (=   0.011 min)   0.2 %
SCF iterations                  ...       60.274 sec (=   1.005 min)  17.6 %
MDCI module                     ...      281.341 sec (=   4.689 min)  82.2 %
                             ****ORCA TERMINATED NORMALLY****
TOTAL RUN TIME: 0 days 0 hours 5 minutes 42 seconds 822 msec
