Job Start Time: Fri Jun 24 13:19:15 MDT 2022
SLURM Job ID: 43011
SLURM Job Name: DATS_14_exo_v_DLPNO
SLURM Job Nodes: node09
SLURM Memory / CPU: 8000

                                 *****************
                                 * O   R   C   A *
                                 *****************

                                            #,                                       
                                            ###                                      
                                            ####                                     
                                            #####                                    
                                            ######                                   
                                           ########,                                 
                                     ,,################,,,,,                         
                               ,,#################################,,                 
                          ,,##########################################,,             
                       ,#########################################, ''#####,          
                    ,#############################################,,   '####,        
                  ,##################################################,,,,####,       
                ,###########''''           ''''###############################       
              ,#####''   ,,,,##########,,,,          '''####'''          '####       
            ,##' ,,,,###########################,,,                        '##       
           ' ,,###''''                  '''############,,,                           
         ,,##''                                '''############,,,,        ,,,,,,###''
      ,#''                                            '''#######################'''  
     '                                                          ''''####''''         
             ,#######,   #######,   ,#######,      ##                                
            ,#'     '#,  ##    ##  ,#'     '#,    #''#        ######   ,####,        
            ##       ##  ##   ,#'  ##            #'  '#       #        #'  '#        
            ##       ##  #######   ##           ,######,      #####,   #    #        
            '#,     ,#'  ##    ##  '#,     ,#' ,#      #,         ##   #,  ,#        
             '#######'   ##     ##  '#######'  #'      '#     #####' # '####'        



                  #######################################################
                  #                        -***-                        #
                  #          Department of theory and spectroscopy      #
                  #    Directorship and core code : Frank Neese         #
                  #        Max Planck Institute fuer Kohlenforschung    #
                  #                Kaiser Wilhelm Platz 1               #
                  #                 D-45470 Muelheim/Ruhr               #
                  #                      Germany                        #
                  #                                                     #
                  #                  All rights reserved                #
                  #                        -***-                        #
                  #######################################################


                         Program Version 5.0.3 -  RELEASE  -


 With contributions from (in alphabetic order):
   Daniel Aravena         : Magnetic Suceptibility
   Michael Atanasov       : Ab Initio Ligand Field Theory (pilot matlab implementation)
   Alexander A. Auer      : GIAO ZORA, VPT2 properties, NMR spectrum
   Ute Becker             : Parallelization
   Giovanni Bistoni       : ED, misc. LED, open-shell LED, HFLD
   Martin Brehm           : Molecular dynamics
   Dmytro Bykov           : SCF Hessian
   Vijay G. Chilkuri      : MRCI spin determinant printing, contributions to CSF-ICE
   Dipayan Datta          : RHF DLPNO-CCSD density
   Achintya Kumar Dutta   : EOM-CC, STEOM-CC
   Dmitry Ganyushin       : Spin-Orbit,Spin-Spin,Magnetic field MRCI
   Miquel Garcia          : C-PCM and meta-GGA Hessian, CC/C-PCM, Gaussian charge scheme
   Yang Guo               : DLPNO-NEVPT2, F12-NEVPT2, CIM, IAO-localization
   Andreas Hansen         : Spin unrestricted coupled pair/coupled cluster methods
   Benjamin Helmich-Paris : MC-RPA, TRAH-SCF, COSX integrals
   Lee Huntington         : MR-EOM, pCC
   Robert Izsak           : Overlap fitted RIJCOSX, COSX-SCS-MP3, EOM
   Marcus Kettner         : VPT2
   Christian Kollmar      : KDIIS, OOCD, Brueckner-CCSD(T), CCSD density, CASPT2, CASPT2-K
   Simone Kossmann        : Meta GGA functionals, TD-DFT gradient, OOMP2, MP2 Hessian
   Martin Krupicka        : Initial AUTO-CI
   Lucas Lang             : DCDCAS
   Marvin Lechner         : AUTO-CI (C++ implementation), FIC-MRCC
   Dagmar Lenk            : GEPOL surface, SMD
   Dimitrios Liakos       : Extrapolation schemes; Compound Job, initial MDCI parallelization
   Dimitrios Manganas     : Further ROCIS development; embedding schemes
   Dimitrios Pantazis     : SARC Basis sets
   Anastasios Papadopoulos: AUTO-CI, single reference methods and gradients
   Taras Petrenko         : DFT Hessian,TD-DFT gradient, ASA, ECA, R-Raman, ABS, FL, XAS/XES, NRVS
   Peter Pinski           : DLPNO-MP2, DLPNO-MP2 Gradient
   Christoph Reimann      : Effective Core Potentials
   Marius Retegan         : Local ZFS, SOC
   Christoph Riplinger    : Optimizer, TS searches, QM/MM, DLPNO-CCSD(T), (RO)-DLPNO pert. Triples
   Tobias Risthaus        : Range-separated hybrids, TD-DFT gradient, RPA, STAB
   Michael Roemelt        : Original ROCIS implementation
   Masaaki Saitow         : Open-shell DLPNO-CCSD energy and density
   Barbara Sandhoefer     : DKH picture change effects
   Avijit Sen             : IP-ROCIS
   Kantharuban Sivalingam : CASSCF convergence, NEVPT2, FIC-MRCI
   Bernardo de Souza      : ESD, SOC TD-DFT
   Georgi Stoychev        : AutoAux, RI-MP2 NMR, DLPNO-MP2 response
   Willem Van den Heuvel  : Paramagnetic NMR
   Boris Wezisla          : Elementary symmetry handling
   Frank Wennmohs         : Technical directorship


 We gratefully acknowledge several colleagues who have allowed us to
 interface, adapt or use parts of their codes:
   Stefan Grimme, W. Hujo, H. Kruse, P. Pracht,  : VdW corrections, initial TS optimization,
                  C. Bannwarth, S. Ehlert          DFT functionals, gCP, sTDA/sTD-DF
   Ed Valeev, F. Pavosevic, A. Kumar             : LibInt (2-el integral package), F12 methods
   Garnet Chan, S. Sharma, J. Yang, R. Olivares  : DMRG
   Ulf Ekstrom                                   : XCFun DFT Library
   Mihaly Kallay                                 : mrcc  (arbitrary order and MRCC methods)
   Jiri Pittner, Ondrej Demel                    : Mk-CCSD
   Frank Weinhold                                : gennbo (NPA and NBO analysis)
   Christopher J. Cramer and Donald G. Truhlar   : smd solvation model
   Lars Goerigk                                  : TD-DFT with DH, B97 family of functionals
   V. Asgeirsson, H. Jonsson                     : NEB implementation
   FAccTs GmbH                                   : IRC, NEB, NEB-TS, DLPNO-Multilevel, CI-OPT
                                                   MM, QMMM, 2- and 3-layer-ONIOM, Crystal-QMMM,
                                                   LR-CPCM, SF, NACMEs, symmetry and pop. for TD-DFT,
                                                   nearIR, NL-DFT gradient (VV10), updates on ESD,
                                                   ML-optimized integration grids
   S Lehtola, MJT Oliveira, MAL Marques          : LibXC Library
   Liviu Ungur et al                             : ANISO software


 Your calculation uses the libint2 library for the computation of 2-el integrals
 For citations please refer to: http://libint.valeyev.net

 Your ORCA version has been built with support for libXC version: 5.1.0
 For citations please refer to: https://tddft.org/programs/libxc/

 This ORCA versions uses:
   CBLAS   interface :  Fast vector & matrix operations
   LAPACKE interface :  Fast linear algebra routines
   SCALAPACK package :  Parallel linear algebra routines
   Shared memory     :  Shared parallel matrices
   BLAS/LAPACK       :  OpenBLAS 0.3.15  USE64BITINT DYNAMIC_ARCH NO_AFFINITY Zen SINGLE_THREADED
        Core in use  :  Zen
   Copyright (c) 2011-2014, The OpenBLAS Project


================================================================================

----- Orbital basis set information -----
Your calculation utilizes the basis: def2-TZVPP
   F. Weigend and R. Ahlrichs, Phys. Chem. Chem. Phys. 7, 3297 (2005).

----- AuxC basis set information -----
Your calculation utilizes the auxiliary basis: def2-TZVPP/C
  H-La, Hf-Rn : A. Hellweg, C. Hattig, S. Hofener and W. Klopper, Theor. Chem. Acc. 117, 587 (2007).
        Ce-Lu : J. Chmela and M. E. Harding, Mol. Phys. (2018).

================================================================================
                                        WARNINGS
                       Please study these warnings very carefully!
================================================================================


WARNING: Post HF methods need fully converged wavefunctions
  ===> : Setting SCFConvForced true
         You can overwrite this default with %scf ConvForced false 


WARNING: MDCI localization with Augmented Hessian Foster-Boys
  ===> : Switching off randomization!

INFO   : the flag for use of the SHARK integral package has been found!

================================================================================
                                       INPUT FILE
================================================================================
NAME = /tmp/43011/DATS_14_exo_v_DLPNO.inp
|  1> # DATS_14_exo_v_DLPNO
|  2> %maxcore 4000
|  3> %pal nprocs 16 end
|  4> ! pal16 DLPNO-CCSD(T) def2-tzvpp def2-tzvpp/C
|  5> 
|  6> * xyz 0 1
|  7>  C  -0.55011400  -1.46263000  -0.28025500
|  8>  C   0.92431600  -0.64323900   0.97630200
|  9>  C  -0.79943200   1.53281100   0.37547300
| 10>  C  -1.52191200  -0.52855100  -0.62626400
| 11>  H   0.15354200  -1.79909100  -1.03408700
| 12>  H  -0.80832700  -2.21609600   0.46192400
| 13>  H  -1.50437100  -0.02426800  -1.58560800
| 14>  C   1.37153500   0.45727900   0.25725900
| 15>  C   0.49713600   1.52397800  -0.05276600
| 16>  H   1.58516900  -1.48023200   1.17232800
| 17>  H  -1.50989200   2.25891900  -0.00645500
| 18>  H   0.82406600   2.20247000  -0.83582800
| 19>  H   0.19083000  -0.46643200   1.75204500
| 20>  H  -1.10010500   1.03415400   1.28935400
| 21>  O   2.53788600   0.48311400  -0.43825800
| 22>  C   3.46255400  -0.55827500  -0.21197300
| 23>  H   3.07454300  -1.52194200  -0.56344000
| 24>  H   4.35425200  -0.30115400  -0.78315100
| 25>  H   3.71618000  -0.63866300   0.85171800
| 26>  C  -2.77997500  -0.48695300   0.11467400
| 27>  O  -3.76615100   0.14750900  -0.19702500
| 28>  H  -2.77441100  -1.09917500   1.04876500
| 29> **                         ****END OF INPUT****
================================================================================

                       ****************************
                       * Single Point Calculation *
                       ****************************

---------------------------------
CARTESIAN COORDINATES (ANGSTROEM)
---------------------------------
  C     -0.550114   -1.462630   -0.280255
  C      0.924316   -0.643239    0.976302
  C     -0.799432    1.532811    0.375473
  C     -1.521912   -0.528551   -0.626264
  H      0.153542   -1.799091   -1.034087
  H     -0.808327   -2.216096    0.461924
  H     -1.504371   -0.024268   -1.585608
  C      1.371535    0.457279    0.257259
  C      0.497136    1.523978   -0.052766
  H      1.585169   -1.480232    1.172328
  H     -1.509892    2.258919   -0.006455
  H      0.824066    2.202470   -0.835828
  H      0.190830   -0.466432    1.752045
  H     -1.100105    1.034154    1.289354
  O      2.537886    0.483114   -0.438258
  C      3.462554   -0.558275   -0.211973
  H      3.074543   -1.521942   -0.563440
  H      4.354252   -0.301154   -0.783151
  H      3.716180   -0.638663    0.851718
  C     -2.779975   -0.486953    0.114674
  O     -3.766151    0.147509   -0.197025
  H     -2.774411   -1.099175    1.048765

----------------------------
CARTESIAN COORDINATES (A.U.)
----------------------------
  NO LB      ZA    FRAG     MASS         X           Y           Z
   0 C     6.0000    0    12.011   -1.039565   -2.763970   -0.529605
   1 C     6.0000    0    12.011    1.746704   -1.215546    1.844943
   2 C     6.0000    0    12.011   -1.510708    2.896593    0.709541
   3 C     6.0000    0    12.011   -2.875997   -0.998817   -1.183467
   4 H     1.0000    0     1.008    0.290152   -3.399789   -1.954141
   5 H     1.0000    0     1.008   -1.527517   -4.187815    0.872910
   6 H     1.0000    0     1.008   -2.842849   -0.045860   -2.996365
   7 C     6.0000    0    12.011    2.591826    0.864132    0.486149
   8 C     6.0000    0    12.011    0.939451    2.879901   -0.099713
   9 H     1.0000    0     1.008    2.995535   -2.797233    2.215379
  10 H     1.0000    0     1.008   -2.853282    4.268738   -0.012198
  11 H     1.0000    0     1.008    1.557259    4.162065   -1.579486
  12 H     1.0000    0     1.008    0.360616   -0.881429    3.310885
  13 H     1.0000    0     1.008   -2.078897    1.954268    2.436526
  14 O     8.0000    0    15.999    4.795909    0.912953   -0.828188
  15 C     6.0000    0    12.011    6.543279   -1.054987   -0.400571
  16 H     1.0000    0     1.008    5.810044   -2.876054   -1.064747
  17 H     1.0000    0     1.008    8.228344   -0.569099   -1.479941
  18 H     1.0000    0     1.008    7.022562   -1.206898    1.609514
  19 C     6.0000    0    12.011   -5.253391   -0.920208    0.216702
  20 O     8.0000    0    15.999   -7.116994    0.278752   -0.372323
  21 H     1.0000    0     1.008   -5.242877   -2.077140    1.981879

--------------------------------
INTERNAL COORDINATES (ANGSTROEM)
--------------------------------
 C      0   0   0     0.000000000000     0.00000000     0.00000000
 C      1   0   0     2.103397473144     0.00000000     0.00000000
 C      2   1   0     2.840333828487    75.32531273     0.00000000
 C      1   2   3     1.391623928770   112.12095442   357.37632078
 H      1   2   3     1.084712153099    94.66183123   121.57844842
 H      1   2   3     1.088675633311    91.63934315   236.21306260
 H      4   1   2     1.083951078742   121.40077225   100.19436509
 C      2   1   3     1.388584724867   103.01216732   307.84771575
 C      3   2   1     1.365487181058    59.01145758   245.39485979
 H      2   1   3     1.084301693411   103.56335455   181.45880216
 H      3   2   1     1.085290392682   169.83218217   338.71618816
 H      9   3   2     1.086471681549   120.51193830   163.92743974
 H      2   1   3     1.082145844835    90.96074452    66.27742249
 H      3   2   1     1.083624260867    68.74255588    92.42872301
 O      8   2   1     1.358228993843   123.83548304   257.28893907
 C     15   8   2     1.410924115879   117.81468033   347.32419014
 H     16  15   8     1.096693063304   111.42572580    66.60850389
 H     16  15   8     1.089715944423   106.14420338   185.38354478
 H     16  15   8     1.096461090008   111.17976861   304.58359204
 C      4   1   2     1.460630694398   119.63428690   262.62009852
 O     20   4   1     1.213359550595   125.77653373   190.51470958
 H     20   4   1     1.116858420598   113.85090565    11.39368769

---------------------------
INTERNAL COORDINATES (A.U.)
---------------------------
 C      0   0   0     0.000000000000     0.00000000     0.00000000
 C      1   0   0     3.974845175025     0.00000000     0.00000000
 C      2   1   0     5.367453064752    75.32531273     0.00000000
 C      1   2   3     2.629788106787   112.12095442   357.37632078
 H      1   2   3     2.049808903493    94.66183123   121.57844842
 H      1   2   3     2.057298795632    91.63934315   236.21306260
 H      4   1   2     2.048370681391   121.40077225   100.19436509
 C      2   1   3     2.624044843745   103.01216732   307.84771575
 C      3   2   1     2.580396811580    59.01145758   245.39485979
 H      2   1   3     2.049033247094   103.56335455   181.45880216
 H      3   2   1     2.050901617945   169.83218217   338.71618816
 H      9   3   2     2.053133930389   120.51193830   163.92743974
 H      2   1   3     2.044959283699    90.96074452    66.27742249
 H      3   2   1     2.047753085111    68.74255588    92.42872301
 O      8   2   1     2.566680825514   123.83548304   257.28893907
 C     15   8   2     2.666260174757   117.81468033   347.32419014
 H     16  15   8     2.072449542616   111.42572580    66.60850389
 H     16  15   8     2.059264698726   106.14420338   185.38354478
 H     16  15   8     2.072011176615   111.17976861   304.58359204
 C      4   1   2     2.760191995211   119.63428690   262.62009852
 O     20   4   1     2.292917252603   125.77653373   190.51470958
 H     20   4   1     2.110556545294   113.85090565    11.39368769

---------------------
BASIS SET INFORMATION
---------------------
There are 3 groups of distinct atoms

 Group   1 Type C   : 11s6p2d1f contracted to 5s3p2d1f pattern {62111/411/11/1}
 Group   2 Type H   : 5s2p1d contracted to 3s2p1d pattern {311/11/1}
 Group   3 Type O   : 11s6p2d1f contracted to 5s3p2d1f pattern {62111/411/11/1}

Atom   0C    basis set group =>   1
Atom   1C    basis set group =>   1
Atom   2C    basis set group =>   1
Atom   3C    basis set group =>   1
Atom   4H    basis set group =>   2
Atom   5H    basis set group =>   2
Atom   6H    basis set group =>   2
Atom   7C    basis set group =>   1
Atom   8C    basis set group =>   1
Atom   9H    basis set group =>   2
Atom  10H    basis set group =>   2
Atom  11H    basis set group =>   2
Atom  12H    basis set group =>   2
Atom  13H    basis set group =>   2
Atom  14O    basis set group =>   3
Atom  15C    basis set group =>   1
Atom  16H    basis set group =>   2
Atom  17H    basis set group =>   2
Atom  18H    basis set group =>   2
Atom  19C    basis set group =>   1
Atom  20O    basis set group =>   3
Atom  21H    basis set group =>   2
---------------------------------
AUXILIARY/C BASIS SET INFORMATION
---------------------------------
There are 3 groups of distinct atoms

 Group   1 Type C   : 8s6p5d3f1g contracted to 8s6p4d3f1g pattern {11111111/111111/2111/111/1}
 Group   2 Type H   : 4s3p2d1f contracted to 4s3p2d1f pattern {1111/111/11/1}
 Group   3 Type O   : 8s6p5d3f1g contracted to 8s6p4d3f1g pattern {11111111/111111/2111/111/1}

Atom   0C    basis set group =>   1
Atom   1C    basis set group =>   1
Atom   2C    basis set group =>   1
Atom   3C    basis set group =>   1
Atom   4H    basis set group =>   2
Atom   5H    basis set group =>   2
Atom   6H    basis set group =>   2
Atom   7C    basis set group =>   1
Atom   8C    basis set group =>   1
Atom   9H    basis set group =>   2
Atom  10H    basis set group =>   2
Atom  11H    basis set group =>   2
Atom  12H    basis set group =>   2
Atom  13H    basis set group =>   2
Atom  14O    basis set group =>   3
Atom  15C    basis set group =>   1
Atom  16H    basis set group =>   2
Atom  17H    basis set group =>   2
Atom  18H    basis set group =>   2
Atom  19C    basis set group =>   1
Atom  20O    basis set group =>   3
Atom  21H    basis set group =>   2


           ************************************************************
           *        Program running with 16 parallel MPI-processes    *
           *              working on a common directory               *
           ************************************************************
------------------------------------------------------------------------------
                           ORCA GTO INTEGRAL CALCULATION
------------------------------------------------------------------------------
------------------------------------------------------------------------------
                   ___                                                        
                  /   \      - P O W E R E D   B Y -                         
                 /     \                                                     
                 |  |  |   _    _      __       _____    __    __             
                 |  |  |  | |  | |    /  \     |  _  \  |  |  /  |          
                  \  \/   | |  | |   /    \    | | | |  |  | /  /          
                 / \  \   | |__| |  /  /\  \   | |_| |  |  |/  /          
                |  |  |   |  __  | /  /__\  \  |    /   |      \           
                |  |  |   | |  | | |   __   |  |    \   |  |\   \          
                \     /   | |  | | |  |  |  |  | |\  \  |  | \   \       
                 \___/    |_|  |_| |__|  |__|  |_| \__\ |__|  \__/        
                                                                              
                      - O R C A' S   B I G   F R I E N D -                    
                                      &                                       
                       - I N T E G R A L  F E E D E R -                       
                                                                              
 v1 FN, 2020, v2 2021                                                         
------------------------------------------------------------------------------


Reading SHARK input file /tmp/43011/DATS_14_exo_v_DLPNO.SHARKINP.tmp ... ok
----------------------
SHARK INTEGRAL PACKAGE
----------------------

Number of atoms                             ...     22
Number of basis functions                   ...    478
Number of shells                            ...    182
Maximum angular momentum                    ...      3
Integral batch strategy                     ... SHARK/LIBINT Hybrid
RI-J (if used) integral strategy            ... SPLIT-RIJ (Revised 2003 algorithm where possible)
Printlevel                                  ...      1
Contraction scheme used                     ... SEGMENTED contraction
Coulomb Range Separation                    ... NOT USED
Exchange Range Separation                   ... NOT USED
Finite Nucleus Model                        ... NOT USED
Auxiliary Coulomb fitting basis             ... NOT available
Auxiliary J/K fitting basis                 ... NOT available
Auxiliary Correlation fitting basis         ... AVAILABLE
   # of basis functions in Aux-C            ...   1120
   # of shells in Aux-C                     ...    340
   Maximum angular momentum in Aux-C        ...      4
Auxiliary 'external' fitting basis          ... NOT available
Integral threshold                          ...     1.000000e-10
Primitive cut-off                           ...     1.000000e-11
Primitive pair pre-selection threshold      ...     1.000000e-11

Calculating pre-screening integrals         ... done (  0.0 sec) Dimension = 182
Organizing shell pair data                  ... done (  0.1 sec)
Shell pair information
Total number of shell pairs                 ...     16653
Shell pairs after pre-screening             ...     14156
Total number of primitive shell pairs       ...     44212
Primitive shell pairs kept                  ...     28056
          la=0 lb=0:   3141 shell pairs
          la=1 lb=0:   4030 shell pairs
          la=1 lb=1:   1330 shell pairs
          la=2 lb=0:   2246 shell pairs
          la=2 lb=1:   1468 shell pairs
          la=2 lb=2:    431 shell pairs
          la=3 lb=0:    725 shell pairs
          la=3 lb=1:    471 shell pairs
          la=3 lb=2:    266 shell pairs
          la=3 lb=3:     48 shell pairs

Calculating one electron integrals          ... done (  0.0 sec)
Calculating RI/C V-Matrix + Cholesky decomp.... done (  0.2 sec)
Calculating Nuclear repulsion               ... done (  0.0 sec) ENN=    520.100102875931 Eh

SHARK setup successfully completed in   0.6 seconds

Maximum memory used throughout the entire GTOINT-calculation: 26.4 MB


           ************************************************************
           *        Program running with 16 parallel MPI-processes    *
           *              working on a common directory               *
           ************************************************************
-------------------------------------------------------------------------------
                                 ORCA SCF
-------------------------------------------------------------------------------

------------
SCF SETTINGS
------------
Hamiltonian:
 Ab initio Hamiltonian  Method          .... Hartree-Fock(GTOs)


General Settings:
 Integral files         IntName         .... /tmp/43011/DATS_14_exo_v_DLPNO
 Hartree-Fock type      HFTyp           .... RHF
 Total Charge           Charge          ....    0
 Multiplicity           Mult            ....    1
 Number of Electrons    NEL             ....   76
 Basis Dimension        Dim             ....  478
 Nuclear Repulsion      ENuc            ....    520.1001028759 Eh

Convergence Acceleration:
 DIIS                   CNVDIIS         .... on
   Start iteration      DIISMaxIt       ....    12
   Startup error        DIISStart       ....  0.200000
   # of expansion vecs  DIISMaxEq       ....     5
   Bias factor          DIISBfac        ....   1.050
   Max. coefficient     DIISMaxC        ....  10.000
 Trust-Rad. Augm. Hess. CNVTRAH         .... auto
   Auto Start mean grad. ratio tolernc. ....  1.125000
   Auto Start start iteration           ....    20
   Auto Start num. interpolation iter.  ....    10
   Max. Number of Micro iterations      ....    16
   Max. Number of Macro iterations      .... Maxiter - #DIIS iter
   Number of Davidson start vectors     ....     2
   Converg. threshold I  (grad. norm)   ....   5.000e-05
   Converg. threshold II (energy diff.) ....   1.000e-06
   Grad. Scal. Fac. for Micro threshold ....   0.100
   Minimum threshold for Micro iter.    ....   0.010
   NR start threshold (gradient norm)   ....   0.001
   Initial trust radius                 ....   0.400
   Minimum AH scaling param. (alpha)    ....   1.000
   Maximum AH scaling param. (alpha)    .... 1000.000
   Orbital update algorithm             .... Taylor
   White noise on init. David. guess    .... on
   Maximum white noise                  ....   0.010
   Quad. conv. algorithm                .... NR
 SOSCF                  CNVSOSCF        .... on
   Start iteration      SOSCFMaxIt      ....   150
   Startup grad/error   SOSCFStart      ....  0.003300
 Level Shifting         CNVShift        .... on
   Level shift para.    LevelShift      ....    0.2500
   Turn off err/grad.   ShiftErr        ....    0.0010
 Zerner damping         CNVZerner       .... off
 Static damping         CNVDamp         .... on
   Fraction old density DampFac         ....    0.7000
   Max. Damping (<1)    DampMax         ....    0.9800
   Min. Damping (>=0)   DampMin         ....    0.0000
   Turn off err/grad.   DampErr         ....    0.1000
 Fernandez-Rico         CNVRico         .... off

SCF Procedure:
 Maximum # iterations   MaxIter         ....   125
 SCF integral mode      SCFMode         .... Direct
   Integral package                     .... SHARK and LIBINT hybrid scheme
 Reset frequency        DirectResetFreq ....    20
 Integral Threshold     Thresh          ....  1.000e-10 Eh
 Primitive CutOff       TCut            ....  1.000e-11 Eh

Convergence Tolerance:
 Convergence Check Mode ConvCheckMode   .... Total+1el-Energy
 Convergence forced     ConvForced      .... 1
 Energy Change          TolE            ....  1.000e-06 Eh
 1-El. energy change                    ....  1.000e-03 Eh
 Orbital Gradient       TolG            ....  5.000e-05
 Orbital Rotation angle TolX            ....  5.000e-05
 DIIS Error             TolErr          ....  1.000e-06


Diagonalization of the overlap matrix:
Smallest eigenvalue                        ... 4.613e-05
Time for diagonalization                   ...    0.028 sec
Threshold for overlap eigenvalues          ... 1.000e-08
Number of eigenvalues below threshold      ... 0
Time for construction of square roots      ...    0.025 sec
Total time needed                          ...    0.054 sec

Time for model grid setup =    0.076 sec

------------------------------
INITIAL GUESS: MODEL POTENTIAL
------------------------------
Loading Hartree-Fock densities                     ... done
Calculating cut-offs                               ... done
Initializing the effective Hamiltonian             ... done
Setting up the integral package (SHARK)            ... done
Starting the Coulomb interaction                   ... done (   0.1 sec)
Reading the grid                                   ... done
Mapping shells                                     ... done
Starting the XC term evaluation                    ... done (   0.0 sec)
Transforming the Hamiltonian                       ... done (   0.0 sec)
Diagonalizing the Hamiltonian                      ... done (   0.0 sec)
Back transforming the eigenvectors                 ... done (   0.0 sec)
Now organizing SCF variables                       ... done
                      ------------------
                      INITIAL GUESS DONE (   0.2 sec)
                      ------------------
--------------
SCF ITERATIONS
--------------
ITER       Energy         Delta-E        Max-DP      RMS-DP      [F,P]     Damp
               ***  Starting incremental Fock matrix formation  ***
  0   -459.2380930322   0.000000000000 0.10481301  0.00071654  0.3011380 0.7000
  1   -459.3875719464  -0.149478914218 0.09977294  0.00060874  0.2204328 0.7000
                               ***Turning on DIIS***
  2   -459.4798651984  -0.092293252004 0.04951493  0.00038727  0.1628730 0.7000
  3   -460.6314794155  -1.151614217060 0.01138788  0.00022371  0.1205473 0.7000
  4   -460.4811127006   0.150366714890 0.03968231  0.00055319  0.0847316 0.0000
  5   -459.7089602289   0.772152471684 0.01856012  0.00010771  0.0048012 0.0000
                      *** Initiating the SOSCF procedure ***
                           *** Shutting down DIIS ***
                      *** Re-Reading the Fockian *** 
                      *** Removing any level shift *** 
ITER      Energy       Delta-E        Grad      Rot      Max-DP    RMS-DP
  6   -459.68062830   0.0283319249  0.002543  0.002543  0.015255  0.000074
               *** Restarting incremental Fock matrix formation ***
  7   -459.67721445   0.0034138554  0.001713  0.004232  0.006550  0.000040
  8   -459.67728022  -0.0000657735  0.000808  0.005518  0.013982  0.000067
  9   -459.67731179  -0.0000315640  0.000273  0.000479  0.002354  0.000013
 10   -459.67731499  -0.0000032053  0.000115  0.000372  0.000609  0.000006
                 **** Energy Check signals convergence ****
              ***Rediagonalizing the Fockian in SOSCF/NRSCF***

               *****************************************************
               *                     SUCCESS                       *
               *           SCF CONVERGED AFTER  11 CYCLES          *
               *****************************************************


----------------
TOTAL SCF ENERGY
----------------

Total Energy       :         -459.67731564 Eh          -12508.45568 eV

Components:
Nuclear Repulsion  :          520.10010288 Eh           14152.64331 eV
Electronic Energy  :         -979.77741852 Eh          -26661.09898 eV
One Electron Energy:        -1656.96378548 Eh          -45088.27685 eV
Two Electron Energy:          677.18636696 Eh           18427.17786 eV

Virial components:
Potential Energy   :         -918.81560190 Eh          -25002.24362 eV
Kinetic Energy     :          459.13828626 Eh           12493.78794 eV
Virial Ratio       :            2.00117400


---------------
SCF CONVERGENCE
---------------

  Last Energy change         ...   -6.4930e-07  Tolerance :   1.0000e-06
  Last MAX-Density change    ...    3.2027e-04  Tolerance :   1.0000e-05
  Last RMS-Density change    ...    2.7443e-06  Tolerance :   1.0000e-06
  Last Orbital Gradient      ...    7.1199e-05  Tolerance :   5.0000e-05
  Last Orbital Rotation      ...    3.4638e-04  Tolerance :   5.0000e-05

             **** THE GBW FILE WAS UPDATED (/tmp/43011/DATS_14_exo_v_DLPNO.gbw) ****
             **** DENSITY /tmp/43011/DATS_14_exo_v_DLPNO.scfp WAS UPDATED ****
             **** ENERGY FILE WAS UPDATED (/tmp/43011/DATS_14_exo_v_DLPNO.en.tmp) ****
             **** THE GBW FILE WAS UPDATED (/tmp/43011/DATS_14_exo_v_DLPNO.gbw) ****
             **** DENSITY /tmp/43011/DATS_14_exo_v_DLPNO.scfp WAS UPDATED ****
----------------
ORBITAL ENERGIES
----------------

  NO   OCC          E(Eh)            E(eV) 
   0   2.0000     -20.599727      -560.5471 
   1   2.0000     -20.522551      -558.4470 
   2   2.0000     -11.317227      -307.9574 
   3   2.0000     -11.311871      -307.8117 
   4   2.0000     -11.295777      -307.3737 
   5   2.0000     -11.264547      -306.5239 
   6   2.0000     -11.263347      -306.4913 
   7   2.0000     -11.245000      -305.9920 
   8   2.0000     -11.233370      -305.6755 
   9   2.0000     -11.223109      -305.3963 
  10   2.0000      -1.429037       -38.8861 
  11   2.0000      -1.362672       -37.0802 
  12   2.0000      -1.117148       -30.3992 
  13   2.0000      -1.055882       -28.7320 
  14   2.0000      -1.003699       -27.3120 
  15   2.0000      -0.972808       -26.4715 
  16   2.0000      -0.869841       -23.6696 
  17   2.0000      -0.855689       -23.2845 
  18   2.0000      -0.768430       -20.9100 
  19   2.0000      -0.748469       -20.3669 
  20   2.0000      -0.710376       -19.3303 
  21   2.0000      -0.683964       -18.6116 
  22   2.0000      -0.670539       -18.2463 
  23   2.0000      -0.645620       -17.5682 
  24   2.0000      -0.637151       -17.3377 
  25   2.0000      -0.617923       -16.8145 
  26   2.0000      -0.585357       -15.9284 
  27   2.0000      -0.582806       -15.8589 
  28   2.0000      -0.560142       -15.2422 
  29   2.0000      -0.542914       -14.7735 
  30   2.0000      -0.539938       -14.6925 
  31   2.0000      -0.534427       -14.5425 
  32   2.0000      -0.516448       -14.0533 
  33   2.0000      -0.506563       -13.7843 
  34   2.0000      -0.456004       -12.4085 
  35   2.0000      -0.404231       -10.9997 
  36   2.0000      -0.348378        -9.4798 
  37   2.0000      -0.292810        -7.9678 
  38   0.0000       0.076404         2.0790 
  39   0.0000       0.112774         3.0687 
  40   0.0000       0.125687         3.4201 
  41   0.0000       0.150376         4.0920 
  42   0.0000       0.162481         4.4213 
  43   0.0000       0.166742         4.5373 
  44   0.0000       0.175988         4.7889 
  45   0.0000       0.188926         5.1409 
  46   0.0000       0.204582         5.5670 
  47   0.0000       0.209751         5.7076 
  48   0.0000       0.211580         5.7574 
  49   0.0000       0.217589         5.9209 
  50   0.0000       0.229514         6.2454 
  51   0.0000       0.239304         6.5118 
  52   0.0000       0.251497         6.8436 
  53   0.0000       0.257795         7.0150 
  54   0.0000       0.271394         7.3850 
  55   0.0000       0.298565         8.1244 
  56   0.0000       0.303212         8.2508 
  57   0.0000       0.306676         8.3451 
  58   0.0000       0.323828         8.8118 
  59   0.0000       0.324936         8.8420 
  60   0.0000       0.331430         9.0187 
  61   0.0000       0.356539         9.7019 
  62   0.0000       0.361095         9.8259 
  63   0.0000       0.371722        10.1151 
  64   0.0000       0.384319        10.4579 
  65   0.0000       0.399556        10.8725 
  66   0.0000       0.413627        11.2554 
  67   0.0000       0.422327        11.4921 
  68   0.0000       0.431181        11.7330 
  69   0.0000       0.434017        11.8102 
  70   0.0000       0.449507        12.2317 
  71   0.0000       0.461451        12.5567 
  72   0.0000       0.467154        12.7119 
  73   0.0000       0.488690        13.2979 
  74   0.0000       0.502706        13.6793 
  75   0.0000       0.515156        14.0181 
  76   0.0000       0.520756        14.1705 
  77   0.0000       0.528302        14.3758 
  78   0.0000       0.536179        14.5902 
  79   0.0000       0.542114        14.7517 
  80   0.0000       0.552281        15.0283 
  81   0.0000       0.555644        15.1199 
  82   0.0000       0.567163        15.4333 
  83   0.0000       0.581028        15.8106 
  84   0.0000       0.582057        15.8386 
  85   0.0000       0.588511        16.0142 
  86   0.0000       0.601991        16.3810 
  87   0.0000       0.613679        16.6990 
  88   0.0000       0.618609        16.8332 
  89   0.0000       0.622392        16.9361 
  90   0.0000       0.628560        17.1040 
  91   0.0000       0.643545        17.5117 
  92   0.0000       0.654303        17.8045 
  93   0.0000       0.660584        17.9754 
  94   0.0000       0.673418        18.3246 
  95   0.0000       0.686502        18.6807 
  96   0.0000       0.704243        19.1634 
  97   0.0000       0.707075        19.2405 
  98   0.0000       0.713837        19.4245 
  99   0.0000       0.724057        19.7026 
 100   0.0000       0.738880        20.1060 
 101   0.0000       0.742413        20.2021 
 102   0.0000       0.749682        20.3999 
 103   0.0000       0.776610        21.1326 
 104   0.0000       0.786017        21.3886 
 105   0.0000       0.805279        21.9127 
 106   0.0000       0.814229        22.1563 
 107   0.0000       0.824730        22.4420 
 108   0.0000       0.832062        22.6416 
 109   0.0000       0.843917        22.9641 
 110   0.0000       0.859617        23.3914 
 111   0.0000       0.872322        23.7371 
 112   0.0000       0.889838        24.2137 
 113   0.0000       0.895373        24.3643 
 114   0.0000       0.919675        25.0256 
 115   0.0000       0.929496        25.2929 
 116   0.0000       0.946316        25.7506 
 117   0.0000       0.961526        26.1645 
 118   0.0000       0.978619        26.6296 
 119   0.0000       0.992185        26.9987 
 120   0.0000       1.030417        28.0391 
 121   0.0000       1.036284        28.1987 
 122   0.0000       1.040649        28.3175 
 123   0.0000       1.054189        28.6859 
 124   0.0000       1.070932        29.1415 
 125   0.0000       1.086988        29.5784 
 126   0.0000       1.101990        29.9867 
 127   0.0000       1.118163        30.4268 
 128   0.0000       1.126010        30.6403 
 129   0.0000       1.131936        30.8015 
 130   0.0000       1.138466        30.9792 
 131   0.0000       1.154132        31.4055 
 132   0.0000       1.165539        31.7159 
 133   0.0000       1.170078        31.8394 
 134   0.0000       1.178152        32.0591 
 135   0.0000       1.187049        32.3013 
 136   0.0000       1.199086        32.6288 
 137   0.0000       1.211473        32.9658 
 138   0.0000       1.220900        33.2224 
 139   0.0000       1.242318        33.8052 
 140   0.0000       1.244332        33.8600 
 141   0.0000       1.258111        34.2349 
 142   0.0000       1.271182        34.5906 
 143   0.0000       1.284547        34.9543 
 144   0.0000       1.295013        35.2391 
 145   0.0000       1.303967        35.4827 
 146   0.0000       1.310990        35.6739 
 147   0.0000       1.331816        36.2406 
 148   0.0000       1.344990        36.5990 
 149   0.0000       1.351293        36.7705 
 150   0.0000       1.362866        37.0855 
 151   0.0000       1.372552        37.3490 
 152   0.0000       1.382092        37.6086 
 153   0.0000       1.409048        38.3421 
 154   0.0000       1.416280        38.5390 
 155   0.0000       1.435148        39.0524 
 156   0.0000       1.453699        39.5572 
 157   0.0000       1.465203        39.8702 
 158   0.0000       1.478254        40.2253 
 159   0.0000       1.488995        40.5176 
 160   0.0000       1.494104        40.6566 
 161   0.0000       1.506638        40.9977 
 162   0.0000       1.525328        41.5063 
 163   0.0000       1.533667        41.7332 
 164   0.0000       1.548533        42.1377 
 165   0.0000       1.562031        42.5050 
 166   0.0000       1.571615        42.7658 
 167   0.0000       1.582491        43.0618 
 168   0.0000       1.600196        43.5435 
 169   0.0000       1.611463        43.8501 
 170   0.0000       1.622741        44.1570 
 171   0.0000       1.627667        44.2911 
 172   0.0000       1.629042        44.3285 
 173   0.0000       1.644646        44.7531 
 174   0.0000       1.658773        45.1375 
 175   0.0000       1.666758        45.3548 
 176   0.0000       1.694951        46.1220 
 177   0.0000       1.707991        46.4768 
 178   0.0000       1.712916        46.6108 
 179   0.0000       1.718527        46.7635 
 180   0.0000       1.738785        47.3147 
 181   0.0000       1.761309        47.9277 
 182   0.0000       1.766872        48.0790 
 183   0.0000       1.772196        48.2239 
 184   0.0000       1.787306        48.6351 
 185   0.0000       1.791151        48.7397 
 186   0.0000       1.798432        48.9378 
 187   0.0000       1.842560        50.1386 
 188   0.0000       1.868858        50.8542 
 189   0.0000       1.875902        51.0459 
 190   0.0000       1.881853        51.2078 
 191   0.0000       1.903280        51.7909 
 192   0.0000       1.909493        51.9599 
 193   0.0000       1.928130        52.4671 
 194   0.0000       1.939227        52.7690 
 195   0.0000       1.951263        53.0966 
 196   0.0000       1.969521        53.5934 
 197   0.0000       1.995389        54.2973 
 198   0.0000       2.019547        54.9547 
 199   0.0000       2.032776        55.3147 
 200   0.0000       2.065153        56.1957 
 201   0.0000       2.072935        56.4074 
 202   0.0000       2.116789        57.6008 
 203   0.0000       2.133175        58.0466 
 204   0.0000       2.146569        58.4111 
 205   0.0000       2.159048        58.7507 
 206   0.0000       2.201042        59.8934 
 207   0.0000       2.220070        60.4112 
 208   0.0000       2.244089        61.0648 
 209   0.0000       2.272461        61.8368 
 210   0.0000       2.280581        62.0578 
 211   0.0000       2.292886        62.3926 
 212   0.0000       2.311291        62.8934 
 213   0.0000       2.346753        63.8584 
 214   0.0000       2.369647        64.4814 
 215   0.0000       2.374512        64.6138 
 216   0.0000       2.393406        65.1279 
 217   0.0000       2.422199        65.9114 
 218   0.0000       2.452093        66.7248 
 219   0.0000       2.463219        67.0276 
 220   0.0000       2.484680        67.6116 
 221   0.0000       2.507472        68.2318 
 222   0.0000       2.517342        68.5004 
 223   0.0000       2.584038        70.3153 
 224   0.0000       2.625352        71.4395 
 225   0.0000       2.668273        72.6074 
 226   0.0000       2.702409        73.5363 
 227   0.0000       2.722888        74.0935 
 228   0.0000       2.738156        74.5090 
 229   0.0000       2.752415        74.8970 
 230   0.0000       2.778236        75.5996 
 231   0.0000       2.793672        76.0197 
 232   0.0000       2.821513        76.7773 
 233   0.0000       2.838765        77.2467 
 234   0.0000       2.864311        77.9419 
 235   0.0000       2.884490        78.4910 
 236   0.0000       2.897309        78.8398 
 237   0.0000       2.906888        79.1004 
 238   0.0000       2.944753        80.1308 
 239   0.0000       2.963951        80.6532 
 240   0.0000       2.975658        80.9718 
 241   0.0000       2.985929        81.2513 
 242   0.0000       2.996411        81.5365 
 243   0.0000       3.021096        82.2082 
 244   0.0000       3.027079        82.3710 
 245   0.0000       3.055046        83.1320 
 246   0.0000       3.057979        83.2119 
 247   0.0000       3.069684        83.5303 
 248   0.0000       3.069879        83.5356 
 249   0.0000       3.079043        83.7850 
 250   0.0000       3.110109        84.6304 
 251   0.0000       3.112468        84.6946 
 252   0.0000       3.123188        84.9863 
 253   0.0000       3.133889        85.2774 
 254   0.0000       3.142331        85.5072 
 255   0.0000       3.162300        86.0506 
 256   0.0000       3.173077        86.3438 
 257   0.0000       3.185862        86.6917 
 258   0.0000       3.196199        86.9730 
 259   0.0000       3.204637        87.2026 
 260   0.0000       3.221705        87.6671 
 261   0.0000       3.224468        87.7422 
 262   0.0000       3.230753        87.9132 
 263   0.0000       3.237509        88.0971 
 264   0.0000       3.251921        88.4893 
 265   0.0000       3.278986        89.2257 
 266   0.0000       3.290361        89.5353 
 267   0.0000       3.303029        89.8800 
 268   0.0000       3.310336        90.0788 
 269   0.0000       3.326029        90.5059 
 270   0.0000       3.341318        90.9219 
 271   0.0000       3.365468        91.5790 
 272   0.0000       3.368897        91.6724 
 273   0.0000       3.380814        91.9966 
 274   0.0000       3.387115        92.1681 
 275   0.0000       3.401958        92.5720 
 276   0.0000       3.412067        92.8471 
 277   0.0000       3.431044        93.3635 
 278   0.0000       3.436175        93.5031 
 279   0.0000       3.456359        94.0523 
 280   0.0000       3.459828        94.1467 
 281   0.0000       3.474414        94.5436 
 282   0.0000       3.482675        94.7684 
 283   0.0000       3.485759        94.8523 
 284   0.0000       3.504036        95.3497 
 285   0.0000       3.521224        95.8174 
 286   0.0000       3.524641        95.9104 
 287   0.0000       3.538820        96.2962 
 288   0.0000       3.552376        96.6651 
 289   0.0000       3.566930        97.0611 
 290   0.0000       3.578490        97.3757 
 291   0.0000       3.588292        97.6424 
 292   0.0000       3.602782        98.0367 
 293   0.0000       3.611794        98.2819 
 294   0.0000       3.617053        98.4250 
 295   0.0000       3.629800        98.7719 
 296   0.0000       3.635537        98.9280 
 297   0.0000       3.646068        99.2146 
 298   0.0000       3.660149        99.5977 
 299   0.0000       3.682765       100.2131 
 300   0.0000       3.691709       100.4565 
 301   0.0000       3.703891       100.7880 
 302   0.0000       3.720142       101.2302 
 303   0.0000       3.724075       101.3372 
 304   0.0000       3.734227       101.6135 
 305   0.0000       3.744122       101.8827 
 306   0.0000       3.763511       102.4103 
 307   0.0000       3.774311       102.7042 
 308   0.0000       3.793527       103.2271 
 309   0.0000       3.797297       103.3297 
 310   0.0000       3.816508       103.8525 
 311   0.0000       3.833097       104.3039 
 312   0.0000       3.842044       104.5473 
 313   0.0000       3.845879       104.6517 
 314   0.0000       3.857723       104.9740 
 315   0.0000       3.865819       105.1943 
 316   0.0000       3.883576       105.6775 
 317   0.0000       3.889085       105.8274 
 318   0.0000       3.917244       106.5936 
 319   0.0000       3.925699       106.8237 
 320   0.0000       3.943139       107.2983 
 321   0.0000       3.959863       107.7533 
 322   0.0000       3.968382       107.9852 
 323   0.0000       3.985663       108.4554 
 324   0.0000       3.988395       108.5297 
 325   0.0000       4.013353       109.2089 
 326   0.0000       4.021596       109.4332 
 327   0.0000       4.027834       109.6029 
 328   0.0000       4.046100       110.1000 
 329   0.0000       4.064887       110.6112 
 330   0.0000       4.083337       111.1132 
 331   0.0000       4.091678       111.3402 
 332   0.0000       4.106376       111.7402 
 333   0.0000       4.113769       111.9413 
 334   0.0000       4.120741       112.1311 
 335   0.0000       4.135270       112.5264 
 336   0.0000       4.154451       113.0484 
 337   0.0000       4.162724       113.2735 
 338   0.0000       4.177462       113.6745 
 339   0.0000       4.199183       114.2656 
 340   0.0000       4.204573       114.4123 
 341   0.0000       4.208955       114.5315 
 342   0.0000       4.231830       115.1539 
 343   0.0000       4.266551       116.0987 
 344   0.0000       4.275316       116.3373 
 345   0.0000       4.279526       116.4518 
 346   0.0000       4.287346       116.6646 
 347   0.0000       4.299743       117.0019 
 348   0.0000       4.301259       117.0432 
 349   0.0000       4.315941       117.4427 
 350   0.0000       4.320951       117.5791 
 351   0.0000       4.332085       117.8820 
 352   0.0000       4.346011       118.2610 
 353   0.0000       4.360101       118.6444 
 354   0.0000       4.374957       119.0486 
 355   0.0000       4.381938       119.2386 
 356   0.0000       4.393949       119.5654 
 357   0.0000       4.401850       119.7804 
 358   0.0000       4.421058       120.3031 
 359   0.0000       4.441630       120.8629 
 360   0.0000       4.444722       120.9470 
 361   0.0000       4.460633       121.3800 
 362   0.0000       4.478225       121.8587 
 363   0.0000       4.491249       122.2131 
 364   0.0000       4.502504       122.5194 
 365   0.0000       4.511000       122.7505 
 366   0.0000       4.535100       123.4064 
 367   0.0000       4.551099       123.8417 
 368   0.0000       4.558087       124.0319 
 369   0.0000       4.570606       124.3725 
 370   0.0000       4.584976       124.7635 
 371   0.0000       4.594433       125.0209 
 372   0.0000       4.621359       125.7536 
 373   0.0000       4.630108       125.9916 
 374   0.0000       4.637405       126.1902 
 375   0.0000       4.654411       126.6530 
 376   0.0000       4.704892       128.0266 
 377   0.0000       4.722290       128.5000 
 378   0.0000       4.724688       128.5653 
 379   0.0000       4.750632       129.2713 
 380   0.0000       4.768187       129.7490 
 381   0.0000       4.780755       130.0909 
 382   0.0000       4.801314       130.6504 
 383   0.0000       4.848036       131.9218 
 384   0.0000       4.856069       132.1404 
 385   0.0000       4.869082       132.4945 
 386   0.0000       4.880722       132.8112 
 387   0.0000       4.917218       133.8043 
 388   0.0000       4.925627       134.0331 
 389   0.0000       4.937698       134.3616 
 390   0.0000       4.954888       134.8294 
 391   0.0000       4.972338       135.3042 
 392   0.0000       5.007786       136.2688 
 393   0.0000       5.018198       136.5521 
 394   0.0000       5.022680       136.6741 
 395   0.0000       5.045046       137.2827 
 396   0.0000       5.056660       137.5987 
 397   0.0000       5.076510       138.1389 
 398   0.0000       5.107237       138.9750 
 399   0.0000       5.146863       140.0533 
 400   0.0000       5.166454       140.5864 
 401   0.0000       5.194138       141.3397 
 402   0.0000       5.215958       141.9334 
 403   0.0000       5.218943       142.0147 
 404   0.0000       5.248883       142.8294 
 405   0.0000       5.259083       143.1069 
 406   0.0000       5.293269       144.0372 
 407   0.0000       5.306679       144.4021 
 408   0.0000       5.321965       144.8180 
 409   0.0000       5.340607       145.3253 
 410   0.0000       5.367712       146.0629 
 411   0.0000       5.389240       146.6487 
 412   0.0000       5.407451       147.1442 
 413   0.0000       5.420061       147.4874 
 414   0.0000       5.444595       148.1550 
 415   0.0000       5.463615       148.6725 
 416   0.0000       5.478768       149.0849 
 417   0.0000       5.494535       149.5139 
 418   0.0000       5.514931       150.0689 
 419   0.0000       5.547589       150.9576 
 420   0.0000       5.552895       151.1019 
 421   0.0000       5.587645       152.0476 
 422   0.0000       5.610832       152.6785 
 423   0.0000       5.636481       153.3764 
 424   0.0000       5.640485       153.4854 
 425   0.0000       5.671463       154.3283 
 426   0.0000       5.696812       155.0181 
 427   0.0000       5.714024       155.4865 
 428   0.0000       5.734927       156.0553 
 429   0.0000       5.749413       156.4495 
 430   0.0000       5.757952       156.6818 
 431   0.0000       5.799045       157.8001 
 432   0.0000       5.836418       158.8170 
 433   0.0000       5.840024       158.9151 
 434   0.0000       5.860105       159.4616 
 435   0.0000       5.870446       159.7430 
 436   0.0000       5.920573       161.1070 
 437   0.0000       5.942148       161.6941 
 438   0.0000       5.963346       162.2709 
 439   0.0000       5.981045       162.7525 
 440   0.0000       6.024391       163.9320 
 441   0.0000       6.036236       164.2543 
 442   0.0000       6.053828       164.7330 
 443   0.0000       6.079068       165.4199 
 444   0.0000       6.119071       166.5084 
 445   0.0000       6.127999       166.7513 
 446   0.0000       6.214073       169.0935 
 447   0.0000       6.302885       171.5102 
 448   0.0000       6.358350       173.0195 
 449   0.0000       6.364384       173.1837 
 450   0.0000       6.519890       177.4152 
 451   0.0000       6.535662       177.8444 
 452   0.0000       6.587101       179.2441 
 453   0.0000       6.653411       181.0485 
 454   0.0000       6.899800       187.7531 
 455   0.0000       6.929264       188.5549 
 456   0.0000       6.936940       188.7637 
 457   0.0000       7.106881       193.3881 
 458   0.0000       7.135980       194.1799 
 459   0.0000       7.256213       197.4516 
 460   0.0000       7.309531       198.9024 
 461   0.0000       7.359630       200.2657 
 462   0.0000       7.367950       200.4921 
 463   0.0000       7.480483       203.5543 
 464   0.0000       7.608102       207.0270 
 465   0.0000       7.632145       207.6812 
 466   0.0000       7.817555       212.7265 
 467   0.0000       7.966135       216.7696 
 468   0.0000      23.964691       652.1124 
 469   0.0000      24.190063       658.2451 
 470   0.0000      24.282584       660.7627 
 471   0.0000      24.437525       664.9789 
 472   0.0000      24.548366       667.9950 
 473   0.0000      24.668395       671.2611 
 474   0.0000      24.701500       672.1620 
 475   0.0000      24.835130       675.7982 
 476   0.0000      45.518854      1238.6310 
 477   0.0000      45.915174      1249.4154 

                    ********************************
                    * MULLIKEN POPULATION ANALYSIS *
                    ********************************

-----------------------
MULLIKEN ATOMIC CHARGES
-----------------------
   0 C :   -0.139512
   1 C :   -0.220492
   2 C :   -0.079535
   3 C :   -0.133787
   4 H :    0.103392
   5 H :    0.114633
   6 H :    0.106372
   7 C :    0.299603
   8 C :   -0.210477
   9 H :    0.098228
  10 H :    0.126934
  11 H :    0.097061
  12 H :    0.092360
  13 H :    0.087610
  14 O :   -0.368848
  15 C :   -0.004332
  16 H :    0.061885
  17 H :    0.095043
  18 H :    0.071655
  19 C :    0.249519
  20 O :   -0.471786
  21 H :    0.024475
Sum of atomic charges:    0.0000000

--------------------------------
MULLIKEN REDUCED ORBITAL CHARGES
--------------------------------
  0 C s       :     3.128037  s :     3.128037
      pz      :     1.010499  p :     2.895241
      px      :     0.956525
      py      :     0.928216
      dz2     :     0.009628  d :     0.110539
      dxz     :     0.029131
      dyz     :     0.024470
      dx2y2   :     0.024911
      dxy     :     0.022398
      f0      :     0.000395  f :     0.005695
      f+1     :     0.000675
      f-1     :     0.000636
      f+2     :     0.000643
      f-2     :     0.001131
      f+3     :     0.001185
      f-3     :     0.001032
  1 C s       :     3.093345  s :     3.093345
      pz      :     1.033192  p :     3.037618
      px      :     1.038762
      py      :     0.965664
      dz2     :     0.013947  d :     0.084127
      dxz     :     0.018913
      dyz     :     0.014052
      dx2y2   :     0.014819
      dxy     :     0.022395
      f0      :     0.000413  f :     0.005403
      f+1     :     0.000615
      f-1     :     0.001066
      f+2     :     0.001069
      f-2     :     0.000873
      f+3     :     0.000836
      f-3     :     0.000532
  2 C s       :     3.115092  s :     3.115092
      pz      :     0.973325  p :     2.861722
      px      :     0.955991
      py      :     0.932407
      dz2     :     0.017108  d :     0.097008
      dxz     :     0.022937
      dyz     :     0.012461
      dx2y2   :     0.015959
      dxy     :     0.028544
      f0      :     0.000407  f :     0.005713
      f+1     :     0.001063
      f-1     :     0.000520
      f+2     :     0.000861
      f-2     :     0.000754
      f+3     :     0.000821
      f-3     :     0.001286
  3 C s       :     3.072363  s :     3.072363
      pz      :     1.019071  p :     2.943570
      px      :     0.886033
      py      :     1.038466
      dz2     :     0.020154  d :     0.110116
      dxz     :     0.028367
      dyz     :     0.018691
      dx2y2   :     0.023885
      dxy     :     0.019020
      f0      :     0.000701  f :     0.007737
      f+1     :     0.000923
      f-1     :     0.000906
      f+2     :     0.001221
      f-2     :     0.001228
      f+3     :     0.001510
      f-3     :     0.001248
  4 H s       :     0.855309  s :     0.855309
      pz      :     0.015919  p :     0.039160
      px      :     0.014579
      py      :     0.008661
      dz2     :     0.000539  d :     0.002139
      dxz     :     0.000575
      dyz     :     0.000339
      dx2y2   :     0.000344
      dxy     :     0.000342
  5 H s       :     0.843614  s :     0.843614
      pz      :     0.014352  p :     0.039612
      px      :     0.009646
      py      :     0.015614
      dz2     :     0.000417  d :     0.002141
      dxz     :     0.000399
      dyz     :     0.000606
      dx2y2   :     0.000356
      dxy     :     0.000363
  6 H s       :     0.848550  s :     0.848550
      pz      :     0.021074  p :     0.042772
      px      :     0.008258
      py      :     0.013441
      dz2     :     0.000739  d :     0.002306
      dxz     :     0.000581
      dyz     :     0.000630
      dx2y2   :     0.000173
      dxy     :     0.000182
  7 C s       :     3.068645  s :     3.068645
      pz      :     0.851879  p :     2.416380
      px      :     0.679433
      py      :     0.885068
      dz2     :     0.036496  d :     0.198203
      dxz     :     0.030856
      dyz     :     0.028806
      dx2y2   :     0.040172
      dxy     :     0.061873
      f0      :     0.001280  f :     0.017168
      f+1     :     0.003343
      f-1     :     0.001694
      f+2     :     0.002440
      f-2     :     0.002880
      f+3     :     0.002423
      f-3     :     0.003109
  8 C s       :     3.183390  s :     3.183390
      pz      :     1.024086  p :     2.917600
      px      :     0.915773
      py      :     0.977741
      dz2     :     0.011821  d :     0.100825
      dxz     :     0.025207
      dyz     :     0.012538
      dx2y2   :     0.023902
      dxy     :     0.027357
      f0      :     0.000713  f :     0.008663
      f+1     :     0.001268
      f-1     :     0.000910
      f+2     :     0.001036
      f-2     :     0.001375
      f+3     :     0.001452
      f-3     :     0.001910
  9 H s       :     0.857225  s :     0.857225
      pz      :     0.010171  p :     0.042353
      px      :     0.015798
      py      :     0.016383
      dz2     :     0.000224  d :     0.002194
      dxz     :     0.000256
      dyz     :     0.000423
      dx2y2   :     0.000708
      dxy     :     0.000583
 10 H s       :     0.834187  s :     0.834187
      pz      :     0.008951  p :     0.036891
      px      :     0.013884
      py      :     0.014056
      dz2     :     0.000245  d :     0.001989
      dxz     :     0.000337
      dyz     :     0.000340
      dx2y2   :     0.000495
      dxy     :     0.000572
 11 H s       :     0.861519  s :     0.861519
      pz      :     0.016123  p :     0.039183
      px      :     0.009012
      py      :     0.014048
      dz2     :     0.000511  d :     0.002237
      dxz     :     0.000439
      dyz     :     0.000575
      dx2y2   :     0.000366
      dxy     :     0.000345
 12 H s       :     0.861116  s :     0.861116
      pz      :     0.017981  p :     0.044200
      px      :     0.017014
      py      :     0.009205
      dz2     :     0.000603  d :     0.002324
      dxz     :     0.000618
      dyz     :     0.000383
      dx2y2   :     0.000327
      dxy     :     0.000394
 13 H s       :     0.865147  s :     0.865147
      pz      :     0.020205  p :     0.045071
      px      :     0.011358
      py      :     0.013508
      dz2     :     0.000550  d :     0.002173
      dxz     :     0.000583
      dyz     :     0.000616
      dx2y2   :     0.000181
      dxy     :     0.000244
 14 O s       :     3.767043  s :     3.767043
      pz      :     1.674402  p :     4.556433
      px      :     1.305702
      py      :     1.576329
      dz2     :     0.005644  d :     0.043115
      dxz     :     0.012062
      dyz     :     0.004562
      dx2y2   :     0.010023
      dxy     :     0.010824
      f0      :     0.000245  f :     0.002256
      f+1     :     0.000377
      f-1     :     0.000127
      f+2     :     0.000382
      f-2     :     0.000285
      f+3     :     0.000467
      f-3     :     0.000373
 15 C s       :     3.122083  s :     3.122083
      pz      :     1.047463  p :     2.749735
      px      :     0.882802
      py      :     0.819470
      dz2     :     0.025071  d :     0.122855
      dxz     :     0.023230
      dyz     :     0.017837
      dx2y2   :     0.033934
      dxy     :     0.022783
      f0      :     0.001427  f :     0.009659
      f+1     :     0.000775
      f-1     :     0.000875
      f+2     :     0.000382
      f-2     :     0.001858
      f+3     :     0.002193
      f-3     :     0.002149
 16 H s       :     0.903794  s :     0.903794
      pz      :     0.009621  p :     0.032194
      px      :     0.007595
      py      :     0.014978
      dz2     :     0.000301  d :     0.002127
      dxz     :     0.000130
      dyz     :     0.000512
      dx2y2   :     0.000581
      dxy     :     0.000603
 17 H s       :     0.870153  s :     0.870153
      pz      :     0.011859  p :     0.032690
      px      :     0.013915
      py      :     0.006916
      dz2     :     0.000417  d :     0.002114
      dxz     :     0.000562
      dyz     :     0.000149
      dx2y2   :     0.000453
      dxy     :     0.000533
 18 H s       :     0.893454  s :     0.893454
      pz      :     0.019907  p :     0.032733
      px      :     0.007006
      py      :     0.005820
      dz2     :     0.000753  d :     0.002158
      dxz     :     0.000662
      dyz     :     0.000586
      dx2y2   :     0.000037
      dxy     :     0.000120
 19 C s       :     3.150883  s :     3.150883
      pz      :     0.858008  p :     2.375584
      px      :     0.790164
      py      :     0.727413
      dz2     :     0.029511  d :     0.206683
      dxz     :     0.044552
      dyz     :     0.039258
      dx2y2   :     0.059317
      dxy     :     0.034045
      f0      :     0.001504  f :     0.017331
      f+1     :     0.003103
      f-1     :     0.001204
      f+2     :     0.001770
      f-2     :     0.002939
      f+3     :     0.004353
      f-3     :     0.002458
 20 O s       :     3.841545  s :     3.841545
      pz      :     1.684401  p :     4.592779
      px      :     1.476201
      py      :     1.432176
      dz2     :     0.004271  d :     0.035388
      dxz     :     0.007813
      dyz     :     0.002527
      dx2y2   :     0.010059
      dxy     :     0.010718
      f0      :     0.000223  f :     0.002074
      f+1     :     0.000295
      f-1     :     0.000136
      f+2     :     0.000173
      f-2     :     0.000298
      f+3     :     0.000522
      f-3     :     0.000427
 21 H s       :     0.939246  s :     0.939246
      pz      :     0.018985  p :     0.034007
      px      :     0.004524
      py      :     0.010499
      dz2     :     0.000538  d :     0.002272
      dxz     :     0.000517
      dyz     :     0.000707
      dx2y2   :     0.000163
      dxy     :     0.000346


                     *******************************
                     * LOEWDIN POPULATION ANALYSIS *
                     *******************************

----------------------
LOEWDIN ATOMIC CHARGES
----------------------
   0 C :    0.059619
   1 C :    0.020385
   2 C :    0.114136
   3 C :   -0.079275
   4 H :    0.007867
   5 H :    0.012432
   6 H :    0.006762
   7 C :   -0.193220
   8 C :   -0.052496
   9 H :   -0.002111
  10 H :    0.016907
  11 H :    0.021632
  12 H :    0.007398
  13 H :    0.008699
  14 O :    0.236681
  15 C :   -0.033503
  16 H :   -0.000424
  17 H :    0.008684
  18 H :    0.002764
  19 C :   -0.196260
  20 O :    0.031373
  21 H :    0.001950

-------------------------------
LOEWDIN REDUCED ORBITAL CHARGES
-------------------------------
  0 C s       :     2.744895  s :     2.744895
      pz      :     0.943447  p :     2.809610
      px      :     0.922214
      py      :     0.943949
      dz2     :     0.029097  d :     0.354689
      dxz     :     0.096311
      dyz     :     0.079800
      dx2y2   :     0.079097
      dxy     :     0.070385
      f0      :     0.003249  f :     0.031187
      f+1     :     0.004293
      f-1     :     0.003250
      f+2     :     0.003147
      f-2     :     0.005702
      f+3     :     0.005447
      f-3     :     0.006100
  1 C s       :     2.735727  s :     2.735727
      pz      :     0.966415  p :     2.907304
      px      :     0.955765
      py      :     0.985124
      dz2     :     0.044982  d :     0.306855
      dxz     :     0.069647
      dyz     :     0.055809
      dx2y2   :     0.051493
      dxy     :     0.084924
      f0      :     0.002472  f :     0.029729
      f+1     :     0.002876
      f-1     :     0.004799
      f+2     :     0.005297
      f-2     :     0.004622
      f+3     :     0.005282
      f-3     :     0.004381
  2 C s       :     2.753882  s :     2.753882
      pz      :     0.928809  p :     2.791720
      px      :     1.013419
      py      :     0.849492
      dz2     :     0.054235  d :     0.311127
      dxz     :     0.079583
      dyz     :     0.033976
      dx2y2   :     0.048542
      dxy     :     0.094791
      f0      :     0.002248  f :     0.029135
      f+1     :     0.005642
      f-1     :     0.001871
      f+2     :     0.004409
      f-2     :     0.003621
      f+3     :     0.004435
      f-3     :     0.006909
  3 C s       :     2.742204  s :     2.742204
      pz      :     0.981474  p :     2.918519
      px      :     0.974484
      py      :     0.962561
      dz2     :     0.070755  d :     0.380585
      dxz     :     0.084381
      dyz     :     0.067347
      dx2y2   :     0.088103
      dxy     :     0.069999
      f0      :     0.003603  f :     0.037967
      f+1     :     0.006163
      f-1     :     0.003529
      f+2     :     0.005469
      f-2     :     0.006256
      f+3     :     0.006350
      f-3     :     0.006597
  4 H s       :     0.814290  s :     0.814290
      pz      :     0.057758  p :     0.150433
      px      :     0.054116
      py      :     0.038559
      dz2     :     0.006867  d :     0.027410
      dxz     :     0.007335
      dyz     :     0.004882
      dx2y2   :     0.003662
      dxy     :     0.004663
  5 H s       :     0.809719  s :     0.809719
      pz      :     0.056295  p :     0.150419
      px      :     0.040348
      py      :     0.053776
      dz2     :     0.005810  d :     0.027430
      dxz     :     0.005077
      dyz     :     0.007377
      dx2y2   :     0.004599
      dxy     :     0.004569
  6 H s       :     0.807181  s :     0.807181
      pz      :     0.070832  p :     0.157346
      px      :     0.032315
      py      :     0.054199
      dz2     :     0.009820  d :     0.028711
      dxz     :     0.006772
      dyz     :     0.008146
      dx2y2   :     0.001969
      dxy     :     0.002003
  7 C s       :     2.713552  s :     2.713552
      pz      :     0.852047  p :     2.685164
      px      :     0.831874
      py      :     1.001242
      dz2     :     0.116049  d :     0.695140
      dxz     :     0.143355
      dyz     :     0.097311
      dx2y2   :     0.166333
      dxy     :     0.172092
      f0      :     0.007557  f :     0.099364
      f+1     :     0.019456
      f-1     :     0.005792
      f+2     :     0.015456
      f-2     :     0.015960
      f+3     :     0.014238
      f-3     :     0.020906
  8 C s       :     2.722301  s :     2.722301
      pz      :     0.945561  p :     2.898803
      px      :     1.002515
      py      :     0.950727
      dz2     :     0.045967  d :     0.389363
      dxz     :     0.085843
      dyz     :     0.053147
      dx2y2   :     0.094627
      dxy     :     0.109779
      f0      :     0.003223  f :     0.042029
      f+1     :     0.006669
      f-1     :     0.003030
      f+2     :     0.004955
      f-2     :     0.005225
      f+3     :     0.007652
      f-3     :     0.011276
  9 H s       :     0.815104  s :     0.815104
      pz      :     0.044057  p :     0.158740
      px      :     0.056956
      py      :     0.057726
      dz2     :     0.002757  d :     0.028268
      dxz     :     0.003864
      dyz     :     0.005611
      dx2y2   :     0.008462
      dxy     :     0.007574
 10 H s       :     0.811123  s :     0.811123
      pz      :     0.041136  p :     0.145457
      px      :     0.049277
      py      :     0.055044
      dz2     :     0.003630  d :     0.026513
      dxz     :     0.004066
      dyz     :     0.004898
      dx2y2   :     0.006850
      dxy     :     0.007070
 11 H s       :     0.803201  s :     0.803201
      pz      :     0.061644  p :     0.147329
      px      :     0.033759
      py      :     0.051926
      dz2     :     0.007341  d :     0.027838
      dxz     :     0.004925
      dyz     :     0.007007
      dx2y2   :     0.004466
      dxy     :     0.004100
 12 H s       :     0.803587  s :     0.803587
      pz      :     0.059040  p :     0.159649
      px      :     0.059911
      py      :     0.040698
      dz2     :     0.008065  d :     0.029366
      dxz     :     0.007634
      dyz     :     0.004977
      dx2y2   :     0.003767
      dxy     :     0.004923
 13 H s       :     0.809713  s :     0.809713
      pz      :     0.066023  p :     0.153971
      px      :     0.037881
      py      :     0.050068
      dz2     :     0.008156  d :     0.027617
      dxz     :     0.006925
      dyz     :     0.007485
      dx2y2   :     0.002460
      dxy     :     0.002590
 14 O s       :     3.232299  s :     3.232299
      pz      :     1.590655  p :     4.417808
      px      :     1.316823
      py      :     1.510331
      dz2     :     0.014473  d :     0.106989
      dxz     :     0.026734
      dyz     :     0.010122
      dx2y2   :     0.027928
      dxy     :     0.027732
      f0      :     0.000485  f :     0.006223
      f+1     :     0.001059
      f-1     :     0.000327
      f+2     :     0.000907
      f-2     :     0.001173
      f+3     :     0.000997
      f-3     :     0.001274
 15 C s       :     2.718766  s :     2.718766
      pz      :     1.027330  p :     2.798154
      px      :     0.892031
      py      :     0.878793
      dz2     :     0.088030  d :     0.450802
      dxz     :     0.082747
      dyz     :     0.060174
      dx2y2   :     0.118479
      dxy     :     0.101372
      f0      :     0.008918  f :     0.065782
      f+1     :     0.004366
      f-1     :     0.006137
      f+2     :     0.005382
      f-2     :     0.013093
      f+3     :     0.015260
      f-3     :     0.012625
 16 H s       :     0.836854  s :     0.836854
      pz      :     0.041140  p :     0.136595
      px      :     0.034338
      py      :     0.061117
      dz2     :     0.004289  d :     0.026975
      dxz     :     0.001733
      dyz     :     0.007404
      dx2y2   :     0.006549
      dxy     :     0.007001
 17 H s       :     0.828392  s :     0.828392
      pz      :     0.047536  p :     0.135490
      px      :     0.056372
      py      :     0.031583
      dz2     :     0.006387  d :     0.027434
      dxz     :     0.007362
      dyz     :     0.001944
      dx2y2   :     0.005435
      dxy     :     0.006306
 18 H s       :     0.833211  s :     0.833211
      pz      :     0.073549  p :     0.136931
      px      :     0.033137
      py      :     0.030245
      dz2     :     0.009271  d :     0.027093
      dxz     :     0.008964
      dyz     :     0.007743
      dx2y2   :     0.000335
      dxy     :     0.000779
 19 C s       :     2.771740  s :     2.771740
      pz      :     0.896573  p :     2.609509
      px      :     0.951821
      py      :     0.761116
      dz2     :     0.106117  d :     0.713845
      dxz     :     0.163472
      dyz     :     0.111015
      dx2y2   :     0.182666
      dxy     :     0.150575
      f0      :     0.009333  f :     0.101165
      f+1     :     0.020763
      f-1     :     0.005864
      f+2     :     0.007391
      f-2     :     0.019718
      f+3     :     0.021861
      f-3     :     0.016235
 20 O s       :     3.408551  s :     3.408551
      pz      :     1.567368  p :     4.487293
      px      :     1.516337
      py      :     1.403588
      dz2     :     0.009024  d :     0.067238
      dxz     :     0.014308
      dyz     :     0.007369
      dx2y2   :     0.016392
      dxy     :     0.020146
      f0      :     0.000603  f :     0.005546
      f+1     :     0.000859
      f-1     :     0.000326
      f+2     :     0.000295
      f-2     :     0.001077
      f+3     :     0.001023
      f-3     :     0.001363
 21 H s       :     0.850688  s :     0.850688
      pz      :     0.063763  p :     0.124015
      px      :     0.022056
      py      :     0.038196
      dz2     :     0.006503  d :     0.023346
      dxz     :     0.005164
      dyz     :     0.007280
      dx2y2   :     0.002046
      dxy     :     0.002354


                      *****************************
                      * MAYER POPULATION ANALYSIS *
                      *****************************

  NA   - Mulliken gross atomic population
  ZA   - Total nuclear charge
  QA   - Mulliken gross atomic charge
  VA   - Mayer's total valence
  BVA  - Mayer's bonded valence
  FA   - Mayer's free valence

  ATOM       NA         ZA         QA         VA         BVA        FA
  0 C      6.1395     6.0000    -0.1395     3.9264     3.9264     0.0000
  1 C      6.2205     6.0000    -0.2205     3.8253     3.8253     0.0000
  2 C      6.0795     6.0000    -0.0795     3.9232     3.9232     0.0000
  3 C      6.1338     6.0000    -0.1338     3.5172     3.5172    -0.0000
  4 H      0.8966     1.0000     0.1034     0.9989     0.9989     0.0000
  5 H      0.8854     1.0000     0.1146     0.9958     0.9958    -0.0000
  6 H      0.8936     1.0000     0.1064     1.0286     1.0286     0.0000
  7 C      5.7004     6.0000     0.2996     3.8259     3.8259     0.0000
  8 C      6.2105     6.0000    -0.2105     3.8786     3.8786     0.0000
  9 H      0.9018     1.0000     0.0982     1.0094     1.0094    -0.0000
 10 H      0.8731     1.0000     0.1269     1.0040     1.0040    -0.0000
 11 H      0.9029     1.0000     0.0971     1.0252     1.0252     0.0000
 12 H      0.9076     1.0000     0.0924     1.0190     1.0190     0.0000
 13 H      0.9124     1.0000     0.0876     1.0109     1.0109     0.0000
 14 O      8.3688     8.0000    -0.3688     1.9422     1.9422    -0.0000
 15 C      6.0043     6.0000    -0.0043     3.8885     3.8885    -0.0000
 16 H      0.9381     1.0000     0.0619     0.9834     0.9834    -0.0000
 17 H      0.9050     1.0000     0.0950     0.9994     0.9994     0.0000
 18 H      0.9283     1.0000     0.0717     0.9976     0.9976    -0.0000
 19 C      5.7505     6.0000     0.2495     4.1144     4.1144     0.0000
 20 O      8.4718     8.0000    -0.4718     1.9807     1.9807     0.0000
 21 H      0.9755     1.0000     0.0245     0.9988     0.9988     0.0000

  Mayer bond orders larger than 0.100000
B(  0-C ,  1-C ) :   0.3473 B(  0-C ,  3-C ) :   1.4381 B(  0-C ,  4-H ) :   1.0015 
B(  0-C ,  5-H ) :   1.0097 B(  1-C ,  7-C ) :   1.4367 B(  1-C ,  9-H ) :   1.0066 
B(  1-C , 12-H ) :   1.0077 B(  2-C ,  3-C ) :   0.2304 B(  2-C ,  8-C ) :   1.6080 
B(  2-C , 10-H ) :   0.9952 B(  2-C , 13-H ) :   1.0130 B(  3-C ,  6-H ) :   0.9948 
B(  3-C , 19-C ) :   1.0157 B(  3-C , 21-H ) :  -0.1183 B(  7-C ,  8-C ) :   1.2602 
B(  7-C , 14-O ) :   1.0546 B(  8-C , 11-H ) :   1.0064 B( 14-O , 15-C ) :   0.8944 
B( 15-C , 16-H ) :   0.9955 B( 15-C , 17-H ) :   1.0029 B( 15-C , 18-H ) :   0.9993 
B( 19-C , 20-O ) :   1.9419 B( 19-C , 21-H ) :   1.0713 

-------
TIMINGS
-------

Total SCF time: 0 days 0 hours 1 min 0 sec 

Total time                  ....      60.947 sec
Sum of individual times     ....      58.003 sec  ( 95.2%)

Fock matrix formation       ....      56.854 sec  ( 93.3%)
Diagonalization             ....       0.351 sec  (  0.6%)
Density matrix formation    ....       0.022 sec  (  0.0%)
Population analysis         ....       0.041 sec  (  0.1%)
Initial guess               ....       0.152 sec  (  0.2%)
Orbital Transformation      ....       0.000 sec  (  0.0%)
Orbital Orthonormalization  ....       0.000 sec  (  0.0%)
DIIS solution               ....       0.173 sec  (  0.3%)
SOSCF solution              ....       0.334 sec  (  0.5%)

Maximum memory used throughout the entire SCF-calculation: 246.5 MB


           ************************************************************
           *        Program running with 16 parallel MPI-processes    *
           *              working on a common directory               *
           ************************************************************


--------------------------------------------------------------------------------
                             ORCA-MATRIX DRIVEN CI
--------------------------------------------------------------------------------


Wavefunction type
-----------------
Correlation treatment                      ...      CCSD     
Single excitations                         ... ON
Orbital optimization                       ... OFF
Calculation of Z vector                    ... OFF
Calculation of Brueckner orbitals          ... OFF
Perturbative triple excitations            ... ON
Calculation of F12 correction              ... OFF
Frozen core treatment                      ... chemical core (20 el)
Reference Wavefunction                     ... RHF
  Internal Orbitals:    10 ...   37 ( 28 MO's/ 56 electrons)
  Virtual  Orbitals:    38 ...  477 (440 MO's              )
Number of AO's                             ...    478
Number of electrons                        ...     76
Number of correlated electrons             ...     56

Algorithmic settings
--------------------
Integral transformation                    ... All integrals via the RI transformation
K(C) Formation                             ... RI-DLPNO
   PNO-Integral Storage                    ... ON DISK
   PNO occupation number cut-off           ... 3.330e-07
   Singles PNO occupation number cut-off   ... 9.990e-09
   PNO Mulliken prescreening cut-off       ... 1.000e-03
   Domain cut-off (Mulliken population)    ... 1.000e-03
   PNO Normalization                       ...    1
Maximum number of iterations               ...        50
Convergence tolerance (max. residuum)      ... 2.500e-05
Level shift for amplitude update           ... 2.000e-01
Maximum number of DIIS vectors             ...         7
DIIS turned on at iteration                ...         0
Damping before turning on DIIS             ...     0.500
Damping after turning on DIIS              ...     0.000
Pair specific amplitude update             ... OFF
[...]
Pair density normalization                  .... MP2 norm
Spin component scaling                      .... not used

   .... Finished loop over pairs
Making pair pair interaction lists          ... done

                       ===========================
                        269 OF  406 PAIRS ARE KEPT CCSD PAIRS
                         96 OF  406 PAIRS ARE KEPT MP2 PAIRS FOR (T)
                         41 OF  406 PAIRS ARE SKIPPED
                       ===========================

Total time spent in the initial guess                 ...     2.076 sec
SL-MP2 correlation energy (all non-screened pairs)    ...      -1.742047054642 Eh

Initial PNO correlation energy                        ...      -1.732503529951 Eh
sum of pair energies prescreened and skipped MP2 pairs...      -0.000172574602 Eh
sum of pair energies of crude MP2 skipped pairs only  ...      -0.000172574602 Eh
sum of MP2 pair energies for pairs that were not kept ...      -0.004521628847 Eh
sum of PNO error estimates for the kept pairs         ...      -0.005021895844 Eh
                                                          --------------------
sum of all corrections                                         -0.009543524691
Initial total correlation energy                               -1.742047054642
Thresholds for map construction and integral transformation for fine MP2 and CCSD(T) calculation:
   TCutMKN   ...     1.0e-03
   TCutDO    ...     1.0e-02
   TCutPairs ...     1.0e-04
   TCutCMO   ...     1.0e-03
   TCutCPAO  ...     1.0e-03

Thresholds for map construction and integral transformation for strong Triples:
   TCutMKN   ...     1.0e-02
   TCutDO    ...     2.0e-02
   TCutCMO   ...     1.0e-03
   TCutCPAO  ...     1.0e-03

Thresholds for map construction and integral transformation for weak Triples:
   TCutMKN   ...     1.0e-01
   TCutDO    ...     4.0e-02
   TCutCMO   ...     1.0e-03
   TCutCPAO  ...     1.0e-03

--------------------------------
LOCAL RI TRANSFORMATION (IAVPAO)
--------------------------------

Orbital window:      10 to 37
Number of PAOs:     478
Basis functions:    478 (182 shells)
Aux. functions:    1120 (340 shells)
Use SHARK:           on

Processing maps (0.0 sec)
Average map sizes:
   Aux shells -> MOs              27.9
   Aux shells -> PAOs            478.0
   MOs        -> AO shells       172.2
   PAOs       -> AO shells       182.0

Calculating integrals (0.5 sec, 114.050 MB)
Sorting integrals (0.1 sec, 114.037 MB)
Total time for the integral transformation: 0.6 sec
--------------------------------
INITIAL GUESS AND PNO GENERATION
--------------------------------

PNO truncation parameters                   .... 
    PAOOverlapThresh   =        1.000e-08

    TCutPairs          =        1.000e-04
    TCutPNO            =        3.330e-07
    TCutPNOSingles     =        9.990e-09
    TCutMP2Pairs       =        1.000e-05
    TCutMKN            =        1.000e-03
    TCutDO             =        1.000e-02

Pair selection                          .... not used
Type of local MP2 treatment                 .... semi-local MP2
Strategy for PNO selection                  .... occupation number selection
Pair density normalization                  .... MP2 norm
Spin component scaling                      .... not used

   .... Finished loop over pairs

 PNO Occupation Number Statistics: 
  | Av. % of trace(Dij) retained        ...  97.523052932753
  | sigma^2 in % of trace(Dij) retained ...   1.28e+01
  | Av. % of trace(Di) retained         ...  99.999023441330
  | sigma^2 in % of trace(Di) retained  ...   1.92e-07
 Distributions of % trace(Dij) recovered:
  |       >= 99.9  ...    79 ( 21.6 % of all pairs)
  |   [70.0, 80.0) ...     4 (  1.1 % of all pairs)
  |   [80.0, 90.0) ...     8 (  2.2 % of all pairs)
  |   [90.0, 99.0) ...   177 ( 48.5 % of all pairs)
  |   [99.0, 99.9) ...    97 ( 26.6 % of all pairs)
 Distributions of % trace(Di) recovered :
  |       >= 99.9  ...    28 (100.0 % of all I-pairs )

Making pair pair interaction lists          ... done

                       ===========================
                        269 OF  365 PAIRS ARE KEPT
                       ===========================

Total time spent in the initial guess                 ...    46.722 sec
SL-MP2 correlation energy (all non-screened pairs)    ...      -1.743140552587 Eh

Initial PNO correlation energy                        ...      -1.733696090691 Eh
sum of pair energies estimated for screened out pairs ...      -0.000172574602 Eh
sum of MP2 pair energies for pairs that were not kept ...      -0.004358377829 Eh
sum of PNO error estimates for the kept pairs         ...      -0.005086084067 Eh
                                                          --------------------
sum of all corrections                                         -0.009617036498
Initial total correlation energy                               -1.743313127189
Thresholds for map construction and integral transformation for fine MP2 and CCSD(T) calculation:
   TCutMKN   ...     1.0e-03
   TCutDO    ...     1.0e-02
   TCutPairs ...     1.0e-04
   TCutCMO   ...     1.0e-03
   TCutCPAO  ...     1.0e-03

Time for aux screen maps:            0.003
Time for maps after fine MP2:            0.014
-----------------------------
LOCAL RI TRANSFORMATION (IJV)
-----------------------------

Orbital window:      10 to 37
Basis functions:    478 (182 shells)
Aux. functions:    1120 (340 shells)
Use SHARK:           on

Processing maps (0.0 sec)
Average map sizes:
   Aux shells -> MOs(i)           27.2
   Aux shells -> MOs(j)           28.0
   MOs        -> AO shells       172.2

Calculating integrals (0.7 sec, 6.529 MB)
Sorting integrals (0.0 sec, 6.516 MB)
Total time for the integral transformation: 0.7 sec
--------------------------------
LOCAL RI TRANSFORMATION (VABPAO)
--------------------------------

Number of PAOs:     478
Basis functions:    478 (182 shells)
Aux. functions:    1120 (340 shells)
Use SHARK:           on

Processing maps (0.0 sec)
Average map sizes:
   Aux shells -> PAOs            478.0
   PAOs       -> AO shells       182.0

Calculating integrals (1.5 sec, 1952.391 MB)
Finished


-------------------------------------
Pair Pair Term precalculation with     
RI-(ij|mn) and (im|jn) transformation  
ON THE FLY                             
-------------------------------------

   IBatch   1 (of   2)              ... done (   32.423 sec)
   IBatch   2 (of   2)              ... done (    9.064 sec)
Total EXT                           ...          41.487 sec

---------------------
RI-PNO TRANSFORMATION
---------------------

Total Number of PNOs                   ...  9296
Average number of PNOs per pair        ...    34
Maximal number of PNOs per pair        ...    79
   #pairs with  1 -  5 PNOs   :    0
   #pairs with  6 - 10 PNOs   :    5
   #pairs with 11 - 15 PNOs   :   22
   #pairs with 16 - 20 PNOs   :   28
   #pairs with 21 - 25 PNOs   :   29
   #pairs with 26 - 30 PNOs   :   27
   #pairs with 31 - 35 PNOs   :   37
   #pairs with 36 - 40 PNOs   :   24
   #pairs with 41 - 45 PNOs   :   38
   #pairs with 46 - 50 PNOs   :   19
   #pairs with 51 - 55 PNOs   :   17
   #pairs with 56 - 60 PNOs   :   10
   #pairs with 61 - 65 PNOs   :    4
   #pairs with 66 - 70 PNOs   :    3
   #pairs with 71 - 75 PNOs   :    4
   #pairs with 76 - 80 PNOs   :    2

Generation of (ij|ab)[P] integrals            ... on
Generation of (ia|bc)[P],(ja|bc)[P] integrals ... on
Storage of 3 and 4 external integrals         ... on
Generation of ALL (ka|bc)[P] integrals        ... on
Keep RI integrals in memory                   ... off

Ibatch:  1 (of  1)
Starting 2-4 index PNO integral generation ... done

Timings:
Total PNO integral transformation time     ...         51.352 sec
Size of the 3-external file                ...       137 MB
Size of the 4-external file                ...       892 MB
Size of the IKJL file                      ...         0 MB
Size of the all 3-external file            ...      1929 MB
Size of the 1-external file                ...         5 MB

Making pair/pair overlap matrices          ... done (    1.963 sec)
Size of the pair overlap file              ... 509 MB
Redoing the guess amplitudes               ... done (    0.004 sec)

-------------------------
FINAL STARTUP INFORMATION
-------------------------

E(0)                                       ...   -459.677315792
E(SL-MP2)                                  ...     -1.743140553
E(SL-MP2) including corrections            ...     -1.743313127
Initial E(tot)                             ...   -461.420628919
<T|T>                                      ...      0.501034297
Number of pairs included                   ... 269
Total number of pairs                      ... 406

------------------------------------------------
                  RHF COUPLED CLUSTER ITERATIONS
------------------------------------------------

Number of PNO amplitudes to be optimized   ...       381250
Number of non-PNO amplitudes               ...     52078400
Untruncated number of regular amplitudes   ...     78601600

Iter       E(tot)           E(Corr)          Delta-E          Residual     Time
  0   -461.420709015     -1.733776186      0.009364366      0.019816513    5.35
                           *** Turning on DIIS ***
  1   -461.477460192     -1.790527363     -0.056751177      0.013330187    5.09
  2   -461.523474575     -1.836541746     -0.046014383      0.006415179    5.05
  3   -461.532639071     -1.845706243     -0.009164496      0.004214745    5.38
  4   -461.535662512     -1.848729683     -0.003023441      0.001961201    5.24
  5   -461.536802192     -1.849869364     -0.001139680      0.000909687    5.26
  6   -461.537124601     -1.850191772     -0.000322408      0.000469089    5.26
  7   -461.537175755     -1.850242926     -0.000051154      0.000274813    5.25
  8   -461.537205859     -1.850273030     -0.000030104      0.000145004    5.36
  9   -461.537193561     -1.850260732      0.000012298      0.000060150    5.28
 10   -461.537204186     -1.850271357     -0.000010625      0.000024309    5.10
               --- The Coupled-Cluster iterations have converged ---

----------------------
COUPLED CLUSTER ENERGY
----------------------

E(0)                                       ...   -459.677315792
E(CORR)(strong-pairs)                      ...     -1.850271357
E(CORR)(weak-pairs)                        ...     -0.009617036
E(CORR)(corrected)                         ...     -1.859888394
E(TOT)                                     ...   -461.537204186
Singles Norm <S|S>**1/2                    ...      0.098459948  
T1 diagnostic                              ...      0.013157264  

------------------
LARGEST AMPLITUDES
------------------
  36-> 38  36-> 38       0.054618
  35-> 38  35-> 38       0.054354
  15-> 38  15-> 38       0.050991
  30-> 38  30-> 38       0.049156
  20-> 38  20-> 38       0.042129
  36-> 38  35-> 38       0.042065
  29-> 39  29-> 39       0.041713
  22-> 38  22-> 38       0.040263
  20-> 39  20-> 39       0.037335
  32-> 41  32-> 41       0.033223
  37-> 42  37-> 42       0.032897
  31-> 38  31-> 38       0.032459
  33-> 38  33-> 38       0.031268
  22-> 39  22-> 39       0.031128
  17-> 38  17-> 38       0.030961
  32-> 38  32-> 38       0.030873


-------------------------------------------
DLPNO BASED TRIPLES CORRECTION
-------------------------------------------

Singles multiplier          ...  1.000000
TCutTNO                     ... 1.000e-09
TCutMP2Pairs                ... 1.000e-05
TCutDOStrong                ... 2.000e-02
TCutMKNStrong               ... 1.000e-02
TCutDOWeak                  ... 4.000e-02
TCutMKNWeak                 ... 1.000e-01

Fragment selection                          .... not used
Number of Triples that are to be computed   ...      2384

 . . . . . . . . .
10% done  
20% done  
30% done  
40% done  
50% done  
60% done  
70% done  
80% done  
90% done               (     92.876 sec)
Triples timings:
Total time for T0               ...   100.691 sec
Total time for Iterative (T)    ...     0.000 sec
Total time of overall (T)       ...   102.282 sec

Triples List generation         ...     0.000 sec
TNO generation                  ...     7.805 sec
Pair density generation         ...     0.005 sec
Look up tables                  ...     0.000 sec
Generating 3-index integrals    ...    64.319 sec
  Make 4-ind.int. from 3-ind.int...     6.952 sec
  Projecting amplitudes (D + S) ...    11.385 sec
  Downprojecting integrals      ...     0.001 sec
  Energy contr. (sum over a,b,c)...     3.008 sec
Fitting ET(->0)                 ...     0.000 sec

Everything after 3-index        ...    28.556 sec

Timing details:
 TNO integrals                  ...    70.767 sec
   Reading 3-index integrals    ...     0.368 sec
   Sorting integrals            ...     7.473 sec
       Sorting integrals 1      ...     0.001 sec
       Sorting integrals 2      ...     5.697 sec
       Sorting integrals 3      ...     0.269 sec
       Sorting integrals 4      ...     0.020 sec
       Sorting integrals 5      ...     0.076 sec
       Sorting integrals 6      ...     1.411 sec
   Calculating local VM**-1/2   ...     0.285 sec
   Orthogonal. integrals        ...     0.617 sec
   Multipl. 3-index integrals   ...    62.024 sec
   All concerning IRIab (w/TNO) ...     4.343 sec

 Calculate W0/W1                ...     7.202 sec
 W 3-ext contribution           ...     4.288 sec
 W 3-int contribution           ...     1.265 sec
 Sorting W                      ...     1.513 sec

 V exchange contribution        ...     1.366 sec

 Timings for Triples without generation
     of 3-index integrals       ...    28.555 sec
       0 weak pairs             ...    22.887 sec
       1 weak pair              ...     5.668 sec
       2 weak pairs             ...     0.000 sec
       3 weak pairs             ...     0.000 sec
  Extra time for extrapolation  ...     0.000 sec

Number of Triples   (0, 1, 2, 3 weak pairs; overall):   1570     814       0       0  (  2384)
Number of Atoms     (0, 1, 2, 3 weak pairs; overall):   15.2    12.5     0.0     0.0  (    22)
Number of PAOs      (0, 1, 2, 3 weak pairs; overall):  351.4   299.2     0.0     0.0  (   478)
Number of AuxFcns   (0, 1, 2, 3 weak pairs; overall):  437.2   347.3     0.0     0.0  (  1120)
Number of TNOs      (0, 1, 2, 3 weak pairs         ):   92.2    67.5     0.0     0.0
Aver. Number of NTNO, Atoms, PAOs, AuxFcns / Triples:   2384    83.8    14.3   333.5   406.5

Triples Correction (T)                     ...     -0.084831822
Final correlation energy                   ...     -1.944720216
E(CCSD)                                    ...   -461.537204186
E(CCSD(T))                                 ...   -461.622036008



--------------------------------------------------------------------------------
                                    TIMINGS
--------------------------------------------------------------------------------


Total execution time                   ...      326.700 sec

Localization of occupied MO's          ...        0.475 sec (  0.1%)
Fock Matrix Formation                  ...        7.957 sec (  2.4%)
Global overlap, Fock, MKN matrices     ...        0.400 sec (  0.1%)
Differential overlap integrals         ...        0.568 sec (  0.2%)
Organizing maps                        ...        0.041 sec (  0.0%)
RI 3-index integral generations        ...        3.331 sec (  1.0%)
RI-PNO integral transformation         ...      104.602 sec ( 32.0%)
Initial Guess                          ...       48.848 sec ( 15.0%)
DIIS Solver                            ...        0.240 sec (  0.1%)
State Vector Update                    ...        0.016 sec (  0.0%)
Sigma-vector construction              ...       57.358 sec ( 17.6%)
  <D|H|D>(0-ext)                       ...        1.734 sec (  3.0% of sigma)
  <D|H|D>(2-ext Fock)                  ...        0.010 sec (  0.0% of sigma)
  <D|H|D>(2-ext)                       ...        9.215 sec ( 16.1% of sigma)
  <D|H|D>(4-ext)                       ...        6.938 sec ( 12.1% of sigma)
  <D|H|D>(4-ext-corr)                  ...       27.896 sec ( 48.6% of sigma)
  CCSD doubles correction              ...        0.088 sec (  0.2% of sigma)
  <S|H|S>                              ...        0.402 sec (  0.7% of sigma)
  <S|H|D>(1-ext)                       ...        0.243 sec (  0.4% of sigma)
  <D|H|S>(1-ext)                       ...        0.005 sec (  0.0% of sigma)
  <S|H|D>(3-ext)                       ...        0.102 sec (  0.2% of sigma)
  Fock-dressing                        ...        5.352 sec (  9.3% of sigma)
  Singles amplitudes                   ...        0.672 sec (  1.2% of sigma)
  (ik|jl)-dressing                     ...        1.332 sec (  2.3% of sigma)
  (ij|ab),(ia|jb)-dressing             ...        1.661 sec (  2.9% of sigma)
  Pair energies                        ...        0.004 sec (  0.0% of sigma)
Total Time for computing (T)           ...      102.289 sec ( 31.3% of ALL)


Maximum memory used throughout the entire MDCI-calculation: 3954.5 MB

-------------------------   --------------------
FINAL SINGLE POINT ENERGY      -461.622036008459
-------------------------   --------------------


                            ***************************************
                            *     ORCA property calculations      *
                            ***************************************


  WARNING: The energy has been calculated at the MDCI level but the densities
           used in the property calculations are still SCF densities
           MDCI response densities have not been calculated 
           use %mdci Density linearized end
           or  %mdci Density unrelaxed end
           or  %mdci Density orbopt end

                                    ---------------------
                                    Active property flags
                                    ---------------------
   (+) Dipole Moment


------------------------------------------------------------------------------
                       ORCA ELECTRIC PROPERTIES CALCULATION
------------------------------------------------------------------------------

Dipole Moment Calculation                       ... on
Quadrupole Moment Calculation                   ... off
Polarizability Calculation                      ... off
GBWName                                         ... /tmp/43011/DATS_14_exo_v_DLPNO.gbw
Electron density                                ... /tmp/43011/DATS_14_exo_v_DLPNO.scfp
The origin for moment calculation is the CENTER OF MASS  = (-0.082824,  0.054146 -0.023547)

-------------
DIPOLE MOMENT
-------------
                                X             Y             Z
Electronic contribution:     -4.23504       3.25586      -1.30997
Nuclear contribution   :      6.29464      -4.11513       1.78954
                        -----------------------------------------
Total Dipole Moment    :      2.05960      -0.85927       0.47957
                        -----------------------------------------
Magnitude (a.u.)       :      2.28260
Magnitude (Debye)      :      5.80191



--------------------
Rotational spectrum 
--------------------
 
Rotational constants in cm-1:     0.101358     0.022810     0.020294 
Rotational constants in MHz :  3038.638658   683.813813   608.410528 

 Dipole components along the rotational axes: 
x,y,z [a.u.] :     2.047827     0.876942     0.497643 
x,y,z [Debye]:     5.205162     2.229010     1.264907 

 

Timings for individual modules:

Sum of individual times         ...      390.150 sec (=   6.503 min)
GTO integral calculation        ...        0.921 sec (=   0.015 min)   0.2 %
SCF iterations                  ...       61.307 sec (=   1.022 min)  15.7 %
MDCI module                     ...      327.923 sec (=   5.465 min)  84.1 %
                             ****ORCA TERMINATED NORMALLY****
TOTAL RUN TIME: 0 days 0 hours 6 minutes 30 seconds 676 msec
