Job Start Time: Fri Jun 24 13:10:20 MDT 2022
SLURM Job ID: 43005
SLURM Job Name: DATS_14_endo_iii_DLPNO
SLURM Job Nodes: node09
SLURM Memory / CPU: 8000

                                 *****************
                                 * O   R   C   A *
                                 *****************

                                            #,                                       
                                            ###                                      
                                            ####                                     
                                            #####                                    
                                            ######                                   
                                           ########,                                 
                                     ,,################,,,,,                         
                               ,,#################################,,                 
                          ,,##########################################,,             
                       ,#########################################, ''#####,          
                    ,#############################################,,   '####,        
                  ,##################################################,,,,####,       
                ,###########''''           ''''###############################       
              ,#####''   ,,,,##########,,,,          '''####'''          '####       
            ,##' ,,,,###########################,,,                        '##       
           ' ,,###''''                  '''############,,,                           
         ,,##''                                '''############,,,,        ,,,,,,###''
      ,#''                                            '''#######################'''  
     '                                                          ''''####''''         
             ,#######,   #######,   ,#######,      ##                                
            ,#'     '#,  ##    ##  ,#'     '#,    #''#        ######   ,####,        
            ##       ##  ##   ,#'  ##            #'  '#       #        #'  '#        
            ##       ##  #######   ##           ,######,      #####,   #    #        
            '#,     ,#'  ##    ##  '#,     ,#' ,#      #,         ##   #,  ,#        
             '#######'   ##     ##  '#######'  #'      '#     #####' # '####'        



                  #######################################################
                  #                        -***-                        #
                  #          Department of theory and spectroscopy      #
                  #    Directorship and core code : Frank Neese         #
                  #        Max Planck Institute fuer Kohlenforschung    #
                  #                Kaiser Wilhelm Platz 1               #
                  #                 D-45470 Muelheim/Ruhr               #
                  #                      Germany                        #
                  #                                                     #
                  #                  All rights reserved                #
                  #                        -***-                        #
                  #######################################################


                         Program Version 5.0.3 -  RELEASE  -


 With contributions from (in alphabetic order):
   Daniel Aravena         : Magnetic Suceptibility
   Michael Atanasov       : Ab Initio Ligand Field Theory (pilot matlab implementation)
   Alexander A. Auer      : GIAO ZORA, VPT2 properties, NMR spectrum
   Ute Becker             : Parallelization
   Giovanni Bistoni       : ED, misc. LED, open-shell LED, HFLD
   Martin Brehm           : Molecular dynamics
   Dmytro Bykov           : SCF Hessian
   Vijay G. Chilkuri      : MRCI spin determinant printing, contributions to CSF-ICE
   Dipayan Datta          : RHF DLPNO-CCSD density
   Achintya Kumar Dutta   : EOM-CC, STEOM-CC
   Dmitry Ganyushin       : Spin-Orbit,Spin-Spin,Magnetic field MRCI
   Miquel Garcia          : C-PCM and meta-GGA Hessian, CC/C-PCM, Gaussian charge scheme
   Yang Guo               : DLPNO-NEVPT2, F12-NEVPT2, CIM, IAO-localization
   Andreas Hansen         : Spin unrestricted coupled pair/coupled cluster methods
   Benjamin Helmich-Paris : MC-RPA, TRAH-SCF, COSX integrals
   Lee Huntington         : MR-EOM, pCC
   Robert Izsak           : Overlap fitted RIJCOSX, COSX-SCS-MP3, EOM
   Marcus Kettner         : VPT2
   Christian Kollmar      : KDIIS, OOCD, Brueckner-CCSD(T), CCSD density, CASPT2, CASPT2-K
   Simone Kossmann        : Meta GGA functionals, TD-DFT gradient, OOMP2, MP2 Hessian
   Martin Krupicka        : Initial AUTO-CI
   Lucas Lang             : DCDCAS
   Marvin Lechner         : AUTO-CI (C++ implementation), FIC-MRCC
   Dagmar Lenk            : GEPOL surface, SMD
   Dimitrios Liakos       : Extrapolation schemes; Compound Job, initial MDCI parallelization
   Dimitrios Manganas     : Further ROCIS development; embedding schemes
   Dimitrios Pantazis     : SARC Basis sets
   Anastasios Papadopoulos: AUTO-CI, single reference methods and gradients
   Taras Petrenko         : DFT Hessian,TD-DFT gradient, ASA, ECA, R-Raman, ABS, FL, XAS/XES, NRVS
   Peter Pinski           : DLPNO-MP2, DLPNO-MP2 Gradient
   Christoph Reimann      : Effective Core Potentials
   Marius Retegan         : Local ZFS, SOC
   Christoph Riplinger    : Optimizer, TS searches, QM/MM, DLPNO-CCSD(T), (RO)-DLPNO pert. Triples
   Tobias Risthaus        : Range-separated hybrids, TD-DFT gradient, RPA, STAB
   Michael Roemelt        : Original ROCIS implementation
   Masaaki Saitow         : Open-shell DLPNO-CCSD energy and density
   Barbara Sandhoefer     : DKH picture change effects
   Avijit Sen             : IP-ROCIS
   Kantharuban Sivalingam : CASSCF convergence, NEVPT2, FIC-MRCI
   Bernardo de Souza      : ESD, SOC TD-DFT
   Georgi Stoychev        : AutoAux, RI-MP2 NMR, DLPNO-MP2 response
   Willem Van den Heuvel  : Paramagnetic NMR
   Boris Wezisla          : Elementary symmetry handling
   Frank Wennmohs         : Technical directorship


 We gratefully acknowledge several colleagues who have allowed us to
 interface, adapt or use parts of their codes:
   Stefan Grimme, W. Hujo, H. Kruse, P. Pracht,  : VdW corrections, initial TS optimization,
                  C. Bannwarth, S. Ehlert          DFT functionals, gCP, sTDA/sTD-DF
   Ed Valeev, F. Pavosevic, A. Kumar             : LibInt (2-el integral package), F12 methods
   Garnet Chan, S. Sharma, J. Yang, R. Olivares  : DMRG
   Ulf Ekstrom                                   : XCFun DFT Library
   Mihaly Kallay                                 : mrcc  (arbitrary order and MRCC methods)
   Jiri Pittner, Ondrej Demel                    : Mk-CCSD
   Frank Weinhold                                : gennbo (NPA and NBO analysis)
   Christopher J. Cramer and Donald G. Truhlar   : smd solvation model
   Lars Goerigk                                  : TD-DFT with DH, B97 family of functionals
   V. Asgeirsson, H. Jonsson                     : NEB implementation
   FAccTs GmbH                                   : IRC, NEB, NEB-TS, DLPNO-Multilevel, CI-OPT
                                                   MM, QMMM, 2- and 3-layer-ONIOM, Crystal-QMMM,
                                                   LR-CPCM, SF, NACMEs, symmetry and pop. for TD-DFT,
                                                   nearIR, NL-DFT gradient (VV10), updates on ESD,
                                                   ML-optimized integration grids
   S Lehtola, MJT Oliveira, MAL Marques          : LibXC Library
   Liviu Ungur et al                             : ANISO software


 Your calculation uses the libint2 library for the computation of 2-el integrals
 For citations please refer to: http://libint.valeyev.net

 Your ORCA version has been built with support for libXC version: 5.1.0
 For citations please refer to: https://tddft.org/programs/libxc/

 This ORCA versions uses:
   CBLAS   interface :  Fast vector & matrix operations
   LAPACKE interface :  Fast linear algebra routines
   SCALAPACK package :  Parallel linear algebra routines
   Shared memory     :  Shared parallel matrices
   BLAS/LAPACK       :  OpenBLAS 0.3.15  USE64BITINT DYNAMIC_ARCH NO_AFFINITY Zen SINGLE_THREADED
        Core in use  :  Zen
   Copyright (c) 2011-2014, The OpenBLAS Project


================================================================================

----- Orbital basis set information -----
Your calculation utilizes the basis: def2-TZVPP
   F. Weigend and R. Ahlrichs, Phys. Chem. Chem. Phys. 7, 3297 (2005).

----- AuxC basis set information -----
Your calculation utilizes the auxiliary basis: def2-TZVPP/C
  H-La, Hf-Rn : A. Hellweg, C. Hattig, S. Hofener and W. Klopper, Theor. Chem. Acc. 117, 587 (2007).
        Ce-Lu : J. Chmela and M. E. Harding, Mol. Phys. (2018).

================================================================================
                                        WARNINGS
                       Please study these warnings very carefully!
================================================================================


WARNING: Post HF methods need fully converged wavefunctions
  ===> : Setting SCFConvForced true
         You can overwrite this default with %scf ConvForced false 


WARNING: MDCI localization with Augmented Hessian Foster-Boys
  ===> : Switching off randomization!

INFO   : the flag for use of the SHARK integral package has been found!

================================================================================
                                       INPUT FILE
================================================================================
NAME = /tmp/43005/DATS_14_endo_iii_DLPNO.inp
|  1> # DATS_14_endo_iii_DLPNO
|  2> %maxcore 4000
|  3> %pal nprocs 16 end
|  4> ! pal16 DLPNO-CCSD(T) def2-tzvpp def2-tzvpp/C
|  5> 
|  6> * xyz 0 1
|  7>  C   0.84811400   1.51012100  -0.84650000
|  8>  C  -0.93268200   1.67789500   0.32694700
|  9>  C   0.58663000  -0.32526100   1.66739700
| 10>  C   1.82040000   0.75286600  -0.21829100
| 11>  H   0.33142600   1.08999300  -1.70630900
| 12>  H   0.93459800   2.59213300  -0.85330100
| 13>  H   2.55829100   1.21221500   0.43375200
| 14>  C  -1.35392900   0.36308500   0.37926800
| 15>  C  -0.58438100  -0.63286000   1.03862400
| 16>  H  -1.53496000   2.37557300  -0.24616300
| 17>  H   1.23905600  -1.11328400   2.02918300
| 18>  H  -0.81666700  -1.67884800   0.87007500
| 19>  H  -0.37850700   2.09488500   1.15680200
| 20>  H   0.80724700   0.67162300   2.02615700
| 21>  O  -2.39467700   0.05300700  -0.43987800
| 22>  C  -2.70849800  -1.30699700  -0.65679700
| 23>  H  -2.99278200  -1.80750000   0.27588600
| 24>  H  -3.55822700  -1.31107400  -1.33909300
| 25>  H  -1.87059700  -1.84455200  -1.11686600
| 26>  C   2.08908500  -0.61800300  -0.65100800
| 27>  O   3.07002100  -1.27373500  -0.36786100
| 28>  H   1.28993900  -1.04041600  -1.30605200
| 29> **                         ****END OF INPUT****
================================================================================

                       ****************************
                       * Single Point Calculation *
                       ****************************

---------------------------------
CARTESIAN COORDINATES (ANGSTROEM)
---------------------------------
  C      0.848114    1.510121   -0.846500
  C     -0.932682    1.677895    0.326947
  C      0.586630   -0.325261    1.667397
  C      1.820400    0.752866   -0.218291
  H      0.331426    1.089993   -1.706309
  H      0.934598    2.592133   -0.853301
  H      2.558291    1.212215    0.433752
  C     -1.353929    0.363085    0.379268
  C     -0.584381   -0.632860    1.038624
  H     -1.534960    2.375573   -0.246163
  H      1.239056   -1.113284    2.029183
  H     -0.816667   -1.678848    0.870075
  H     -0.378507    2.094885    1.156802
  H      0.807247    0.671623    2.026157
  O     -2.394677    0.053007   -0.439878
  C     -2.708498   -1.306997   -0.656797
  H     -2.992782   -1.807500    0.275886
  H     -3.558227   -1.311074   -1.339093
  H     -1.870597   -1.844552   -1.116866
  C      2.089085   -0.618003   -0.651008
  O      3.070021   -1.273735   -0.367861
  H      1.289939   -1.040416   -1.306052

----------------------------
CARTESIAN COORDINATES (A.U.)
----------------------------
  NO LB      ZA    FRAG     MASS         X           Y           Z
   0 C     6.0000    0    12.011    1.602703    2.853715   -1.599653
   1 C     6.0000    0    12.011   -1.762514    3.170762    0.617840
   2 C     6.0000    0    12.011    1.108570   -0.614654    3.150924
   3 C     6.0000    0    12.011    3.440057    1.422711   -0.412510
   4 H     1.0000    0     1.008    0.626304    2.059788   -3.224457
   5 H     1.0000    0     1.008    1.766134    4.898421   -1.612505
   6 H     1.0000    0     1.008    4.834469    2.290754    0.819672
   7 C     6.0000    0    12.011   -2.558555    0.686131    0.716713
   8 C     6.0000    0    12.011   -1.104320   -1.195932    1.962715
   9 H     1.0000    0     1.008   -2.900654    4.489182   -0.465181
  10 H     1.0000    0     1.008    2.341477   -2.103802    3.834600
  11 H     1.0000    0     1.008   -1.543277   -3.172563    1.644203
  12 H     1.0000    0     1.008   -0.715275    3.958759    2.186039
  13 H     1.0000    0     1.008    1.525476    1.269184    3.828882
  14 O     8.0000    0    15.999   -4.525284    0.100169   -0.831249
  15 C     6.0000    0    12.011   -5.118319   -2.469866   -1.241166
  16 H     1.0000    0     1.008   -5.655538   -3.415680    0.521349
  17 H     1.0000    0     1.008   -6.724075   -2.477571   -2.530519
  18 H     1.0000    0     1.008   -3.534916   -3.485698   -2.110571
  19 C     6.0000    0    12.011    3.947799   -1.167856   -1.230227
  20 O     8.0000    0    15.999    5.801499   -2.407010   -0.695157
  21 H     1.0000    0     1.008    2.437631   -1.966101   -2.468081

--------------------------------
INTERNAL COORDINATES (ANGSTROEM)
--------------------------------
 C      0   0   0     0.000000000000     0.00000000     0.00000000
 C      1   0   0     2.139242943310     0.00000000     0.00000000
 C      2   1   0     2.849166389697    76.05631081     0.00000000
 C      1   2   3     1.383264887323   112.26771235   349.13582152
 H      1   2   3     1.087541053114    93.92647109   112.47836134
 H      1   2   3     1.085484087401    89.51780304   227.21159873
 H      4   1   2     1.086574758372   121.22722140   269.52699389
 C      2   1   3     1.381633764118   101.53359372   307.01429193
 C      3   2   1     1.364272477349    58.93415248   247.38487930
 H      2   1   3     1.085333337306   102.86790116   184.95151903
 H      3   2   1     1.085140103305   171.12495053   335.71435788
 H      9   3   2     1.084645770444   118.22088286   166.76689066
 H      2   1   3     1.081503542181    91.40872128    67.64096637
 H      3   2   1     1.082200678130    67.48242535    89.49538290
 O      8   2   1     1.360259142555   115.30267364   256.73517658
 C     15   8   2     1.412497204464   118.81296314   167.11958458
 H     16  15   8     1.096001014668   111.50810529    61.68896001
 H     16  15   8     1.089763197665   105.84228329   180.32435028
 H     16  15   8     1.096679966347   111.50764465   299.13599200
 C      4   1   2     1.462435450362   120.52570657   104.25493623
 O     20   4   1     1.213421656115   125.87670096   164.43092225
 H     20   4   1     1.116310760416   113.37882387   345.09457553

---------------------------
INTERNAL COORDINATES (A.U.)
---------------------------
 C      0   0   0     0.000000000000     0.00000000     0.00000000
 C      1   0   0     4.042583296779     0.00000000     0.00000000
 C      2   1   0     5.384144186501    76.05631081     0.00000000
 C      1   2   3     2.613991807711   112.26771235   349.13582152
 H      1   2   3     2.055154749782    93.92647109   112.47836134
 H      1   2   3     2.051267647918    89.51780304   227.21159873
 H      4   1   2     2.053328717355   121.22722140   269.52699389
 C      2   1   3     2.610909431561   101.53359372   307.01429193
 C      3   2   1     2.578101354235    58.93415248   247.38487930
 H      2   1   3     2.050982771523   102.86790116   184.95151903
 H      3   2   1     2.050617612182   171.12495053   335.71435788
 H      9   3   2     2.049683458454   118.22088286   166.76689066
 H      2   1   3     2.043745507588    91.40872128    67.64096637
 H      3   2   1     2.045062903610    67.48242535    89.49538290
 O      8   2   1     2.570517250591   115.30267364   256.73517658
 C     15   8   2     2.669232881366   118.81296314   167.11958458
 H     16  15   8     2.071141760223   111.50810529    61.68896001
 H     16  15   8     2.059353994414   105.84228329   180.32435028
 H     16  15   8     2.072424792954   111.50764465   299.13599200
 C      4   1   2     2.763602489722   120.52570657   104.25493623
 O     20   4   1     2.293034615027   125.87670096   164.43092225
 H     20   4   1     2.109521617536   113.37882387   345.09457553

---------------------
BASIS SET INFORMATION
---------------------
There are 3 groups of distinct atoms

 Group   1 Type C   : 11s6p2d1f contracted to 5s3p2d1f pattern {62111/411/11/1}
 Group   2 Type H   : 5s2p1d contracted to 3s2p1d pattern {311/11/1}
 Group   3 Type O   : 11s6p2d1f contracted to 5s3p2d1f pattern {62111/411/11/1}

Atom   0C    basis set group =>   1
Atom   1C    basis set group =>   1
Atom   2C    basis set group =>   1
Atom   3C    basis set group =>   1
Atom   4H    basis set group =>   2
Atom   5H    basis set group =>   2
Atom   6H    basis set group =>   2
Atom   7C    basis set group =>   1
Atom   8C    basis set group =>   1
Atom   9H    basis set group =>   2
Atom  10H    basis set group =>   2
Atom  11H    basis set group =>   2
Atom  12H    basis set group =>   2
Atom  13H    basis set group =>   2
Atom  14O    basis set group =>   3
Atom  15C    basis set group =>   1
Atom  16H    basis set group =>   2
Atom  17H    basis set group =>   2
Atom  18H    basis set group =>   2
Atom  19C    basis set group =>   1
Atom  20O    basis set group =>   3
Atom  21H    basis set group =>   2
---------------------------------
AUXILIARY/C BASIS SET INFORMATION
---------------------------------
There are 3 groups of distinct atoms

 Group   1 Type C   : 8s6p5d3f1g contracted to 8s6p4d3f1g pattern {11111111/111111/2111/111/1}
 Group   2 Type H   : 4s3p2d1f contracted to 4s3p2d1f pattern {1111/111/11/1}
 Group   3 Type O   : 8s6p5d3f1g contracted to 8s6p4d3f1g pattern {11111111/111111/2111/111/1}

Atom   0C    basis set group =>   1
Atom   1C    basis set group =>   1
Atom   2C    basis set group =>   1
Atom   3C    basis set group =>   1
Atom   4H    basis set group =>   2
Atom   5H    basis set group =>   2
Atom   6H    basis set group =>   2
Atom   7C    basis set group =>   1
Atom   8C    basis set group =>   1
Atom   9H    basis set group =>   2
Atom  10H    basis set group =>   2
Atom  11H    basis set group =>   2
Atom  12H    basis set group =>   2
Atom  13H    basis set group =>   2
Atom  14O    basis set group =>   3
Atom  15C    basis set group =>   1
Atom  16H    basis set group =>   2
Atom  17H    basis set group =>   2
Atom  18H    basis set group =>   2
Atom  19C    basis set group =>   1
Atom  20O    basis set group =>   3
Atom  21H    basis set group =>   2


           ************************************************************
           *        Program running with 16 parallel MPI-processes    *
           *              working on a common directory               *
           ************************************************************
------------------------------------------------------------------------------
                           ORCA GTO INTEGRAL CALCULATION
------------------------------------------------------------------------------
------------------------------------------------------------------------------
                   ___                                                        
                  /   \      - P O W E R E D   B Y -                         
                 /     \                                                     
                 |  |  |   _    _      __       _____    __    __             
                 |  |  |  | |  | |    /  \     |  _  \  |  |  /  |          
                  \  \/   | |  | |   /    \    | | | |  |  | /  /          
                 / \  \   | |__| |  /  /\  \   | |_| |  |  |/  /          
                |  |  |   |  __  | /  /__\  \  |    /   |      \           
                |  |  |   | |  | | |   __   |  |    \   |  |\   \          
                \     /   | |  | | |  |  |  |  | |\  \  |  | \   \       
                 \___/    |_|  |_| |__|  |__|  |_| \__\ |__|  \__/        
                                                                              
                      - O R C A' S   B I G   F R I E N D -                    
                                      &                                       
                       - I N T E G R A L  F E E D E R -                       
                                                                              
 v1 FN, 2020, v2 2021                                                         
------------------------------------------------------------------------------


Reading SHARK input file /tmp/43005/DATS_14_endo_iii_DLPNO.SHARKINP.tmp ... ok
----------------------
SHARK INTEGRAL PACKAGE
----------------------

Number of atoms                             ...     22
Number of basis functions                   ...    478
Number of shells                            ...    182
Maximum angular momentum                    ...      3
Integral batch strategy                     ... SHARK/LIBINT Hybrid
RI-J (if used) integral strategy            ... SPLIT-RIJ (Revised 2003 algorithm where possible)
Printlevel                                  ...      1
Contraction scheme used                     ... SEGMENTED contraction
Coulomb Range Separation                    ... NOT USED
Exchange Range Separation                   ... NOT USED
Finite Nucleus Model                        ... NOT USED
Auxiliary Coulomb fitting basis             ... NOT available
Auxiliary J/K fitting basis                 ... NOT available
Auxiliary Correlation fitting basis         ... AVAILABLE
   # of basis functions in Aux-C            ...   1120
   # of shells in Aux-C                     ...    340
   Maximum angular momentum in Aux-C        ...      4
Auxiliary 'external' fitting basis          ... NOT available
Integral threshold                          ...     1.000000e-10
Primitive cut-off                           ...     1.000000e-11
Primitive pair pre-selection threshold      ...     1.000000e-11

Calculating pre-screening integrals         ... done (  0.0 sec) Dimension = 182
Organizing shell pair data                  ... done (  0.2 sec)
Shell pair information
Total number of shell pairs                 ...     16653
Shell pairs after pre-screening             ...     14413
Total number of primitive shell pairs       ...     44212
Primitive shell pairs kept                  ...     28545
          la=0 lb=0:   3194 shell pairs
          la=1 lb=0:   4091 shell pairs
          la=1 lb=1:   1349 shell pairs
          la=2 lb=0:   2285 shell pairs
          la=2 lb=1:   1503 shell pairs
          la=2 lb=2:    437 shell pairs
          la=3 lb=0:    743 shell pairs
          la=3 lb=1:    486 shell pairs
          la=3 lb=2:    275 shell pairs
          la=3 lb=3:     50 shell pairs

Calculating one electron integrals          ... done (  0.0 sec)
Calculating RI/C V-Matrix + Cholesky decomp.... done (  0.2 sec)
Calculating Nuclear repulsion               ... done (  0.0 sec) ENN=    526.251584957547 Eh

SHARK setup successfully completed in   0.6 seconds

Maximum memory used throughout the entire GTOINT-calculation: 26.6 MB


           ************************************************************
           *        Program running with 16 parallel MPI-processes    *
           *              working on a common directory               *
           ************************************************************
-------------------------------------------------------------------------------
                                 ORCA SCF
-------------------------------------------------------------------------------

------------
SCF SETTINGS
------------
Hamiltonian:
 Ab initio Hamiltonian  Method          .... Hartree-Fock(GTOs)


General Settings:
 Integral files         IntName         .... /tmp/43005/DATS_14_endo_iii_DLPNO
 Hartree-Fock type      HFTyp           .... RHF
 Total Charge           Charge          ....    0
 Multiplicity           Mult            ....    1
 Number of Electrons    NEL             ....   76
 Basis Dimension        Dim             ....  478
 Nuclear Repulsion      ENuc            ....    526.2515849575 Eh

Convergence Acceleration:
 DIIS                   CNVDIIS         .... on
   Start iteration      DIISMaxIt       ....    12
   Startup error        DIISStart       ....  0.200000
   # of expansion vecs  DIISMaxEq       ....     5
   Bias factor          DIISBfac        ....   1.050
   Max. coefficient     DIISMaxC        ....  10.000
 Trust-Rad. Augm. Hess. CNVTRAH         .... auto
   Auto Start mean grad. ratio tolernc. ....  1.125000
   Auto Start start iteration           ....    20
   Auto Start num. interpolation iter.  ....    10
   Max. Number of Micro iterations      ....    16
   Max. Number of Macro iterations      .... Maxiter - #DIIS iter
   Number of Davidson start vectors     ....     2
   Converg. threshold I  (grad. norm)   ....   5.000e-05
   Converg. threshold II (energy diff.) ....   1.000e-06
   Grad. Scal. Fac. for Micro threshold ....   0.100
   Minimum threshold for Micro iter.    ....   0.010
   NR start threshold (gradient norm)   ....   0.001
   Initial trust radius                 ....   0.400
   Minimum AH scaling param. (alpha)    ....   1.000
   Maximum AH scaling param. (alpha)    .... 1000.000
   Orbital update algorithm             .... Taylor
   White noise on init. David. guess    .... on
   Maximum white noise                  ....   0.010
   Quad. conv. algorithm                .... NR
 SOSCF                  CNVSOSCF        .... on
   Start iteration      SOSCFMaxIt      ....   150
   Startup grad/error   SOSCFStart      ....  0.003300
 Level Shifting         CNVShift        .... on
   Level shift para.    LevelShift      ....    0.2500
   Turn off err/grad.   ShiftErr        ....    0.0010
 Zerner damping         CNVZerner       .... off
 Static damping         CNVDamp         .... on
   Fraction old density DampFac         ....    0.7000
   Max. Damping (<1)    DampMax         ....    0.9800
   Min. Damping (>=0)   DampMin         ....    0.0000
   Turn off err/grad.   DampErr         ....    0.1000
 Fernandez-Rico         CNVRico         .... off

SCF Procedure:
 Maximum # iterations   MaxIter         ....   125
 SCF integral mode      SCFMode         .... Direct
   Integral package                     .... SHARK and LIBINT hybrid scheme
 Reset frequency        DirectResetFreq ....    20
 Integral Threshold     Thresh          ....  1.000e-10 Eh
 Primitive CutOff       TCut            ....  1.000e-11 Eh

Convergence Tolerance:
 Convergence Check Mode ConvCheckMode   .... Total+1el-Energy
 Convergence forced     ConvForced      .... 1
 Energy Change          TolE            ....  1.000e-06 Eh
 1-El. energy change                    ....  1.000e-03 Eh
 Orbital Gradient       TolG            ....  5.000e-05
 Orbital Rotation angle TolX            ....  5.000e-05
 DIIS Error             TolErr          ....  1.000e-06


Diagonalization of the overlap matrix:
Smallest eigenvalue                        ... 5.422e-05
Time for diagonalization                   ...    0.029 sec
Threshold for overlap eigenvalues          ... 1.000e-08
Number of eigenvalues below threshold      ... 0
Time for construction of square roots      ...    0.025 sec
Total time needed                          ...    0.055 sec

Time for model grid setup =    0.078 sec

------------------------------
INITIAL GUESS: MODEL POTENTIAL
------------------------------
Loading Hartree-Fock densities                     ... done
Calculating cut-offs                               ... done
Initializing the effective Hamiltonian             ... done
Setting up the integral package (SHARK)            ... done
Starting the Coulomb interaction                   ... done (   0.1 sec)
Reading the grid                                   ... done
Mapping shells                                     ... done
Starting the XC term evaluation                    ... done (   0.0 sec)
Transforming the Hamiltonian                       ... done (   0.0 sec)
Diagonalizing the Hamiltonian                      ... done (   0.2 sec)
Back transforming the eigenvectors                 ... done (   0.0 sec)
Now organizing SCF variables                       ... done
                      ------------------
                      INITIAL GUESS DONE (   0.4 sec)
                      ------------------
--------------
SCF ITERATIONS
--------------
ITER       Energy         Delta-E        Max-DP      RMS-DP      [F,P]     Damp
               ***  Starting incremental Fock matrix formation  ***
  0   -459.2398202132   0.000000000000 0.10445227  0.00071148  0.3008451 0.7000
  1   -459.3890921174  -0.149271904221 0.10116286  0.00060138  0.2203440 0.7000
                               ***Turning on DIIS***
  2   -459.4813950538  -0.092302936357 0.05377553  0.00038165  0.1628299 0.7000
  3   -460.6308336528  -1.149438599022 0.00955587  0.00021568  0.1205757 0.7000
  4   -460.4817602464   0.149073406442 0.02664985  0.00052564  0.0847587 0.0000
  5   -459.7095658418   0.772194404542 0.01768723  0.00010561  0.0043715 0.0000
                      *** Initiating the SOSCF procedure ***
                           *** Shutting down DIIS ***
                      *** Re-Reading the Fockian *** 
                      *** Removing any level shift *** 
ITER      Energy       Delta-E        Grad      Rot      Max-DP    RMS-DP
  6   -459.68180487   0.0277609685  0.003204  0.003204  0.014663  0.000074
               *** Restarting incremental Fock matrix formation ***
  7   -459.67874678   0.0030580942  0.002102  0.005144  0.006163  0.000040
  8   -459.67882185  -0.0000750727  0.000997  0.007096  0.014316  0.000071
  9   -459.67886090  -0.0000390513  0.000261  0.000490  0.002503  0.000015
 10   -459.67886474  -0.0000038364  0.000110  0.000337  0.000606  0.000006
                 **** Energy Check signals convergence ****
              ***Rediagonalizing the Fockian in SOSCF/NRSCF***

               *****************************************************
               *                     SUCCESS                       *
               *           SCF CONVERGED AFTER  11 CYCLES          *
               *****************************************************


----------------
TOTAL SCF ENERGY
----------------

Total Energy       :         -459.67886541 Eh          -12508.49785 eV

Components:
Nuclear Repulsion  :          526.25158496 Eh           14320.03364 eV
Electronic Energy  :         -985.93045037 Eh          -26828.53149 eV
One Electron Energy:        -1669.30282755 Eh          -45424.03925 eV
Two Electron Energy:          683.37237718 Eh           18595.50776 eV

Virial components:
Potential Energy   :         -918.82349343 Eh          -25002.45836 eV
Kinetic Energy     :          459.14462802 Eh           12493.96051 eV
Virial Ratio       :            2.00116355


---------------
SCF CONVERGENCE
---------------

  Last Energy change         ...   -6.7348e-07  Tolerance :   1.0000e-06
  Last MAX-Density change    ...    3.1705e-04  Tolerance :   1.0000e-05
  Last RMS-Density change    ...    2.5998e-06  Tolerance :   1.0000e-06
  Last Orbital Gradient      ...    7.8261e-05  Tolerance :   5.0000e-05
  Last Orbital Rotation      ...    3.6279e-04  Tolerance :   5.0000e-05

             **** THE GBW FILE WAS UPDATED (/tmp/43005/DATS_14_endo_iii_DLPNO.gbw) ****
             **** DENSITY /tmp/43005/DATS_14_endo_iii_DLPNO.scfp WAS UPDATED ****
             **** ENERGY FILE WAS UPDATED (/tmp/43005/DATS_14_endo_iii_DLPNO.en.tmp) ****
             **** THE GBW FILE WAS UPDATED (/tmp/43005/DATS_14_endo_iii_DLPNO.gbw) ****
             **** DENSITY /tmp/43005/DATS_14_endo_iii_DLPNO.scfp WAS UPDATED ****
----------------
ORBITAL ENERGIES
----------------

  NO   OCC          E(Eh)            E(eV) 
   0   2.0000     -20.597589      -560.4889 
   1   2.0000     -20.517031      -558.2968 
   2   2.0000     -11.316282      -307.9317 
   3   2.0000     -11.310222      -307.7668 
   4   2.0000     -11.295078      -307.3547 
   5   2.0000     -11.266319      -306.5721 
   6   2.0000     -11.262693      -306.4735 
   7   2.0000     -11.243508      -305.9514 
   8   2.0000     -11.238984      -305.8283 
   9   2.0000     -11.224044      -305.4218 
  10   2.0000      -1.426356       -38.8131 
  11   2.0000      -1.358725       -36.9728 
  12   2.0000      -1.117281       -30.4027 
  13   2.0000      -1.055099       -28.7107 
  14   2.0000      -1.021758       -27.8034 
  15   2.0000      -0.943048       -25.6617 
  16   2.0000      -0.878288       -23.8994 
  17   2.0000      -0.864869       -23.5343 
  18   2.0000      -0.767006       -20.8713 
  19   2.0000      -0.744067       -20.2471 
  20   2.0000      -0.713815       -19.4239 
  21   2.0000      -0.683189       -18.5905 
  22   2.0000      -0.668420       -18.1886 
  23   2.0000      -0.642419       -17.4811 
  24   2.0000      -0.638866       -17.3844 
  25   2.0000      -0.607033       -16.5182 
  26   2.0000      -0.590190       -16.0599 
  27   2.0000      -0.576766       -15.6946 
  28   2.0000      -0.570070       -15.5124 
  29   2.0000      -0.555240       -15.1088 
  30   2.0000      -0.541868       -14.7450 
  31   2.0000      -0.529345       -14.4042 
  32   2.0000      -0.516437       -14.0530 
  33   2.0000      -0.500066       -13.6075 
  34   2.0000      -0.451067       -12.2742 
  35   2.0000      -0.400763       -10.9053 
  36   2.0000      -0.354966        -9.6591 
  37   2.0000      -0.290534        -7.9058 
  38   0.0000       0.072027         1.9600 
  39   0.0000       0.118990         3.2379 
  40   0.0000       0.128567         3.4985 
  41   0.0000       0.141947         3.8626 
  42   0.0000       0.159389         4.3372 
  43   0.0000       0.176420         4.8006 
  44   0.0000       0.180918         4.9230 
  45   0.0000       0.189711         5.1623 
  46   0.0000       0.193906         5.2764 
  47   0.0000       0.203231         5.5302 
  48   0.0000       0.212958         5.7949 
  49   0.0000       0.217125         5.9083 
  50   0.0000       0.222517         6.0550 
  51   0.0000       0.242190         6.5903 
  52   0.0000       0.254500         6.9253 
  53   0.0000       0.263414         7.1679 
  54   0.0000       0.277906         7.5622 
  55   0.0000       0.290930         7.9166 
  56   0.0000       0.303122         8.2484 
  57   0.0000       0.305879         8.3234 
  58   0.0000       0.318615         8.6699 
  59   0.0000       0.325659         8.8616 
  60   0.0000       0.327487         8.9114 
  61   0.0000       0.341346         9.2885 
  62   0.0000       0.350952         9.5499 
  63   0.0000       0.380269        10.3477 
  64   0.0000       0.389710        10.6046 
  65   0.0000       0.391765        10.6605 
  66   0.0000       0.415164        11.2972 
  67   0.0000       0.423212        11.5162 
  68   0.0000       0.436455        11.8766 
  69   0.0000       0.452445        12.3117 
  70   0.0000       0.457614        12.4523 
  71   0.0000       0.466599        12.6968 
  72   0.0000       0.477183        12.9848 
  73   0.0000       0.479650        13.0519 
  74   0.0000       0.499567        13.5939 
  75   0.0000       0.506041        13.7701 
  76   0.0000       0.517776        14.0894 
  77   0.0000       0.523561        14.2468 
  78   0.0000       0.538212        14.6455 
  79   0.0000       0.549594        14.9552 
  80   0.0000       0.558654        15.2017 
  81   0.0000       0.563410        15.3312 
  82   0.0000       0.572509        15.5788 
  83   0.0000       0.581090        15.8123 
  84   0.0000       0.583347        15.8737 
  85   0.0000       0.598604        16.2888 
  86   0.0000       0.599173        16.3043 
  87   0.0000       0.605322        16.4716 
  88   0.0000       0.616342        16.7715 
  89   0.0000       0.621468        16.9110 
  90   0.0000       0.629534        17.1305 
  91   0.0000       0.639324        17.3969 
  92   0.0000       0.649465        17.6728 
  93   0.0000       0.671265        18.2661 
  94   0.0000       0.680668        18.5219 
  95   0.0000       0.688982        18.7482 
  96   0.0000       0.695296        18.9200 
  97   0.0000       0.703922        19.1547 
  98   0.0000       0.711244        19.3539 
  99   0.0000       0.731390        19.9021 
 100   0.0000       0.746434        20.3115 
 101   0.0000       0.748071        20.3560 
 102   0.0000       0.750500        20.4221 
 103   0.0000       0.774348        21.0711 
 104   0.0000       0.777630        21.1604 
 105   0.0000       0.803887        21.8749 
 106   0.0000       0.812229        22.1019 
 107   0.0000       0.821552        22.3556 
 108   0.0000       0.845488        23.0069 
 109   0.0000       0.859653        23.3923 
 110   0.0000       0.875897        23.8344 
 111   0.0000       0.877358        23.8741 
 112   0.0000       0.905901        24.6508 
 113   0.0000       0.911568        24.8050 
 114   0.0000       0.923015        25.1165 
 115   0.0000       0.946865        25.7655 
 116   0.0000       0.950049        25.8521 
 117   0.0000       0.974725        26.5236 
 118   0.0000       0.982459        26.7341 
 119   0.0000       1.014153        27.5965 
 120   0.0000       1.020029        27.7564 
 121   0.0000       1.029404        28.0115 
 122   0.0000       1.041436        28.3389 
 123   0.0000       1.052041        28.6275 
 124   0.0000       1.061981        28.8980 
 125   0.0000       1.080011        29.3886 
 126   0.0000       1.089409        29.6443 
 127   0.0000       1.112326        30.2679 
 128   0.0000       1.116138        30.3717 
 129   0.0000       1.129323        30.7304 
 130   0.0000       1.138183        30.9715 
 131   0.0000       1.151833        31.3430 
 132   0.0000       1.162305        31.6279 
 133   0.0000       1.175969        31.9998 
 134   0.0000       1.180530        32.1239 
 135   0.0000       1.194968        32.5167 
 136   0.0000       1.217409        33.1274 
 137   0.0000       1.225077        33.3360 
 138   0.0000       1.226562        33.3765 
 139   0.0000       1.237027        33.6612 
 140   0.0000       1.245924        33.9033 
 141   0.0000       1.263810        34.3900 
 142   0.0000       1.268235        34.5104 
 143   0.0000       1.277856        34.7722 
 144   0.0000       1.293404        35.1953 
 145   0.0000       1.301086        35.4044 
 146   0.0000       1.307827        35.5878 
 147   0.0000       1.324876        36.0517 
 148   0.0000       1.344052        36.5735 
 149   0.0000       1.352656        36.8076 
 150   0.0000       1.358285        36.9608 
 151   0.0000       1.373643        37.3787 
 152   0.0000       1.381428        37.5906 
 153   0.0000       1.404604        38.2212 
 154   0.0000       1.417368        38.5685 
 155   0.0000       1.439683        39.1758 
 156   0.0000       1.451607        39.5002 
 157   0.0000       1.456557        39.6349 
 158   0.0000       1.469781        39.9948 
 159   0.0000       1.487532        40.4778 
 160   0.0000       1.507022        41.0082 
 161   0.0000       1.513500        41.1844 
 162   0.0000       1.526137        41.5283 
 163   0.0000       1.542928        41.9852 
 164   0.0000       1.547278        42.1036 
 165   0.0000       1.559024        42.4232 
 166   0.0000       1.575087        42.8603 
 167   0.0000       1.581770        43.0421 
 168   0.0000       1.604887        43.6712 
 169   0.0000       1.606774        43.7225 
 170   0.0000       1.632164        44.4134 
 171   0.0000       1.637005        44.5452 
 172   0.0000       1.643485        44.7215 
 173   0.0000       1.654411        45.0188 
 174   0.0000       1.666960        45.3603 
 175   0.0000       1.675272        45.5865 
 176   0.0000       1.686135        45.8821 
 177   0.0000       1.693463        46.0815 
 178   0.0000       1.712291        46.5938 
 179   0.0000       1.725938        46.9652 
 180   0.0000       1.742304        47.4105 
 181   0.0000       1.754632        47.7460 
 182   0.0000       1.771959        48.2175 
 183   0.0000       1.779640        48.4265 
 184   0.0000       1.796262        48.8788 
 185   0.0000       1.812186        49.3121 
 186   0.0000       1.813246        49.3409 
 187   0.0000       1.835945        49.9586 
 188   0.0000       1.841166        50.1007 
 189   0.0000       1.859563        50.6013 
 190   0.0000       1.863811        50.7169 
 191   0.0000       1.872408        50.9508 
 192   0.0000       1.906598        51.8812 
 193   0.0000       1.935366        52.6640 
 194   0.0000       1.948742        53.0280 
 195   0.0000       1.966585        53.5135 
 196   0.0000       1.985868        54.0382 
 197   0.0000       2.012313        54.7578 
 198   0.0000       2.033039        55.3218 
 199   0.0000       2.034908        55.3727 
 200   0.0000       2.046390        55.6851 
 201   0.0000       2.079436        56.5843 
 202   0.0000       2.114010        57.5251 
 203   0.0000       2.133460        58.0544 
 204   0.0000       2.148913        58.4749 
 205   0.0000       2.161819        58.8261 
 206   0.0000       2.180906        59.3455 
 207   0.0000       2.234467        60.8029 
 208   0.0000       2.246001        61.1168 
 209   0.0000       2.259166        61.4750 
 210   0.0000       2.268108        61.7184 
 211   0.0000       2.299433        62.5707 
 212   0.0000       2.320039        63.1315 
 213   0.0000       2.345624        63.8277 
 214   0.0000       2.366580        64.3979 
 215   0.0000       2.383655        64.8626 
 216   0.0000       2.414502        65.7019 
 217   0.0000       2.438179        66.3462 
 218   0.0000       2.455968        66.8303 
 219   0.0000       2.483830        67.5884 
 220   0.0000       2.488723        67.7216 
 221   0.0000       2.499668        68.0194 
 222   0.0000       2.548836        69.3573 
 223   0.0000       2.587050        70.3972 
 224   0.0000       2.612695        71.0950 
 225   0.0000       2.632822        71.6427 
 226   0.0000       2.669860        72.6506 
 227   0.0000       2.706301        73.6422 
 228   0.0000       2.712380        73.8076 
 229   0.0000       2.742153        74.6178 
 230   0.0000       2.797768        76.1311 
 231   0.0000       2.810032        76.4649 
 232   0.0000       2.822754        76.8110 
 233   0.0000       2.837043        77.1999 
 234   0.0000       2.852949        77.6327 
 235   0.0000       2.868348        78.0517 
 236   0.0000       2.908429        79.1424 
 237   0.0000       2.912418        79.2509 
 238   0.0000       2.939598        79.9905 
 239   0.0000       2.960854        80.5689 
 240   0.0000       2.972278        80.8798 
 241   0.0000       2.998333        81.5888 
 242   0.0000       3.006080        81.7996 
 243   0.0000       3.026316        82.3502 
 244   0.0000       3.037231        82.6473 
 245   0.0000       3.044075        82.8335 
 246   0.0000       3.053980        83.1030 
 247   0.0000       3.057335        83.1943 
 248   0.0000       3.071664        83.5842 
 249   0.0000       3.088468        84.0415 
 250   0.0000       3.098977        84.3275 
 251   0.0000       3.111481        84.6677 
 252   0.0000       3.114319        84.7449 
 253   0.0000       3.137446        85.3742 
 254   0.0000       3.151262        85.7502 
 255   0.0000       3.169256        86.2398 
 256   0.0000       3.171287        86.2951 
 257   0.0000       3.190057        86.8059 
 258   0.0000       3.194573        86.9287 
 259   0.0000       3.207072        87.2689 
 260   0.0000       3.214036        87.4584 
 261   0.0000       3.227131        87.8147 
 262   0.0000       3.230613        87.9094 
 263   0.0000       3.248385        88.3931 
 264   0.0000       3.261565        88.7517 
 265   0.0000       3.281416        89.2919 
 266   0.0000       3.293178        89.6119 
 267   0.0000       3.297595        89.7321 
 268   0.0000       3.309506        90.0562 
 269   0.0000       3.317814        90.2823 
 270   0.0000       3.327394        90.5430 
 271   0.0000       3.344987        91.0217 
 272   0.0000       3.350123        91.1615 
 273   0.0000       3.378952        91.9460 
 274   0.0000       3.383587        92.0721 
 275   0.0000       3.386649        92.1554 
 276   0.0000       3.401130        92.5495 
 277   0.0000       3.427266        93.2606 
 278   0.0000       3.434496        93.4574 
 279   0.0000       3.435280        93.4787 
 280   0.0000       3.450569        93.8948 
 281   0.0000       3.474788        94.5538 
 282   0.0000       3.482542        94.7648 
 283   0.0000       3.495468        95.1165 
 284   0.0000       3.511335        95.5483 
 285   0.0000       3.520093        95.7866 
 286   0.0000       3.531577        96.0991 
 287   0.0000       3.544386        96.4476 
 288   0.0000       3.552999        96.6820 
 289   0.0000       3.563661        96.9722 
 290   0.0000       3.572973        97.2255 
 291   0.0000       3.583897        97.5228 
 292   0.0000       3.599915        97.9587 
 293   0.0000       3.607891        98.1757 
 294   0.0000       3.616213        98.4022 
 295   0.0000       3.632162        98.8362 
 296   0.0000       3.639887        99.0464 
 297   0.0000       3.654584        99.4463 
 298   0.0000       3.661507        99.6347 
 299   0.0000       3.672189        99.9253 
 300   0.0000       3.689689       100.4016 
 301   0.0000       3.696354       100.5829 
 302   0.0000       3.717750       101.1651 
 303   0.0000       3.718868       101.1956 
 304   0.0000       3.732545       101.5677 
 305   0.0000       3.742242       101.8316 
 306   0.0000       3.759563       102.3029 
 307   0.0000       3.775271       102.7303 
 308   0.0000       3.782149       102.9175 
 309   0.0000       3.802415       103.4690 
 310   0.0000       3.814631       103.8014 
 311   0.0000       3.828209       104.1709 
 312   0.0000       3.847121       104.6855 
 313   0.0000       3.854111       104.8757 
 314   0.0000       3.867834       105.2491 
 315   0.0000       3.869053       105.2823 
 316   0.0000       3.885422       105.7277 
 317   0.0000       3.895779       106.0095 
 318   0.0000       3.908989       106.3690 
 319   0.0000       3.933562       107.0377 
 320   0.0000       3.938155       107.1626 
 321   0.0000       3.953609       107.5832 
 322   0.0000       3.959463       107.7425 
 323   0.0000       3.971857       108.0797 
 324   0.0000       3.991218       108.6066 
 325   0.0000       3.996737       108.7568 
 326   0.0000       4.020020       109.3903 
 327   0.0000       4.027508       109.5941 
 328   0.0000       4.040651       109.9517 
 329   0.0000       4.053391       110.2984 
 330   0.0000       4.076927       110.9388 
 331   0.0000       4.084431       111.1430 
 332   0.0000       4.098126       111.5157 
 333   0.0000       4.109364       111.8215 
 334   0.0000       4.131713       112.4296 
 335   0.0000       4.140675       112.6735 
 336   0.0000       4.143623       112.7537 
 337   0.0000       4.149559       112.9152 
 338   0.0000       4.174814       113.6025 
 339   0.0000       4.187471       113.9469 
 340   0.0000       4.194008       114.1248 
 341   0.0000       4.215110       114.6990 
 342   0.0000       4.230207       115.1098 
 343   0.0000       4.237726       115.3144 
 344   0.0000       4.246601       115.5559 
 345   0.0000       4.260485       115.9337 
 346   0.0000       4.273044       116.2754 
 347   0.0000       4.285832       116.6234 
 348   0.0000       4.300950       117.0348 
 349   0.0000       4.304470       117.1306 
 350   0.0000       4.320844       117.5761 
 351   0.0000       4.331049       117.8538 
 352   0.0000       4.336519       118.0027 
 353   0.0000       4.340964       118.1236 
 354   0.0000       4.368572       118.8749 
 355   0.0000       4.384080       119.2969 
 356   0.0000       4.403470       119.8245 
 357   0.0000       4.411551       120.0444 
 358   0.0000       4.421594       120.3177 
 359   0.0000       4.433597       120.6443 
 360   0.0000       4.442430       120.8847 
 361   0.0000       4.453517       121.1864 
 362   0.0000       4.462073       121.4192 
 363   0.0000       4.477135       121.8290 
 364   0.0000       4.499839       122.4469 
 365   0.0000       4.514366       122.8421 
 366   0.0000       4.521378       123.0329 
 367   0.0000       4.540141       123.5435 
 368   0.0000       4.541656       123.5847 
 369   0.0000       4.550306       123.8201 
 370   0.0000       4.577771       124.5675 
 371   0.0000       4.590878       124.9241 
 372   0.0000       4.606835       125.3583 
 373   0.0000       4.622941       125.7966 
 374   0.0000       4.645956       126.4229 
 375   0.0000       4.675134       127.2169 
 376   0.0000       4.697945       127.8376 
 377   0.0000       4.714023       128.2751 
 378   0.0000       4.733182       128.7964 
 379   0.0000       4.744849       129.1139 
 380   0.0000       4.760322       129.5350 
 381   0.0000       4.780479       130.0834 
 382   0.0000       4.810634       130.9040 
 383   0.0000       4.835820       131.5894 
 384   0.0000       4.859060       132.2217 
 385   0.0000       4.878718       132.7567 
 386   0.0000       4.892212       133.1239 
 387   0.0000       4.908390       133.5641 
 388   0.0000       4.918819       133.8479 
 389   0.0000       4.938569       134.3853 
 390   0.0000       4.946974       134.6140 
 391   0.0000       4.958226       134.9202 
 392   0.0000       5.004085       136.1681 
 393   0.0000       5.008252       136.2815 
 394   0.0000       5.036109       137.0395 
 395   0.0000       5.045325       137.2903 
 396   0.0000       5.071924       138.0141 
 397   0.0000       5.087182       138.4293 
 398   0.0000       5.105280       138.9217 
 399   0.0000       5.128952       139.5659 
 400   0.0000       5.143349       139.9576 
 401   0.0000       5.188282       141.1803 
 402   0.0000       5.194818       141.3582 
 403   0.0000       5.216619       141.9514 
 404   0.0000       5.273576       143.5013 
 405   0.0000       5.278743       143.6419 
 406   0.0000       5.295088       144.0867 
 407   0.0000       5.305083       144.3587 
 408   0.0000       5.324656       144.8913 
 409   0.0000       5.336750       145.2204 
 410   0.0000       5.377159       146.3199 
 411   0.0000       5.389087       146.6445 
 412   0.0000       5.408690       147.1779 
 413   0.0000       5.421703       147.5320 
 414   0.0000       5.437901       147.9728 
 415   0.0000       5.468459       148.8043 
 416   0.0000       5.483656       149.2179 
 417   0.0000       5.496825       149.5762 
 418   0.0000       5.510619       149.9516 
 419   0.0000       5.532964       150.5596 
 420   0.0000       5.557230       151.2199 
 421   0.0000       5.567262       151.4929 
 422   0.0000       5.614028       152.7655 
 423   0.0000       5.629346       153.1823 
 424   0.0000       5.642215       153.5325 
 425   0.0000       5.668496       154.2476 
 426   0.0000       5.705681       155.2595 
 427   0.0000       5.713759       155.4793 
 428   0.0000       5.729598       155.9103 
 429   0.0000       5.748384       156.4215 
 430   0.0000       5.766501       156.9145 
 431   0.0000       5.799413       157.8101 
 432   0.0000       5.831404       158.6806 
 433   0.0000       5.853787       159.2897 
 434   0.0000       5.861452       159.4982 
 435   0.0000       5.868946       159.7021 
 436   0.0000       5.908402       160.7758 
 437   0.0000       5.931426       161.4023 
 438   0.0000       5.959589       162.1687 
 439   0.0000       5.981190       162.7565 
 440   0.0000       6.000484       163.2815 
 441   0.0000       6.021351       163.8493 
 442   0.0000       6.065494       165.0505 
 443   0.0000       6.079224       165.4241 
 444   0.0000       6.130006       166.8060 
 445   0.0000       6.136311       166.9775 
 446   0.0000       6.231146       169.5581 
 447   0.0000       6.316122       171.8704 
 448   0.0000       6.383269       173.6976 
 449   0.0000       6.399981       174.1523 
 450   0.0000       6.503777       176.9768 
 451   0.0000       6.532698       177.7637 
 452   0.0000       6.603866       179.7003 
 453   0.0000       6.663934       181.3349 
 454   0.0000       6.906168       187.9264 
 455   0.0000       6.923459       188.3969 
 456   0.0000       6.933290       188.6644 
 457   0.0000       7.102832       193.2779 
 458   0.0000       7.167595       195.0402 
 459   0.0000       7.247423       197.2124 
 460   0.0000       7.328690       199.4238 
 461   0.0000       7.363576       200.3731 
 462   0.0000       7.377499       200.7519 
 463   0.0000       7.482224       203.6017 
 464   0.0000       7.617395       207.2798 
 465   0.0000       7.641633       207.9394 
 466   0.0000       7.820248       212.7998 
 467   0.0000       7.966292       216.7738 
 468   0.0000      24.008350       653.3004 
 469   0.0000      24.179793       657.9656 
 470   0.0000      24.228018       659.2779 
 471   0.0000      24.457836       665.5316 
 472   0.0000      24.571390       668.6215 
 473   0.0000      24.683417       671.6699 
 474   0.0000      24.719359       672.6479 
 475   0.0000      24.833467       675.7530 
 476   0.0000      45.528453      1238.8922 
 477   0.0000      45.933903      1249.9251 

                    ********************************
                    * MULLIKEN POPULATION ANALYSIS *
                    ********************************

-----------------------
MULLIKEN ATOMIC CHARGES
-----------------------
   0 C :   -0.152440
   1 C :   -0.198938
   2 C :   -0.097259
   3 C :   -0.144172
   4 H :    0.107285
   5 H :    0.120385
   6 H :    0.105095
   7 C :    0.273934
   8 C :   -0.206559
   9 H :    0.109888
  10 H :    0.131045
  11 H :    0.096996
  12 H :    0.105477
  13 H :    0.088489
  14 O :   -0.372628
  15 C :   -0.012832
  16 H :    0.072716
  17 H :    0.093519
  18 H :    0.067033
  19 C :    0.278696
  20 O :   -0.479934
  21 H :    0.014205
Sum of atomic charges:    0.0000000

--------------------------------
MULLIKEN REDUCED ORBITAL CHARGES
--------------------------------
  0 C s       :     3.141805  s :     3.141805
      pz      :     0.926297  p :     2.893223
      px      :     0.905854
      py      :     1.061072
      dz2     :     0.018991  d :     0.111731
      dxz     :     0.026731
      dyz     :     0.015682
      dx2y2   :     0.034952
      dxy     :     0.015375
      f0      :     0.000253  f :     0.005681
      f+1     :     0.001128
      f-1     :     0.000883
      f+2     :     0.000726
      f-2     :     0.000960
      f+3     :     0.000695
      f-3     :     0.001036
  1 C s       :     3.103564  s :     3.103564
      pz      :     1.042220  p :     3.007188
      px      :     1.030786
      py      :     0.934183
      dz2     :     0.006335  d :     0.082536
      dxz     :     0.019738
      dyz     :     0.020785
      dx2y2   :     0.016083
      dxy     :     0.019595
      f0      :     0.000681  f :     0.005650
      f+1     :     0.000576
      f-1     :     0.000527
      f+2     :     0.000643
      f-2     :     0.000981
      f+3     :     0.001225
      f-3     :     0.001018
  2 C s       :     3.134399  s :     3.134399
      pz      :     0.877706  p :     2.863448
      px      :     0.939788
      py      :     1.045954
      dz2     :     0.013305  d :     0.093645
      dxz     :     0.018878
      dyz     :     0.013155
      dx2y2   :     0.024286
      dxy     :     0.024021
      f0      :     0.000529  f :     0.005768
      f+1     :     0.001599
      f-1     :     0.000258
      f+2     :     0.000773
      f-2     :     0.000912
      f+3     :     0.000873
      f-3     :     0.000824
  3 C s       :     3.078972  s :     3.078972
      pz      :     1.062653  p :     2.949330
      px      :     0.979225
      py      :     0.907451
      dz2     :     0.013568  d :     0.108071
      dxz     :     0.016744
      dyz     :     0.022715
      dx2y2   :     0.030287
      dxy     :     0.024758
      f0      :     0.000786  f :     0.007798
      f+1     :     0.000998
      f-1     :     0.000624
      f+2     :     0.001302
      f-2     :     0.001291
      f+3     :     0.001305
      f-3     :     0.001492
  4 H s       :     0.849384  s :     0.849384
      pz      :     0.019594  p :     0.041138
      px      :     0.012243
      py      :     0.009300
      dz2     :     0.000589  d :     0.002193
      dxz     :     0.000620
      dyz     :     0.000477
      dx2y2   :     0.000302
      dxy     :     0.000205
  5 H s       :     0.839317  s :     0.839317
      pz      :     0.007548  p :     0.038231
      px      :     0.008787
      py      :     0.021897
      dz2     :     0.000203  d :     0.002067
      dxz     :     0.000016
      dyz     :     0.000542
      dx2y2   :     0.000620
      dxy     :     0.000685
  6 H s       :     0.852481  s :     0.852481
      pz      :     0.015291  p :     0.040215
      px      :     0.014280
      py      :     0.010643
      dz2     :     0.000483  d :     0.002210
      dxz     :     0.000509
      dyz     :     0.000359
      dx2y2   :     0.000450
      dxy     :     0.000409
  7 C s       :     3.095904  s :     3.095904
      pz      :     0.795105  p :     2.419318
      px      :     0.694063
      py      :     0.930150
      dz2     :     0.038393  d :     0.193739
      dxz     :     0.018468
      dyz     :     0.039786
      dx2y2   :     0.044696
      dxy     :     0.052395
      f0      :     0.001861  f :     0.017105
      f+1     :     0.003281
      f-1     :     0.001422
      f+2     :     0.002790
      f-2     :     0.002548
      f+3     :     0.002672
      f-3     :     0.002532
  8 C s       :     3.174539  s :     3.174539
      pz      :     1.046470  p :     2.924525
      px      :     0.922405
      py      :     0.955650
      dz2     :     0.013841  d :     0.099027
      dxz     :     0.013508
      dyz     :     0.016177
      dx2y2   :     0.027082
      dxy     :     0.028419
      f0      :     0.000651  f :     0.008469
      f+1     :     0.001956
      f-1     :     0.000762
      f+2     :     0.001195
      f-2     :     0.001382
      f+3     :     0.001168
      f-3     :     0.001355
  9 H s       :     0.848954  s :     0.848954
      pz      :     0.011746  p :     0.038989
      px      :     0.014737
      py      :     0.012506
      dz2     :     0.000386  d :     0.002168
      dxz     :     0.000346
      dyz     :     0.000455
      dx2y2   :     0.000492
      dxy     :     0.000489
 10 H s       :     0.830357  s :     0.830357
      pz      :     0.009300  p :     0.036633
      px      :     0.012894
      py      :     0.014439
      dz2     :     0.000271  d :     0.001965
      dxz     :     0.000327
      dyz     :     0.000273
      dx2y2   :     0.000573
      dxy     :     0.000522
 11 H s       :     0.858550  s :     0.858550
      pz      :     0.011184  p :     0.042194
      px      :     0.009117
      py      :     0.021893
      dz2     :     0.000247  d :     0.002260
      dxz     :     0.000080
      dyz     :     0.000637
      dx2y2   :     0.000658
      dxy     :     0.000639
 12 H s       :     0.847617  s :     0.847617
      pz      :     0.019302  p :     0.044671
      px      :     0.013851
      py      :     0.011518
      dz2     :     0.000622  d :     0.002235
      dxz     :     0.000524
      dyz     :     0.000464
      dx2y2   :     0.000276
      dxy     :     0.000349
 13 H s       :     0.863210  s :     0.863210
      pz      :     0.012295  p :     0.046079
      px      :     0.010631
      py      :     0.023153
      dz2     :     0.000312  d :     0.002222
      dxz     :     0.000161
      dyz     :     0.000539
      dx2y2   :     0.000589
      dxy     :     0.000621
 14 O s       :     3.770539  s :     3.770539
      pz      :     1.634346  p :     4.556946
      px      :     1.531704
      py      :     1.390897
      dz2     :     0.006548  d :     0.042901
      dxz     :     0.009857
      dyz     :     0.005145
      dx2y2   :     0.015547
      dxy     :     0.005804
      f0      :     0.000264  f :     0.002241
      f+1     :     0.000345
      f-1     :     0.000229
      f+2     :     0.000421
      f-2     :     0.000312
      f+3     :     0.000314
      f-3     :     0.000356
 15 C s       :     3.123971  s :     3.123971
      pz      :     1.049353  p :     2.755798
      px      :     1.044531
      py      :     0.661914
      dz2     :     0.013425  d :     0.123430
      dxz     :     0.018971
      dyz     :     0.036153
      dx2y2   :     0.023951
      dxy     :     0.030930
      f0      :     0.001136  f :     0.009633
      f+1     :     0.000430
      f-1     :     0.001408
      f+2     :     0.001873
      f-2     :     0.000721
      f+3     :     0.002140
      f-3     :     0.001925
 16 H s       :     0.892761  s :     0.892761
      pz      :     0.017186  p :     0.032397
      px      :     0.008639
      py      :     0.006572
      dz2     :     0.000622  d :     0.002126
      dxz     :     0.000521
      dyz     :     0.000538
      dx2y2   :     0.000247
      dxy     :     0.000199
 17 H s       :     0.871505  s :     0.871505
      pz      :     0.013103  p :     0.032855
      px      :     0.015389
      py      :     0.004363
      dz2     :     0.000438  d :     0.002121
      dxz     :     0.000619
      dyz     :     0.000269
      dx2y2   :     0.000366
      dxy     :     0.000428
 18 H s       :     0.898210  s :     0.898210
      pz      :     0.010717  p :     0.032633
      px      :     0.014758
      py      :     0.007158
      dz2     :     0.000278  d :     0.002124
      dxz     :     0.000499
      dyz     :     0.000285
      dx2y2   :     0.000608
      dxy     :     0.000453
 19 C s       :     3.132834  s :     3.132834
      pz      :     0.742238  p :     2.363328
      px      :     0.787081
      py      :     0.834009
      dz2     :     0.013354  d :     0.207774
      dxz     :     0.054358
      dyz     :     0.030388
      dx2y2   :     0.069546
      dxy     :     0.040129
      f0      :     0.001514  f :     0.017367
      f+1     :     0.001767
      f-1     :     0.001580
      f+2     :     0.001611
      f-2     :     0.002769
      f+3     :     0.005414
      f-3     :     0.002712
 20 O s       :     3.839773  s :     3.839773
      pz      :     1.530903  p :     4.602847
      px      :     1.424578
      py      :     1.647367
      dz2     :     0.004260  d :     0.035237
      dxz     :     0.007071
      dyz     :     0.004371
      dx2y2   :     0.009420
      dxy     :     0.010115
      f0      :     0.000190  f :     0.002076
      f+1     :     0.000240
      f-1     :     0.000137
      f+2     :     0.000099
      f-2     :     0.000393
      f+3     :     0.000492
      f-3     :     0.000525
 21 H s       :     0.949182  s :     0.949182
      pz      :     0.012259  p :     0.034344
      px      :     0.013403
      py      :     0.008683
      dz2     :     0.000256  d :     0.002269
      dxz     :     0.000679
      dyz     :     0.000330
      dx2y2   :     0.000519
      dxy     :     0.000484


                     *******************************
                     * LOEWDIN POPULATION ANALYSIS *
                     *******************************

----------------------
LOEWDIN ATOMIC CHARGES
----------------------
   0 C :    0.064188
   1 C :    0.039768
   2 C :    0.121342
   3 C :   -0.080519
   4 H :    0.012422
   5 H :    0.013378
   6 H :    0.005691
   7 C :   -0.197152
   8 C :   -0.064784
   9 H :    0.006538
  10 H :    0.016895
  11 H :    0.015063
  12 H :    0.004312
  13 H :    0.006385
  14 O :    0.232985
  15 C :   -0.035258
  16 H :    0.002496
  17 H :    0.008986
  18 H :    0.000463
  19 C :   -0.197495
  20 O :    0.021778
  21 H :    0.002519

-------------------------------
LOEWDIN REDUCED ORBITAL CHARGES
-------------------------------
  0 C s       :     2.747043  s :     2.747043
      pz      :     0.909085  p :     2.807778
      px      :     0.881120
      py      :     1.017573
      dz2     :     0.061746  d :     0.350126
      dxz     :     0.082572
      dyz     :     0.044528
      dx2y2   :     0.110089
      dxy     :     0.051191
      f0      :     0.001588  f :     0.030866
      f+1     :     0.004705
      f-1     :     0.004965
      f+2     :     0.004489
      f-2     :     0.004356
      f+3     :     0.005280
      f-3     :     0.005483
  1 C s       :     2.741624  s :     2.741624
      pz      :     0.957009  p :     2.887620
      px      :     0.920486
      py      :     1.010125
      dz2     :     0.028427  d :     0.301482
      dxz     :     0.054015
      dyz     :     0.078269
      dx2y2   :     0.062962
      dxy     :     0.077808
      f0      :     0.003627  f :     0.029506
      f+1     :     0.002149
      f-1     :     0.003299
      f+2     :     0.003451
      f-2     :     0.004398
      f+3     :     0.006849
      f-3     :     0.005733
  2 C s       :     2.755910  s :     2.755910
      pz      :     0.822046  p :     2.790002
      px      :     0.958710
      py      :     1.009245
      dz2     :     0.032014  d :     0.304118
      dxz     :     0.055798
      dyz     :     0.051944
      dx2y2   :     0.073108
      dxy     :     0.091255
      f0      :     0.002504  f :     0.028628
      f+1     :     0.005166
      f-1     :     0.000731
      f+2     :     0.004534
      f-2     :     0.004710
      f+3     :     0.005741
      f-3     :     0.005241
  3 C s       :     2.744488  s :     2.744488
      pz      :     0.963432  p :     2.921933
      px      :     0.965296
      py      :     0.993205
      dz2     :     0.045228  d :     0.376460
      dxz     :     0.064336
      dyz     :     0.077243
      dx2y2   :     0.095710
      dxy     :     0.093943
      f0      :     0.003425  f :     0.037638
      f+1     :     0.003568
      f-1     :     0.004011
      f+2     :     0.006640
      f-2     :     0.005346
      f+3     :     0.008230
      f-3     :     0.006419
  4 H s       :     0.811076  s :     0.811076
      pz      :     0.061366  p :     0.149202
      px      :     0.046033
      py      :     0.041803
      dz2     :     0.007549  d :     0.027300
      dxz     :     0.006919
      dyz     :     0.006376
      dx2y2   :     0.003558
      dxy     :     0.002898
  5 H s       :     0.809358  s :     0.809358
      pz      :     0.036168  p :     0.149906
      px      :     0.039303
      py      :     0.074436
      dz2     :     0.002551  d :     0.027357
      dxz     :     0.000202
      dyz     :     0.008135
      dx2y2   :     0.007879
      dxy     :     0.008591
  6 H s       :     0.812045  s :     0.812045
      pz      :     0.056758  p :     0.153998
      px      :     0.056722
      py      :     0.040517
      dz2     :     0.006367  d :     0.028266
      dxz     :     0.006320
      dyz     :     0.004563
      dx2y2   :     0.005383
      dxy     :     0.005634
  7 C s       :     2.713904  s :     2.713904
      pz      :     0.817617  p :     2.693811
      px      :     0.822453
      py      :     1.053741
      dz2     :     0.120436  d :     0.690324
      dxz     :     0.117532
      dyz     :     0.127218
      dx2y2   :     0.167604
      dxy     :     0.157534
      f0      :     0.010699  f :     0.099113
      f+1     :     0.016935
      f-1     :     0.007887
      f+2     :     0.017750
      f-2     :     0.013305
      f+3     :     0.016863
      f-3     :     0.015674
  8 C s       :     2.719602  s :     2.719602
      pz      :     0.949966  p :     2.912526
      px      :     0.981649
      py      :     0.980911
      dz2     :     0.052373  d :     0.390723
      dxz     :     0.060406
      dyz     :     0.057561
      dx2y2   :     0.114324
      dxy     :     0.106058
      f0      :     0.003029  f :     0.041933
      f+1     :     0.004111
      f-1     :     0.004179
      f+2     :     0.006838
      f-2     :     0.007565
      f+3     :     0.007537
      f-3     :     0.008673
  9 H s       :     0.813913  s :     0.813913
      pz      :     0.049381  p :     0.151389
      px      :     0.054777
      py      :     0.047231
      dz2     :     0.005320  d :     0.028160
      dxz     :     0.004826
      dyz     :     0.005450
      dx2y2   :     0.006332
      dxy     :     0.006232
 10 H s       :     0.810879  s :     0.810879
      pz      :     0.039668  p :     0.145580
      px      :     0.046556
      py      :     0.059356
      dz2     :     0.003462  d :     0.026645
      dxz     :     0.003999
      dyz     :     0.004600
      dx2y2   :     0.007936
      dxy     :     0.006649
 11 H s       :     0.801263  s :     0.801263
      pz      :     0.046188  p :     0.155449
      px      :     0.037662
      py      :     0.071598
      dz2     :     0.002841  d :     0.028225
      dxz     :     0.000793
      dyz     :     0.008448
      dx2y2   :     0.008039
      dxy     :     0.008105
 12 H s       :     0.808335  s :     0.808335
      pz      :     0.066096  p :     0.158397
      px      :     0.054214
      py      :     0.038087
      dz2     :     0.008460  d :     0.028956
      dxz     :     0.006820
      dyz     :     0.006315
      dx2y2   :     0.003462
      dxy     :     0.003899
 13 H s       :     0.811023  s :     0.811023
      pz      :     0.040681  p :     0.155060
      px      :     0.038637
      py      :     0.075742
      dz2     :     0.003609  d :     0.027533
      dxz     :     0.001476
      dyz     :     0.007384
      dx2y2   :     0.007487
      dxy     :     0.007577
 14 O s       :     3.233229  s :     3.233229
      pz      :     1.553555  p :     4.420930
      px      :     1.483262
      py      :     1.384112
      dz2     :     0.014548  d :     0.106711
      dxz     :     0.019370
      dyz     :     0.019306
      dx2y2   :     0.030451
      dxy     :     0.023036
      f0      :     0.000629  f :     0.006147
      f+1     :     0.000850
      f-1     :     0.000494
      f+2     :     0.001166
      f-2     :     0.000848
      f+3     :     0.001075
      f-3     :     0.001084
 15 C s       :     2.719102  s :     2.719102
      pz      :     1.021585  p :     2.799161
      px      :     1.013087
      py      :     0.764488
      dz2     :     0.050402  d :     0.451461
      dxz     :     0.073214
      dyz     :     0.115712
      dx2y2   :     0.109979
      dxy     :     0.102153
      f0      :     0.007642  f :     0.065535
      f+1     :     0.002602
      f-1     :     0.011541
      f+2     :     0.010327
      f-2     :     0.004440
      f+3     :     0.013481
      f-3     :     0.015502
 16 H s       :     0.833620  s :     0.833620
      pz      :     0.063288  p :     0.136831
      px      :     0.039601
      py      :     0.033943
      dz2     :     0.007235  d :     0.027052
      dxz     :     0.008076
      dyz     :     0.007035
      dx2y2   :     0.002461
      dxy     :     0.002246
 17 H s       :     0.828070  s :     0.828070
      pz      :     0.051920  p :     0.135494
      px      :     0.059349
      py      :     0.024226
      dz2     :     0.007197  d :     0.027450
      dxz     :     0.007674
      dyz     :     0.002847
      dx2y2   :     0.005269
      dxy     :     0.004463
 18 H s       :     0.835420  s :     0.835420
      pz      :     0.044148  p :     0.137086
      px      :     0.057324
      py      :     0.035614
      dz2     :     0.004717  d :     0.027030
      dxz     :     0.006785
      dyz     :     0.003269
      dx2y2   :     0.006004
      dxy     :     0.006255
 19 C s       :     2.771949  s :     2.771949
      pz      :     0.754763  p :     2.606424
      px      :     0.897823
      py      :     0.953839
      dz2     :     0.056814  d :     0.717966
      dxz     :     0.152185
      dyz     :     0.101536
      dx2y2   :     0.222878
      dxy     :     0.184553
      f0      :     0.007813  f :     0.101156
      f+1     :     0.008805
      f-1     :     0.010280
      f+2     :     0.012080
      f-2     :     0.013774
      f+3     :     0.033591
      f-3     :     0.014813
 20 O s       :     3.408262  s :     3.408262
      pz      :     1.438326  p :     4.497536
      px      :     1.480605
      py      :     1.578605
      dz2     :     0.007812  d :     0.066903
      dxz     :     0.012787
      dyz     :     0.005449
      dx2y2   :     0.018202
      dxy     :     0.022652
      f0      :     0.000495  f :     0.005522
      f+1     :     0.000570
      f-1     :     0.000371
      f+2     :     0.000386
      f-2     :     0.000805
      f+3     :     0.001473
      f-3     :     0.001421
 21 H s       :     0.850497  s :     0.850497
      pz      :     0.040933  p :     0.123532
      px      :     0.050743
      py      :     0.031856
      dz2     :     0.003134  d :     0.023451
      dxz     :     0.006578
      dyz     :     0.003819
      dx2y2   :     0.005022
      dxy     :     0.004899


                      *****************************
                      * MAYER POPULATION ANALYSIS *
                      *****************************

  NA   - Mulliken gross atomic population
  ZA   - Total nuclear charge
  QA   - Mulliken gross atomic charge
  VA   - Mayer's total valence
  BVA  - Mayer's bonded valence
  FA   - Mayer's free valence

  ATOM       NA         ZA         QA         VA         BVA        FA
  0 C      6.1524     6.0000    -0.1524     3.9448     3.9448     0.0000
  1 C      6.1989     6.0000    -0.1989     3.8490     3.8490    -0.0000
  2 C      6.0973     6.0000    -0.0973     3.9050     3.9050     0.0000
  3 C      6.1442     6.0000    -0.1442     3.5157     3.5157    -0.0000
  4 H      0.8927     1.0000     0.1073     0.9926     0.9926    -0.0000
  5 H      0.8796     1.0000     0.1204     0.9994     0.9994     0.0000
  6 H      0.8949     1.0000     0.1051     1.0203     1.0203    -0.0000
  7 C      5.7261     6.0000     0.2739     3.8335     3.8335    -0.0000
  8 C      6.2066     6.0000    -0.2066     3.8439     3.8439    -0.0000
  9 H      0.8901     1.0000     0.1099     1.0204     1.0204    -0.0000
 10 H      0.8690     1.0000     0.1310     1.0068     1.0068     0.0000
 11 H      0.9030     1.0000     0.0970     1.0114     1.0114    -0.0000
 12 H      0.8945     1.0000     0.1055     1.0091     1.0091     0.0000
 13 H      0.9115     1.0000     0.0885     1.0122     1.0122     0.0000
 14 O      8.3726     8.0000    -0.3726     1.9382     1.9382    -0.0000
 15 C      6.0128     6.0000    -0.0128     3.8948     3.8948     0.0000
 16 H      0.9273     1.0000     0.0727     0.9893     0.9893    -0.0000
 17 H      0.9065     1.0000     0.0935     0.9997     0.9997     0.0000
 18 H      0.9330     1.0000     0.0670     0.9887     0.9887     0.0000
 19 C      5.7213     6.0000     0.2787     4.1275     4.1275     0.0000
 20 O      8.4799     8.0000    -0.4799     1.9791     1.9791     0.0000
 21 H      0.9858     1.0000     0.0142     0.9980     0.9980     0.0000

  Mayer bond orders larger than 0.100000
B(  0-C ,  1-C ) :   0.3250 B(  0-C ,  3-C ) :   1.4803 B(  0-C ,  4-H ) :   1.0143 
B(  0-C ,  5-H ) :   0.9958 B(  1-C ,  7-C ) :   1.4771 B(  1-C ,  9-H ) :   0.9963 
B(  1-C , 12-H ) :   1.0241 B(  2-C ,  3-C ) :   0.1797 B(  2-C ,  8-C ) :   1.6240 
B(  2-C , 10-H ) :   0.9941 B(  2-C , 13-H ) :   1.0225 B(  3-C ,  6-H ) :   0.9914 
B(  3-C , 19-C ) :   1.0175 B(  3-C , 21-H ) :  -0.1123 B(  7-C ,  8-C ) :   1.2081 
B(  7-C , 14-O ) :   1.0633 B(  8-C , 11-H ) :   1.0137 B( 14-O , 15-C ) :   0.8916 
B( 15-C , 16-H ) :   1.0002 B( 15-C , 17-H ) :   1.0033 B( 15-C , 18-H ) :   0.9962 
B( 19-C , 20-O ) :   1.9459 B( 19-C , 21-H ) :   1.0683 

-------
TIMINGS
-------

Total SCF time: 0 days 0 hours 1 min 2 sec 

Total time                  ....      62.326 sec
Sum of individual times     ....      61.685 sec  ( 99.0%)

Fock matrix formation       ....      59.367 sec  ( 95.3%)
Diagonalization             ....       0.695 sec  (  1.1%)
Density matrix formation    ....       0.021 sec  (  0.0%)
Population analysis         ....       0.047 sec  (  0.1%)
Initial guess               ....       0.321 sec  (  0.5%)
Orbital Transformation      ....       0.000 sec  (  0.0%)
Orbital Orthonormalization  ....       0.000 sec  (  0.0%)
DIIS solution               ....       0.964 sec  (  1.5%)
SOSCF solution              ....       0.191 sec  (  0.3%)

Maximum memory used throughout the entire SCF-calculation: 246.7 MB


           ************************************************************
           *        Program running with 16 parallel MPI-processes    *
           *              working on a common directory               *
           ************************************************************


--------------------------------------------------------------------------------
                             ORCA-MATRIX DRIVEN CI
--------------------------------------------------------------------------------


Wavefunction type
-----------------
Correlation treatment                      ...      CCSD     
Single excitations                         ... ON
Orbital optimization                       ... OFF
Calculation of Z vector                    ... OFF
Calculation of Brueckner orbitals          ... OFF
Perturbative triple excitations            ... ON
Calculation of F12 correction              ... OFF
Frozen core treatment                      ... chemical core (20 el)
Reference Wavefunction                     ... RHF
  Internal Orbitals:    10 ...   37 ( 28 MO's/ 56 electrons)
  Virtual  Orbitals:    38 ...  477 (440 MO's              )
Number of AO's                             ...    478
Number of electrons                        ...     76
Number of correlated electrons             ...     56

Algorithmic settings
--------------------
Integral transformation                    ... All integrals via the RI transformation
K(C) Formation                             ... RI-DLPNO
   PNO-Integral Storage                    ... ON DISK
   PNO occupation number cut-off           ... 3.330e-07
   Singles PNO occupation number cut-off   ... 9.990e-09
   PNO Mulliken prescreening cut-off       ... 1.000e-03
   Domain cut-off (Mulliken population)    ... 1.000e-03
   PNO Normalization                       ...    1
Maximum number of iterations               ...        50
Convergence tolerance (max. residuum)      ... 2.500e-05
Level shift for amplitude update           ... 2.000e-01
Maximum number of DIIS vectors             ...         7
DIIS turned on at iteration                ...         0
Damping before turning on DIIS             ...     0.500
Damping after turning on DIIS              ...     0.000
[...]
Spin component scaling                      .... not used

   .... Finished loop over pairs
Making pair pair interaction lists          ... done

                       ===========================
                        276 OF  406 PAIRS ARE KEPT CCSD PAIRS
                         98 OF  406 PAIRS ARE KEPT MP2 PAIRS FOR (T)
                         32 OF  406 PAIRS ARE SKIPPED
                       ===========================

Total time spent in the initial guess                 ...     2.030 sec
SL-MP2 correlation energy (all non-screened pairs)    ...      -1.739244921574 Eh

Initial PNO correlation energy                        ...      -1.729966293749 Eh
sum of pair energies prescreened and skipped MP2 pairs...      -0.000174329995 Eh
sum of pair energies of crude MP2 skipped pairs only  ...      -0.000174329995 Eh
sum of MP2 pair energies for pairs that were not kept ...      -0.004213388511 Eh
sum of PNO error estimates for the kept pairs         ...      -0.005065239314 Eh
                                                          --------------------
sum of all corrections                                         -0.009278627824
Initial total correlation energy                               -1.739244921574
Thresholds for map construction and integral transformation for fine MP2 and CCSD(T) calculation:
   TCutMKN   ...     1.0e-03
   TCutDO    ...     1.0e-02
   TCutPairs ...     1.0e-04
   TCutCMO   ...     1.0e-03
   TCutCPAO  ...     1.0e-03

Thresholds for map construction and integral transformation for strong Triples:
   TCutMKN   ...     1.0e-02
   TCutDO    ...     2.0e-02
   TCutCMO   ...     1.0e-03
   TCutCPAO  ...     1.0e-03

Thresholds for map construction and integral transformation for weak Triples:
   TCutMKN   ...     1.0e-01
   TCutDO    ...     4.0e-02
   TCutCMO   ...     1.0e-03
   TCutCPAO  ...     1.0e-03

--------------------------------
LOCAL RI TRANSFORMATION (IAVPAO)
--------------------------------

Orbital window:      10 to 37
Number of PAOs:     478
Basis functions:    478 (182 shells)
Aux. functions:    1120 (340 shells)
Use SHARK:           on

Processing maps (0.0 sec)
Average map sizes:
   Aux shells -> MOs              27.9
   Aux shells -> PAOs            478.0
   MOs        -> AO shells       177.2
   PAOs       -> AO shells       182.0

Calculating integrals (0.5 sec, 114.159 MB)
Sorting integrals (0.1 sec, 114.147 MB)
Total time for the integral transformation: 0.6 sec
--------------------------------
INITIAL GUESS AND PNO GENERATION
--------------------------------

PNO truncation parameters                   .... 
    PAOOverlapThresh   =        1.000e-08

    TCutPairs          =        1.000e-04
    TCutPNO            =        3.330e-07
    TCutPNOSingles     =        9.990e-09
    TCutMP2Pairs       =        1.000e-05
    TCutMKN            =        1.000e-03
    TCutDO             =        1.000e-02

Pair selection                          .... not used
Type of local MP2 treatment                 .... semi-local MP2
Strategy for PNO selection                  .... occupation number selection
Pair density normalization                  .... MP2 norm
Spin component scaling                      .... not used

   .... Finished loop over pairs

 PNO Occupation Number Statistics: 
  | Av. % of trace(Dij) retained        ...  97.691791173500
  | sigma^2 in % of trace(Dij) retained ...   8.43e+00
  | Av. % of trace(Di) retained         ...  99.999041561933
  | sigma^2 in % of trace(Di) retained  ...   1.77e-07
 Distributions of % trace(Dij) recovered:
  |       >= 99.9  ...    79 ( 21.1 % of all pairs)
  |   [80.0, 90.0) ...     8 (  2.1 % of all pairs)
  |   [90.0, 99.0) ...   192 ( 51.3 % of all pairs)
  |   [99.0, 99.9) ...    95 ( 25.4 % of all pairs)
 Distributions of % trace(Di) recovered :
  |       >= 99.9  ...    28 (100.0 % of all I-pairs )

Making pair pair interaction lists          ... done

                       ===========================
                        276 OF  374 PAIRS ARE KEPT
                       ===========================

Total time spent in the initial guess                 ...    33.507 sec
SL-MP2 correlation energy (all non-screened pairs)    ...      -1.740336774051 Eh

Initial PNO correlation energy                        ...      -1.731154064022 Eh
sum of pair energies estimated for screened out pairs ...      -0.000174329995 Eh
sum of MP2 pair energies for pairs that were not kept ...      -0.004046198480 Eh
sum of PNO error estimates for the kept pairs         ...      -0.005136511549 Eh
                                                          --------------------
sum of all corrections                                         -0.009357040024
Initial total correlation energy                               -1.740511104046
Thresholds for map construction and integral transformation for fine MP2 and CCSD(T) calculation:
   TCutMKN   ...     1.0e-03
   TCutDO    ...     1.0e-02
   TCutPairs ...     1.0e-04
   TCutCMO   ...     1.0e-03
   TCutCPAO  ...     1.0e-03

Time for aux screen maps:            0.003
Time for maps after fine MP2:            0.014
-----------------------------
LOCAL RI TRANSFORMATION (IJV)
-----------------------------

Orbital window:      10 to 37
Basis functions:    478 (182 shells)
Aux. functions:    1120 (340 shells)
Use SHARK:           on

Processing maps (0.0 sec)
Average map sizes:
   Aux shells -> MOs(i)           27.3
   Aux shells -> MOs(j)           28.0
   MOs        -> AO shells       177.2

Calculating integrals (0.4 sec, 6.551 MB)
Sorting integrals (0.0 sec, 6.539 MB)
Total time for the integral transformation: 0.4 sec
--------------------------------
LOCAL RI TRANSFORMATION (VABPAO)
--------------------------------

Number of PAOs:     478
Basis functions:    478 (182 shells)
Aux. functions:    1120 (340 shells)
Use SHARK:           on

Processing maps (0.0 sec)
Average map sizes:
   Aux shells -> PAOs            478.0
   PAOs       -> AO shells       182.0

Calculating integrals (1.4 sec, 1952.391 MB)
Finished


-------------------------------------
Pair Pair Term precalculation with     
RI-(ij|mn) and (im|jn) transformation  
ON THE FLY                             
-------------------------------------

   IBatch   1 (of   2)              ... done (   34.419 sec)
   IBatch   2 (of   2)              ... done (   14.892 sec)
Total EXT                           ...          49.312 sec

---------------------
RI-PNO TRANSFORMATION
---------------------

Total Number of PNOs                   ...  9357
Average number of PNOs per pair        ...    33
Maximal number of PNOs per pair        ...    76
   #pairs with  1 -  5 PNOs   :    0
   #pairs with  6 - 10 PNOs   :    5
   #pairs with 11 - 15 PNOs   :   21
   #pairs with 16 - 20 PNOs   :   40
   #pairs with 21 - 25 PNOs   :   27
   #pairs with 26 - 30 PNOs   :   29
   #pairs with 31 - 35 PNOs   :   35
   #pairs with 36 - 40 PNOs   :   24
   #pairs with 41 - 45 PNOs   :   35
   #pairs with 46 - 50 PNOs   :   20
   #pairs with 51 - 55 PNOs   :   18
   #pairs with 56 - 60 PNOs   :   10
   #pairs with 61 - 65 PNOs   :    4
   #pairs with 66 - 70 PNOs   :    3
   #pairs with 71 - 75 PNOs   :    4
   #pairs with 76 - 80 PNOs   :    1

Generation of (ij|ab)[P] integrals            ... on
Generation of (ia|bc)[P],(ja|bc)[P] integrals ... on
Storage of 3 and 4 external integrals         ... on
Generation of ALL (ka|bc)[P] integrals        ... on
Keep RI integrals in memory                   ... off

Ibatch:  1 (of  1)
Starting 2-4 index PNO integral generation ... done

Timings:
Total PNO integral transformation time     ...         20.806 sec
Size of the 3-external file                ...       134 MB
Size of the 4-external file                ...       860 MB
Size of the IKJL file                      ...         0 MB
Size of the all 3-external file            ...      1885 MB
Size of the 1-external file                ...         6 MB

Making pair/pair overlap matrices          ... done (    2.128 sec)
Size of the pair overlap file              ... 514 MB
Redoing the guess amplitudes               ... done (    0.004 sec)

-------------------------
FINAL STARTUP INFORMATION
-------------------------

E(0)                                       ...   -459.678865573
E(SL-MP2)                                  ...     -1.740336774
E(SL-MP2) including corrections            ...     -1.740511104
Initial E(tot)                             ...   -461.419376677
<T|T>                                      ...      0.499310567
Number of pairs included                   ... 276
Total number of pairs                      ... 406

------------------------------------------------
                  RHF COUPLED CLUSTER ITERATIONS
------------------------------------------------

Number of PNO amplitudes to be optimized   ...       377563
Number of non-PNO amplitudes               ...     53433600
Untruncated number of regular amplitudes   ...     78601600

Iter       E(tot)           E(Corr)          Delta-E          Residual     Time
  0   -461.419456708     -1.731234094      0.009102680      0.019033938    5.28
                           *** Turning on DIIS ***
  1   -461.477388967     -1.789166353     -0.057932259      0.013136916    5.64
  2   -461.523519513     -1.835296900     -0.046130546      0.006289611    6.39
  3   -461.532754159     -1.844531546     -0.009234646      0.004108405    5.41
  4   -461.535829986     -1.847607372     -0.003075827      0.001911778    5.33
  5   -461.536989202     -1.848766588     -0.001159216      0.000905398    5.27
  6   -461.537316728     -1.849094114     -0.000327526      0.000412787    5.28
  7   -461.537368181     -1.849145568     -0.000051453      0.000241301    5.41
  8   -461.537398137     -1.849175524     -0.000029956      0.000136639    5.28
  9   -461.537386085     -1.849163472      0.000012052      0.000068321    5.34
 10   -461.537396432     -1.849173818     -0.000010346      0.000028276    5.29
 11   -461.537394855     -1.849172242      0.000001576      0.000011221    5.41
               --- The Coupled-Cluster iterations have converged ---

----------------------
COUPLED CLUSTER ENERGY
----------------------

E(0)                                       ...   -459.678865573
E(CORR)(strong-pairs)                      ...     -1.849172242
E(CORR)(weak-pairs)                        ...     -0.009357040
E(CORR)(corrected)                         ...     -1.858529282
E(TOT)                                     ...   -461.537394855
Singles Norm <S|S>**1/2                    ...      0.098323179  
T1 diagnostic                              ...      0.013138987  

------------------
LARGEST AMPLITUDES
------------------
  36-> 38  36-> 38       0.054012
  35-> 38  35-> 38       0.053835
  30-> 38  30-> 38       0.049246
  14-> 38  14-> 38       0.048198
  20-> 38  20-> 38       0.048070
  29-> 39  29-> 39       0.042393
  36-> 38  35-> 38       0.041348
  22-> 38  22-> 38       0.040808
  37-> 42  37-> 42       0.035260
  32-> 41  32-> 41       0.033657
  37-> 38  37-> 38       0.032436
  21-> 38  21-> 38       0.032287
  33-> 38  33-> 38       0.032155
  20-> 39  20-> 39       0.032122
  31-> 38  31-> 38       0.031546
  36-> 38  -1-> -1       0.030869


-------------------------------------------
DLPNO BASED TRIPLES CORRECTION
-------------------------------------------

Singles multiplier          ...  1.000000
TCutTNO                     ... 1.000e-09
TCutMP2Pairs                ... 1.000e-05
TCutDOStrong                ... 2.000e-02
TCutMKNStrong               ... 1.000e-02
TCutDOWeak                  ... 4.000e-02
TCutMKNWeak                 ... 1.000e-01

Fragment selection                          .... not used
Number of Triples that are to be computed   ...      2505

 . . . . . . . . .
10% done  
20% done  
30% done  
40% done  
50% done  
60% done  
70% done  
80% done  
90% done               (     99.308 sec)
Triples timings:
Total time for T0               ...   107.805 sec
Total time for Iterative (T)    ...     0.000 sec
Total time of overall (T)       ...   107.806 sec

Triples List generation         ...     0.000 sec
TNO generation                  ...     8.488 sec
Pair density generation         ...     0.005 sec
Look up tables                  ...     0.000 sec
Generating 3-index integrals    ...    69.194 sec
  Make 4-ind.int. from 3-ind.int...     7.307 sec
  Projecting amplitudes (D + S) ...    12.295 sec
  Downprojecting integrals      ...     0.001 sec
  Energy contr. (sum over a,b,c)...     3.068 sec
Fitting ET(->0)                 ...     0.000 sec

Everything after 3-index        ...    30.114 sec

Timing details:
 TNO integrals                  ...    75.977 sec
   Reading 3-index integrals    ...     0.368 sec
   Sorting integrals            ...     8.116 sec
       Sorting integrals 1      ...     0.001 sec
       Sorting integrals 2      ...     6.313 sec
       Sorting integrals 3      ...     0.285 sec
       Sorting integrals 4      ...     0.022 sec
       Sorting integrals 5      ...     0.081 sec
       Sorting integrals 6      ...     1.415 sec
   Calculating local VM**-1/2   ...     0.334 sec
   Orthogonal. integrals        ...     0.691 sec
   Multipl. 3-index integrals   ...    66.467 sec
   All concerning IRIab (w/TNO) ...     4.560 sec

 Calculate W0/W1                ...     7.435 sec
 W 3-ext contribution           ...     4.372 sec
 W 3-int contribution           ...     1.316 sec
 Sorting W                      ...     1.616 sec

 V exchange contribution        ...     1.401 sec

 Timings for Triples without generation
     of 3-index integrals       ...    30.113 sec
       0 weak pairs             ...    24.827 sec
       1 weak pair              ...     5.286 sec
       2 weak pairs             ...     0.000 sec
       3 weak pairs             ...     0.000 sec
  Extra time for extrapolation  ...     0.000 sec

Number of Triples   (0, 1, 2, 3 weak pairs; overall):   1654     851       0       0  (  2505)
Number of Atoms     (0, 1, 2, 3 weak pairs; overall):   15.2    12.8     0.0     0.0  (    22)
Number of PAOs      (0, 1, 2, 3 weak pairs; overall):  352.5   307.2     0.0     0.0  (   478)
Number of AuxFcns   (0, 1, 2, 3 weak pairs; overall):  445.2   351.3     0.0     0.0  (  1120)
Number of TNOs      (0, 1, 2, 3 weak pairs         ):   91.3    65.9     0.0     0.0
Aver. Number of NTNO, Atoms, PAOs, AuxFcns / Triples:   2505    82.7    14.4   337.1   413.3

Triples Correction (T)                     ...     -0.084595654
Final correlation energy                   ...     -1.943124936
E(CCSD)                                    ...   -461.537394855
E(CCSD(T))                                 ...   -461.621990510



--------------------------------------------------------------------------------
                                    TIMINGS
--------------------------------------------------------------------------------


Total execution time                   ...      299.288 sec

Localization of occupied MO's          ...        0.475 sec (  0.2%)
Fock Matrix Formation                  ...        8.200 sec (  2.7%)
Global overlap, Fock, MKN matrices     ...        0.392 sec (  0.1%)
Differential overlap integrals         ...        0.572 sec (  0.2%)
Organizing maps                        ...        0.041 sec (  0.0%)
RI 3-index integral generations        ...        3.003 sec (  1.0%)
RI-PNO integral transformation         ...       77.333 sec ( 25.8%)
Initial Guess                          ...       35.586 sec ( 11.9%)
DIIS Solver                            ...        0.345 sec (  0.1%)
State Vector Update                    ...        0.018 sec (  0.0%)
Sigma-vector construction              ...       64.971 sec ( 21.7%)
  <D|H|D>(0-ext)                       ...        1.949 sec (  3.0% of sigma)
  <D|H|D>(2-ext Fock)                  ...        0.023 sec (  0.0% of sigma)
  <D|H|D>(2-ext)                       ...       10.711 sec ( 16.5% of sigma)
  <D|H|D>(4-ext)                       ...        6.548 sec ( 10.1% of sigma)
  <D|H|D>(4-ext-corr)                  ...       28.227 sec ( 43.4% of sigma)
  CCSD doubles correction              ...        0.103 sec (  0.2% of sigma)
  <S|H|S>                              ...        0.468 sec (  0.7% of sigma)
  <S|H|D>(1-ext)                       ...        0.286 sec (  0.4% of sigma)
  <D|H|S>(1-ext)                       ...        0.006 sec (  0.0% of sigma)
  <S|H|D>(3-ext)                       ...        0.107 sec (  0.2% of sigma)
  Fock-dressing                        ...        6.336 sec (  9.8% of sigma)
  Singles amplitudes                   ...        0.650 sec (  1.0% of sigma)
  (ik|jl)-dressing                     ...        1.588 sec (  2.4% of sigma)
  (ij|ab),(ia|jb)-dressing             ...        2.272 sec (  3.5% of sigma)
  Pair energies                        ...        0.103 sec (  0.2% of sigma)
Total Time for computing (T)           ...      107.858 sec ( 36.0% of ALL)


Maximum memory used throughout the entire MDCI-calculation: 3948.4 MB

-------------------------   --------------------
FINAL SINGLE POINT ENERGY      -461.621990509618
-------------------------   --------------------


                            ***************************************
                            *     ORCA property calculations      *
                            ***************************************


  WARNING: The energy has been calculated at the MDCI level but the densities
           used in the property calculations are still SCF densities
           MDCI response densities have not been calculated 
           use %mdci Density linearized end
           or  %mdci Density unrelaxed end
           or  %mdci Density orbopt end

                                    ---------------------
                                    Active property flags
                                    ---------------------
   (+) Dipole Moment


------------------------------------------------------------------------------
                       ORCA ELECTRIC PROPERTIES CALCULATION
------------------------------------------------------------------------------

Dipole Moment Calculation                       ... on
Quadrupole Moment Calculation                   ... off
Polarizability Calculation                      ... off
GBWName                                         ... /tmp/43005/DATS_14_endo_iii_DLPNO.gbw
Electron density                                ... /tmp/43005/DATS_14_endo_iii_DLPNO.scfp
The origin for moment calculation is the CENTER OF MASS  = ( 0.053329, -0.016365 -0.002831)

-------------
DIPOLE MOMENT
-------------
                                X             Y             Z
Electronic contribution:      2.46442      -0.70921      -0.07761
Nuclear contribution   :     -4.05299       1.24374       0.21518
                        -----------------------------------------
Total Dipole Moment    :     -1.58857       0.53453       0.13757
                        -----------------------------------------
Magnitude (a.u.)       :      1.68173
Magnitude (Debye)      :      4.27462



--------------------
Rotational spectrum 
--------------------
 
Rotational constants in cm-1:     0.066631     0.027824     0.025061 
Rotational constants in MHz :  1997.555729   834.130509   751.323753 

 Dipole components along the rotational axes: 
x,y,z [a.u.] :    -1.610673    -0.469662     0.115634 
x,y,z [Debye]:    -4.094005    -1.193785     0.293919 

 

Timings for individual modules:

Sum of individual times         ...      364.105 sec (=   6.068 min)
GTO integral calculation        ...        0.874 sec (=   0.015 min)   0.2 %
SCF iterations                  ...       62.765 sec (=   1.046 min)  17.2 %
MDCI module                     ...      300.466 sec (=   5.008 min)  82.5 %
                             ****ORCA TERMINATED NORMALLY****
TOTAL RUN TIME: 0 days 0 hours 6 minutes 4 seconds 643 msec
