Job Start Time: Fri Jun 24 12:50:20 MDT 2022
SLURM Job ID: 42996
SLURM Job Name: DATS_13_endo_ii_DLPNO
SLURM Job Nodes: node09
SLURM Memory / CPU: 8000

                                 *****************
                                 * O   R   C   A *
                                 *****************

                                            #,                                       
                                            ###                                      
                                            ####                                     
                                            #####                                    
                                            ######                                   
                                           ########,                                 
                                     ,,################,,,,,                         
                               ,,#################################,,                 
                          ,,##########################################,,             
                       ,#########################################, ''#####,          
                    ,#############################################,,   '####,        
                  ,##################################################,,,,####,       
                ,###########''''           ''''###############################       
              ,#####''   ,,,,##########,,,,          '''####'''          '####       
            ,##' ,,,,###########################,,,                        '##       
           ' ,,###''''                  '''############,,,                           
         ,,##''                                '''############,,,,        ,,,,,,###''
      ,#''                                            '''#######################'''  
     '                                                          ''''####''''         
             ,#######,   #######,   ,#######,      ##                                
            ,#'     '#,  ##    ##  ,#'     '#,    #''#        ######   ,####,        
            ##       ##  ##   ,#'  ##            #'  '#       #        #'  '#        
            ##       ##  #######   ##           ,######,      #####,   #    #        
            '#,     ,#'  ##    ##  '#,     ,#' ,#      #,         ##   #,  ,#        
             '#######'   ##     ##  '#######'  #'      '#     #####' # '####'        



                  #######################################################
                  #                        -***-                        #
                  #          Department of theory and spectroscopy      #
                  #    Directorship and core code : Frank Neese         #
                  #        Max Planck Institute fuer Kohlenforschung    #
                  #                Kaiser Wilhelm Platz 1               #
                  #                 D-45470 Muelheim/Ruhr               #
                  #                      Germany                        #
                  #                                                     #
                  #                  All rights reserved                #
                  #                        -***-                        #
                  #######################################################


                         Program Version 5.0.3 -  RELEASE  -


 With contributions from (in alphabetic order):
   Daniel Aravena         : Magnetic Suceptibility
   Michael Atanasov       : Ab Initio Ligand Field Theory (pilot matlab implementation)
   Alexander A. Auer      : GIAO ZORA, VPT2 properties, NMR spectrum
   Ute Becker             : Parallelization
   Giovanni Bistoni       : ED, misc. LED, open-shell LED, HFLD
   Martin Brehm           : Molecular dynamics
   Dmytro Bykov           : SCF Hessian
   Vijay G. Chilkuri      : MRCI spin determinant printing, contributions to CSF-ICE
   Dipayan Datta          : RHF DLPNO-CCSD density
   Achintya Kumar Dutta   : EOM-CC, STEOM-CC
   Dmitry Ganyushin       : Spin-Orbit,Spin-Spin,Magnetic field MRCI
   Miquel Garcia          : C-PCM and meta-GGA Hessian, CC/C-PCM, Gaussian charge scheme
   Yang Guo               : DLPNO-NEVPT2, F12-NEVPT2, CIM, IAO-localization
   Andreas Hansen         : Spin unrestricted coupled pair/coupled cluster methods
   Benjamin Helmich-Paris : MC-RPA, TRAH-SCF, COSX integrals
   Lee Huntington         : MR-EOM, pCC
   Robert Izsak           : Overlap fitted RIJCOSX, COSX-SCS-MP3, EOM
   Marcus Kettner         : VPT2
   Christian Kollmar      : KDIIS, OOCD, Brueckner-CCSD(T), CCSD density, CASPT2, CASPT2-K
   Simone Kossmann        : Meta GGA functionals, TD-DFT gradient, OOMP2, MP2 Hessian
   Martin Krupicka        : Initial AUTO-CI
   Lucas Lang             : DCDCAS
   Marvin Lechner         : AUTO-CI (C++ implementation), FIC-MRCC
   Dagmar Lenk            : GEPOL surface, SMD
   Dimitrios Liakos       : Extrapolation schemes; Compound Job, initial MDCI parallelization
   Dimitrios Manganas     : Further ROCIS development; embedding schemes
   Dimitrios Pantazis     : SARC Basis sets
   Anastasios Papadopoulos: AUTO-CI, single reference methods and gradients
   Taras Petrenko         : DFT Hessian,TD-DFT gradient, ASA, ECA, R-Raman, ABS, FL, XAS/XES, NRVS
   Peter Pinski           : DLPNO-MP2, DLPNO-MP2 Gradient
   Christoph Reimann      : Effective Core Potentials
   Marius Retegan         : Local ZFS, SOC
   Christoph Riplinger    : Optimizer, TS searches, QM/MM, DLPNO-CCSD(T), (RO)-DLPNO pert. Triples
   Tobias Risthaus        : Range-separated hybrids, TD-DFT gradient, RPA, STAB
   Michael Roemelt        : Original ROCIS implementation
   Masaaki Saitow         : Open-shell DLPNO-CCSD energy and density
   Barbara Sandhoefer     : DKH picture change effects
   Avijit Sen             : IP-ROCIS
   Kantharuban Sivalingam : CASSCF convergence, NEVPT2, FIC-MRCI
   Bernardo de Souza      : ESD, SOC TD-DFT
   Georgi Stoychev        : AutoAux, RI-MP2 NMR, DLPNO-MP2 response
   Willem Van den Heuvel  : Paramagnetic NMR
   Boris Wezisla          : Elementary symmetry handling
   Frank Wennmohs         : Technical directorship


 We gratefully acknowledge several colleagues who have allowed us to
 interface, adapt or use parts of their codes:
   Stefan Grimme, W. Hujo, H. Kruse, P. Pracht,  : VdW corrections, initial TS optimization,
                  C. Bannwarth, S. Ehlert          DFT functionals, gCP, sTDA/sTD-DF
   Ed Valeev, F. Pavosevic, A. Kumar             : LibInt (2-el integral package), F12 methods
   Garnet Chan, S. Sharma, J. Yang, R. Olivares  : DMRG
   Ulf Ekstrom                                   : XCFun DFT Library
   Mihaly Kallay                                 : mrcc  (arbitrary order and MRCC methods)
   Jiri Pittner, Ondrej Demel                    : Mk-CCSD
   Frank Weinhold                                : gennbo (NPA and NBO analysis)
   Christopher J. Cramer and Donald G. Truhlar   : smd solvation model
   Lars Goerigk                                  : TD-DFT with DH, B97 family of functionals
   V. Asgeirsson, H. Jonsson                     : NEB implementation
   FAccTs GmbH                                   : IRC, NEB, NEB-TS, DLPNO-Multilevel, CI-OPT
                                                   MM, QMMM, 2- and 3-layer-ONIOM, Crystal-QMMM,
                                                   LR-CPCM, SF, NACMEs, symmetry and pop. for TD-DFT,
                                                   nearIR, NL-DFT gradient (VV10), updates on ESD,
                                                   ML-optimized integration grids
   S Lehtola, MJT Oliveira, MAL Marques          : LibXC Library
   Liviu Ungur et al                             : ANISO software


 Your calculation uses the libint2 library for the computation of 2-el integrals
 For citations please refer to: http://libint.valeyev.net

 Your ORCA version has been built with support for libXC version: 5.1.0
 For citations please refer to: https://tddft.org/programs/libxc/

 This ORCA versions uses:
   CBLAS   interface :  Fast vector & matrix operations
   LAPACKE interface :  Fast linear algebra routines
   SCALAPACK package :  Parallel linear algebra routines
   Shared memory     :  Shared parallel matrices
   BLAS/LAPACK       :  OpenBLAS 0.3.15  USE64BITINT DYNAMIC_ARCH NO_AFFINITY Zen SINGLE_THREADED
        Core in use  :  Zen
   Copyright (c) 2011-2014, The OpenBLAS Project


================================================================================

----- Orbital basis set information -----
Your calculation utilizes the basis: def2-TZVPP
   F. Weigend and R. Ahlrichs, Phys. Chem. Chem. Phys. 7, 3297 (2005).

----- AuxC basis set information -----
Your calculation utilizes the auxiliary basis: def2-TZVPP/C
  H-La, Hf-Rn : A. Hellweg, C. Hattig, S. Hofener and W. Klopper, Theor. Chem. Acc. 117, 587 (2007).
        Ce-Lu : J. Chmela and M. E. Harding, Mol. Phys. (2018).

================================================================================
                                        WARNINGS
                       Please study these warnings very carefully!
================================================================================


WARNING: Post HF methods need fully converged wavefunctions
  ===> : Setting SCFConvForced true
         You can overwrite this default with %scf ConvForced false 


WARNING: MDCI localization with Augmented Hessian Foster-Boys
  ===> : Switching off randomization!

INFO   : the flag for use of the SHARK integral package has been found!

================================================================================
                                       INPUT FILE
================================================================================
NAME = /tmp/42996/DATS_13_endo_ii_DLPNO.inp
|  1> # DATS_13_endo_ii_DLPNO
|  2> %maxcore 4000
|  3> %pal nprocs 16 end
|  4> ! pal16 DLPNO-CCSD(T) def2-tzvpp def2-tzvpp/C
|  5> 
|  6> * xyz 0 1
|  7>  C   2.32405000  -0.19146600  -0.07761900
|  8>  C   1.53992700   1.68306600  -0.18386000
|  9>  C  -0.42835500   0.38007600   1.41239800
| 10>  C   1.49925000  -1.01476400   0.68083100
| 11>  H   2.30529300  -0.35220300  -1.15049500
| 12>  H   3.27676500   0.12354800   0.33855200
| 13>  H   1.70538700  -1.23731800   1.72277400
| 14>  C   0.23595600   1.51906800  -0.62121400
| 15>  C  -0.73973800   0.87438000   0.16766800
| 16>  H   2.24898400   2.16124900  -0.85363700
| 17>  H  -1.11899600  -0.23025600   1.98192300
| 18>  H   1.73575600   1.86767400   0.86786100
| 19>  H   0.38278200   0.82116100   1.97243900
| 20>  C   0.45805600  -1.77050400  -0.00527200
| 21>  O   0.16574300  -1.59953700  -1.17692200
| 22>  H  -0.09130900  -2.51213500   0.61216700
| 23>  O  -1.89312900   0.60768000  -0.49956200
| 24>  C  -2.80076000  -0.28315000   0.10360400
| 25>  H  -3.64273100  -0.36950900  -0.58275500
| 26>  H  -2.34498600  -1.27114200   0.24274900
| 27>  H  -3.15562900   0.09703600   1.07015300
| 28>  H  -0.01254900   1.65651100  -1.66907800
| 29> **                         ****END OF INPUT****
================================================================================

                       ****************************
                       * Single Point Calculation *
                       ****************************

---------------------------------
CARTESIAN COORDINATES (ANGSTROEM)
---------------------------------
  C      2.324050   -0.191466   -0.077619
  C      1.539927    1.683066   -0.183860
  C     -0.428355    0.380076    1.412398
  C      1.499250   -1.014764    0.680831
  H      2.305293   -0.352203   -1.150495
  H      3.276765    0.123548    0.338552
  H      1.705387   -1.237318    1.722774
  C      0.235956    1.519068   -0.621214
  C     -0.739738    0.874380    0.167668
  H      2.248984    2.161249   -0.853637
  H     -1.118996   -0.230256    1.981923
  H      1.735756    1.867674    0.867861
  H      0.382782    0.821161    1.972439
  C      0.458056   -1.770504   -0.005272
  O      0.165743   -1.599537   -1.176922
  H     -0.091309   -2.512135    0.612167
  O     -1.893129    0.607680   -0.499562
  C     -2.800760   -0.283150    0.103604
  H     -3.642731   -0.369509   -0.582755
  H     -2.344986   -1.271142    0.242749
  H     -3.155629    0.097036    1.070153
  H     -0.012549    1.656511   -1.669078

----------------------------
CARTESIAN COORDINATES (A.U.)
----------------------------
  NO LB      ZA    FRAG     MASS         X           Y           Z
   0 C     6.0000    0    12.011    4.391818   -0.361818   -0.146679
   1 C     6.0000    0    12.011    2.910040    3.180534   -0.347445
   2 C     6.0000    0    12.011   -0.809474    0.718240    2.669045
   3 C     6.0000    0    12.011    2.833172   -1.917626    1.286584
   4 H     1.0000    0     1.008    4.356372   -0.665567   -2.174120
   5 H     1.0000    0     1.008    6.192188    0.233472    0.639771
   6 H     1.0000    0     1.008    3.222714   -2.338192    3.255571
   7 C     6.0000    0    12.011    0.445892    2.870622   -1.173924
   8 C     6.0000    0    12.011   -1.397902    1.652339    0.316847
   9 H     1.0000    0     1.008    4.249964    4.084169   -1.613140
  10 H     1.0000    0     1.008   -2.114596   -0.435121    3.745292
  11 H     1.0000    0     1.008    3.280103    3.529392    1.640020
  12 H     1.0000    0     1.008    0.723353    1.551769    3.727370
  13 C     6.0000    0    12.011    0.865600   -3.345768   -0.009963
  14 O     8.0000    0    15.999    0.313209   -3.022687   -2.224060
  15 H     1.0000    0     1.008   -0.172549   -4.747247    1.156828
  16 O     8.0000    0    15.999   -3.577495    1.148349   -0.944035
  17 C     6.0000    0    12.011   -5.292669   -0.535076    0.195783
  18 H     1.0000    0     1.008   -6.883764   -0.698271   -1.101247
  19 H     1.0000    0     1.008   -4.431381   -2.402110    0.458729
  20 H     1.0000    0     1.008   -5.963275    0.183371    2.022296
  21 H     1.0000    0     1.008   -0.023714    3.130352   -3.154100

--------------------------------
INTERNAL COORDINATES (ANGSTROEM)
--------------------------------
 C      0   0   0     0.000000000000     0.00000000     0.00000000
 C      1   0   0     2.034700530357     0.00000000     0.00000000
 C      2   1   0     2.849553750009    79.37826854     0.00000000
 C      1   2   3     1.390453537269   110.20495511   359.87038026
 H      1   2   3     1.085012036612    94.48446575   119.91329936
 H      1   2   3     1.086323152962    95.21112268   236.48063069
 H      4   1   2     1.085204110264   122.17296007   260.70036570
 C      2   1   3     1.385104412729   105.67662870   307.59669223
 C      3   2   1     1.375008578157    58.99843366   243.88790147
 H      2   1   3     1.086288194020   100.73075269   184.08719262
 H      3   2   1     1.083443061139   172.91295042   346.38580359
 H      2   1   3     1.085608664642    92.09537519    69.30689950
 H      3   2   1     1.079881998959    65.47504880    88.92633378
 C      4   1   2     1.458069003801   118.28220649    90.97800184
 O     14   4   1     1.219606628204   123.40450761   350.80684745
 H     14   4   1     1.110427558244   115.96421755   172.40005998
 O      9   3   2     1.358909695963   124.48138124   168.57391489
 C     17   9   3     1.407544437884   117.45910643   357.04350578
 H     18  17   9     1.089707171034   106.16974043   180.50157253
 H     18  17   9     1.096913607430   110.88405363   299.04951834
 H     18  17   9     1.097583878871   111.50763202    61.41443194
 H      8   2   1     1.085663058122   120.34871665   261.78541305

---------------------------
INTERNAL COORDINATES (A.U.)
---------------------------
 C      0   0   0     0.000000000000     0.00000000     0.00000000
 C      1   0   0     3.845026766919     0.00000000     0.00000000
 C      2   1   0     5.384876191405    79.37826854     0.00000000
 C      1   2   3     2.627576387381   110.20495511   359.87038026
 H      1   2   3     2.050375601206    94.48446575   119.91329936
 H      1   2   3     2.052853252037    95.21112268   236.48063069
 H      4   1   2     2.050738567805   122.17296007   260.70036570
 C      2   1   3     2.617468006943   105.67662870   307.59669223
 C      3   2   1     2.598389644509    58.99843366   243.88790147
 H      2   1   3     2.052787189210   100.73075269   184.08719262
 H      3   2   1     2.047410667250   172.91295042   346.38580359
 H      2   1   3     2.051503064786    92.09537519    69.30689950
 H      3   2   1     2.040681234983    65.47504880    88.92633378
 C      4   1   2     2.755351101543   118.28220649    90.97800184
 O     14   4   1     2.304722518420   123.40450761   350.80684745
 H     14   4   1     2.098403976639   115.96421755   172.40005998
 O      9   3   2     2.567967166099   124.48138124   168.57391489
 C     17   9   3     2.659873508924   117.45910643   357.04350578
 H     18  17   9     2.059248119424   106.16974043   180.50157253
 H     18  17   9     2.072866310614   110.88405363   299.04951834
 H     18  17   9     2.074132940074   111.50763202    61.41443194
 H      8   2   1     2.051605853565   120.34871665   261.78541305

---------------------
BASIS SET INFORMATION
---------------------
There are 3 groups of distinct atoms

 Group   1 Type C   : 11s6p2d1f contracted to 5s3p2d1f pattern {62111/411/11/1}
 Group   2 Type H   : 5s2p1d contracted to 3s2p1d pattern {311/11/1}
 Group   3 Type O   : 11s6p2d1f contracted to 5s3p2d1f pattern {62111/411/11/1}

Atom   0C    basis set group =>   1
Atom   1C    basis set group =>   1
Atom   2C    basis set group =>   1
Atom   3C    basis set group =>   1
Atom   4H    basis set group =>   2
Atom   5H    basis set group =>   2
Atom   6H    basis set group =>   2
Atom   7C    basis set group =>   1
Atom   8C    basis set group =>   1
Atom   9H    basis set group =>   2
Atom  10H    basis set group =>   2
Atom  11H    basis set group =>   2
Atom  12H    basis set group =>   2
Atom  13C    basis set group =>   1
Atom  14O    basis set group =>   3
Atom  15H    basis set group =>   2
Atom  16O    basis set group =>   3
Atom  17C    basis set group =>   1
Atom  18H    basis set group =>   2
Atom  19H    basis set group =>   2
Atom  20H    basis set group =>   2
Atom  21H    basis set group =>   2
---------------------------------
AUXILIARY/C BASIS SET INFORMATION
---------------------------------
There are 3 groups of distinct atoms

 Group   1 Type C   : 8s6p5d3f1g contracted to 8s6p4d3f1g pattern {11111111/111111/2111/111/1}
 Group   2 Type H   : 4s3p2d1f contracted to 4s3p2d1f pattern {1111/111/11/1}
 Group   3 Type O   : 8s6p5d3f1g contracted to 8s6p4d3f1g pattern {11111111/111111/2111/111/1}

Atom   0C    basis set group =>   1
Atom   1C    basis set group =>   1
Atom   2C    basis set group =>   1
Atom   3C    basis set group =>   1
Atom   4H    basis set group =>   2
Atom   5H    basis set group =>   2
Atom   6H    basis set group =>   2
Atom   7C    basis set group =>   1
Atom   8C    basis set group =>   1
Atom   9H    basis set group =>   2
Atom  10H    basis set group =>   2
Atom  11H    basis set group =>   2
Atom  12H    basis set group =>   2
Atom  13C    basis set group =>   1
Atom  14O    basis set group =>   3
Atom  15H    basis set group =>   2
Atom  16O    basis set group =>   3
Atom  17C    basis set group =>   1
Atom  18H    basis set group =>   2
Atom  19H    basis set group =>   2
Atom  20H    basis set group =>   2
Atom  21H    basis set group =>   2


           ************************************************************
           *        Program running with 16 parallel MPI-processes    *
           *              working on a common directory               *
           ************************************************************
------------------------------------------------------------------------------
                           ORCA GTO INTEGRAL CALCULATION
------------------------------------------------------------------------------
------------------------------------------------------------------------------
                   ___                                                        
                  /   \      - P O W E R E D   B Y -                         
                 /     \                                                     
                 |  |  |   _    _      __       _____    __    __             
                 |  |  |  | |  | |    /  \     |  _  \  |  |  /  |          
                  \  \/   | |  | |   /    \    | | | |  |  | /  /          
                 / \  \   | |__| |  /  /\  \   | |_| |  |  |/  /          
                |  |  |   |  __  | /  /__\  \  |    /   |      \           
                |  |  |   | |  | | |   __   |  |    \   |  |\   \          
                \     /   | |  | | |  |  |  |  | |\  \  |  | \   \       
                 \___/    |_|  |_| |__|  |__|  |_| \__\ |__|  \__/        
                                                                              
                      - O R C A' S   B I G   F R I E N D -                    
                                      &                                       
                       - I N T E G R A L  F E E D E R -                       
                                                                              
 v1 FN, 2020, v2 2021                                                         
------------------------------------------------------------------------------


Reading SHARK input file /tmp/42996/DATS_13_endo_ii_DLPNO.SHARKINP.tmp ... ok
----------------------
SHARK INTEGRAL PACKAGE
----------------------

Number of atoms                             ...     22
Number of basis functions                   ...    478
Number of shells                            ...    182
Maximum angular momentum                    ...      3
Integral batch strategy                     ... SHARK/LIBINT Hybrid
RI-J (if used) integral strategy            ... SPLIT-RIJ (Revised 2003 algorithm where possible)
Printlevel                                  ...      1
Contraction scheme used                     ... SEGMENTED contraction
Coulomb Range Separation                    ... NOT USED
Exchange Range Separation                   ... NOT USED
Finite Nucleus Model                        ... NOT USED
Auxiliary Coulomb fitting basis             ... NOT available
Auxiliary J/K fitting basis                 ... NOT available
Auxiliary Correlation fitting basis         ... AVAILABLE
   # of basis functions in Aux-C            ...   1120
   # of shells in Aux-C                     ...    340
   Maximum angular momentum in Aux-C        ...      4
Auxiliary 'external' fitting basis          ... NOT available
Integral threshold                          ...     1.000000e-10
Primitive cut-off                           ...     1.000000e-11
Primitive pair pre-selection threshold      ...     1.000000e-11

Calculating pre-screening integrals         ... done (  0.0 sec) Dimension = 182
Organizing shell pair data                  ... done (  0.2 sec)
Shell pair information
Total number of shell pairs                 ...     16653
Shell pairs after pre-screening             ...     14690
Total number of primitive shell pairs       ...     44212
Primitive shell pairs kept                  ...     29270
          la=0 lb=0:   3243 shell pairs
          la=1 lb=0:   4149 shell pairs
          la=1 lb=1:   1365 shell pairs
          la=2 lb=0:   2329 shell pairs
          la=2 lb=1:   1531 shell pairs
          la=2 lb=2:    452 shell pairs
          la=3 lb=0:    775 shell pairs
          la=3 lb=1:    502 shell pairs
          la=3 lb=2:    290 shell pairs
          la=3 lb=3:     54 shell pairs

Calculating one electron integrals          ... done (  0.0 sec)
Calculating RI/C V-Matrix + Cholesky decomp.... done (  0.0 sec)
Calculating Nuclear repulsion               ... done (  0.0 sec) ENN=    549.444040690043 Eh

SHARK setup successfully completed in   0.4 seconds

Maximum memory used throughout the entire GTOINT-calculation: 26.9 MB


           ************************************************************
           *        Program running with 16 parallel MPI-processes    *
           *              working on a common directory               *
           ************************************************************
-------------------------------------------------------------------------------
                                 ORCA SCF
-------------------------------------------------------------------------------

------------
SCF SETTINGS
------------
Hamiltonian:
 Ab initio Hamiltonian  Method          .... Hartree-Fock(GTOs)


General Settings:
 Integral files         IntName         .... /tmp/42996/DATS_13_endo_ii_DLPNO
 Hartree-Fock type      HFTyp           .... RHF
 Total Charge           Charge          ....    0
 Multiplicity           Mult            ....    1
 Number of Electrons    NEL             ....   76
 Basis Dimension        Dim             ....  478
 Nuclear Repulsion      ENuc            ....    549.4440406900 Eh

Convergence Acceleration:
 DIIS                   CNVDIIS         .... on
   Start iteration      DIISMaxIt       ....    12
   Startup error        DIISStart       ....  0.200000
   # of expansion vecs  DIISMaxEq       ....     5
   Bias factor          DIISBfac        ....   1.050
   Max. coefficient     DIISMaxC        ....  10.000
 Trust-Rad. Augm. Hess. CNVTRAH         .... auto
   Auto Start mean grad. ratio tolernc. ....  1.125000
   Auto Start start iteration           ....    20
   Auto Start num. interpolation iter.  ....    10
   Max. Number of Micro iterations      ....    16
   Max. Number of Macro iterations      .... Maxiter - #DIIS iter
   Number of Davidson start vectors     ....     2
   Converg. threshold I  (grad. norm)   ....   5.000e-05
   Converg. threshold II (energy diff.) ....   1.000e-06
   Grad. Scal. Fac. for Micro threshold ....   0.100
   Minimum threshold for Micro iter.    ....   0.010
   NR start threshold (gradient norm)   ....   0.001
   Initial trust radius                 ....   0.400
   Minimum AH scaling param. (alpha)    ....   1.000
   Maximum AH scaling param. (alpha)    .... 1000.000
   Orbital update algorithm             .... Taylor
   White noise on init. David. guess    .... on
   Maximum white noise                  ....   0.010
   Quad. conv. algorithm                .... NR
 SOSCF                  CNVSOSCF        .... on
   Start iteration      SOSCFMaxIt      ....   150
   Startup grad/error   SOSCFStart      ....  0.003300
 Level Shifting         CNVShift        .... on
   Level shift para.    LevelShift      ....    0.2500
   Turn off err/grad.   ShiftErr        ....    0.0010
 Zerner damping         CNVZerner       .... off
 Static damping         CNVDamp         .... on
   Fraction old density DampFac         ....    0.7000
   Max. Damping (<1)    DampMax         ....    0.9800
   Min. Damping (>=0)   DampMin         ....    0.0000
   Turn off err/grad.   DampErr         ....    0.1000
 Fernandez-Rico         CNVRico         .... off

SCF Procedure:
 Maximum # iterations   MaxIter         ....   125
 SCF integral mode      SCFMode         .... Direct
   Integral package                     .... SHARK and LIBINT hybrid scheme
 Reset frequency        DirectResetFreq ....    20
 Integral Threshold     Thresh          ....  1.000e-10 Eh
 Primitive CutOff       TCut            ....  1.000e-11 Eh

Convergence Tolerance:
 Convergence Check Mode ConvCheckMode   .... Total+1el-Energy
 Convergence forced     ConvForced      .... 1
 Energy Change          TolE            ....  1.000e-06 Eh
 1-El. energy change                    ....  1.000e-03 Eh
 Orbital Gradient       TolG            ....  5.000e-05
 Orbital Rotation angle TolX            ....  5.000e-05
 DIIS Error             TolErr          ....  1.000e-06


Diagonalization of the overlap matrix:
Smallest eigenvalue                        ... 4.997e-05
Time for diagonalization                   ...    0.028 sec
Threshold for overlap eigenvalues          ... 1.000e-08
Number of eigenvalues below threshold      ... 0
Time for construction of square roots      ...    0.025 sec
Total time needed                          ...    0.054 sec

Time for model grid setup =    0.078 sec

------------------------------
INITIAL GUESS: MODEL POTENTIAL
------------------------------
Loading Hartree-Fock densities                     ... done
Calculating cut-offs                               ... done
Initializing the effective Hamiltonian             ... done
Setting up the integral package (SHARK)            ... done
Starting the Coulomb interaction                   ... done (   0.5 sec)
Reading the grid                                   ... done
Mapping shells                                     ... done
Starting the XC term evaluation                    ... done (   0.0 sec)
Transforming the Hamiltonian                       ... done (   0.0 sec)
Diagonalizing the Hamiltonian                      ... done (   0.0 sec)
Back transforming the eigenvectors                 ... done (   0.0 sec)
Now organizing SCF variables                       ... done
                      ------------------
                      INITIAL GUESS DONE (   0.7 sec)
                      ------------------
--------------
SCF ITERATIONS
--------------
ITER       Energy         Delta-E        Max-DP      RMS-DP      [F,P]     Damp
               ***  Starting incremental Fock matrix formation  ***
  0   -459.2393614094   0.000000000000 0.05658830  0.00069647  0.2993837 0.7000
  1   -459.3883898309  -0.149028421520 0.05181422  0.00057272  0.2200610 0.7000
                               ***Turning on DIIS***
  2   -459.4793379809  -0.090948150010 0.01971778  0.00036717  0.1629375 0.7000
  3   -460.6914500671  -1.212112086183 0.01018298  0.00022834  0.1203729 0.7000
  4   -460.5103884014   0.181061665717 0.05120348  0.00058377  0.0846172 0.0000
  5   -459.7083464906   0.802041910832 0.01247968  0.00010019  0.0045124 0.0000
                      *** Initiating the SOSCF procedure ***
                           *** Shutting down DIIS ***
                      *** Re-Reading the Fockian *** 
                      *** Removing any level shift *** 
ITER      Energy       Delta-E        Grad      Rot      Max-DP    RMS-DP
  6   -459.67934173   0.0290047559  0.001722  0.001722  0.009797  0.000066
               *** Restarting incremental Fock matrix formation ***
  7   -459.67265750   0.0066842306  0.001333  0.003444  0.004024  0.000040
  8   -459.67271296  -0.0000554598  0.000708  0.004644  0.008076  0.000065
  9   -459.67274324  -0.0000302716  0.000197  0.000488  0.001839  0.000015
 10   -459.67274645  -0.0000032104  0.000074  0.000328  0.001010  0.000008
 11   -459.67274712  -0.0000006785  0.000047  0.000269  0.000110  0.000002
                 **** Energy Check signals convergence ****
              ***Rediagonalizing the Fockian in SOSCF/NRSCF***

               *****************************************************
               *                     SUCCESS                       *
               *           SCF CONVERGED AFTER  12 CYCLES          *
               *****************************************************


----------------
TOTAL SCF ENERGY
----------------

Total Energy       :         -459.67274724 Eh          -12508.33136 eV

Components:
Nuclear Repulsion  :          549.44404069 Eh           14951.13245 eV
Electronic Energy  :        -1009.11678793 Eh          -27459.46381 eV
One Electron Energy:        -1716.27934201 Eh          -46702.33520 eV
Two Electron Energy:          707.16255408 Eh           19242.87139 eV

Virial components:
Potential Energy   :         -918.82887581 Eh          -25002.60482 eV
Kinetic Energy     :          459.15612857 Eh           12494.27346 eV
Virial Ratio       :            2.00112515


---------------
SCF CONVERGENCE
---------------

  Last Energy change         ...   -1.1793e-07  Tolerance :   1.0000e-06
  Last MAX-Density change    ...    9.9923e-05  Tolerance :   1.0000e-05
  Last RMS-Density change    ...    1.1133e-06  Tolerance :   1.0000e-06
  Last Orbital Gradient      ...    1.2750e-05  Tolerance :   5.0000e-05
  Last Orbital Rotation      ...    4.6187e-05  Tolerance :   5.0000e-05

             **** THE GBW FILE WAS UPDATED (/tmp/42996/DATS_13_endo_ii_DLPNO.gbw) ****
             **** DENSITY /tmp/42996/DATS_13_endo_ii_DLPNO.scfp WAS UPDATED ****
             **** ENERGY FILE WAS UPDATED (/tmp/42996/DATS_13_endo_ii_DLPNO.en.tmp) ****
             **** THE GBW FILE WAS UPDATED (/tmp/42996/DATS_13_endo_ii_DLPNO.gbw) ****
             **** DENSITY /tmp/42996/DATS_13_endo_ii_DLPNO.scfp WAS UPDATED ****
----------------
ORBITAL ENERGIES
----------------

  NO   OCC          E(Eh)            E(eV) 
   0   2.0000     -20.575168      -559.8788 
   1   2.0000     -20.519723      -558.3700 
   2   2.0000     -11.310592      -307.7769 
   3   2.0000     -11.296141      -307.3836 
   4   2.0000     -11.275789      -306.8298 
   5   2.0000     -11.254158      -306.2412 
   6   2.0000     -11.247703      -306.0656 
   7   2.0000     -11.241120      -305.8864 
   8   2.0000     -11.237717      -305.7938 
   9   2.0000     -11.234428      -305.7043 
  10   2.0000      -1.407522       -38.3006 
  11   2.0000      -1.360120       -37.0107 
  12   2.0000      -1.109099       -30.1801 
  13   2.0000      -1.047876       -28.5142 
  14   2.0000      -0.996728       -27.1224 
  15   2.0000      -0.954505       -25.9734 
  16   2.0000      -0.884968       -24.0812 
  17   2.0000      -0.844426       -22.9780 
  18   2.0000      -0.750716       -20.4280 
  19   2.0000      -0.724850       -19.7242 
  20   2.0000      -0.700795       -19.0696 
  21   2.0000      -0.690455       -18.7882 
  22   2.0000      -0.661551       -18.0017 
  23   2.0000      -0.653205       -17.7746 
  24   2.0000      -0.620430       -16.8828 
  25   2.0000      -0.605429       -16.4746 
  26   2.0000      -0.580666       -15.8007 
  27   2.0000      -0.566677       -15.4201 
  28   2.0000      -0.561025       -15.2663 
  29   2.0000      -0.544000       -14.8030 
  30   2.0000      -0.534043       -14.5320 
  31   2.0000      -0.516854       -14.0643 
  32   2.0000      -0.497773       -13.5451 
  33   2.0000      -0.490917       -13.3585 
  34   2.0000      -0.447694       -12.1824 
  35   2.0000      -0.406858       -11.0712 
  36   2.0000      -0.326816        -8.8931 
  37   2.0000      -0.298686        -8.1277 
  38   0.0000       0.061094         1.6624 
  39   0.0000       0.131334         3.5738 
  40   0.0000       0.139324         3.7912 
  41   0.0000       0.149892         4.0788 
  42   0.0000       0.161910         4.4058 
  43   0.0000       0.181913         4.9501 
  44   0.0000       0.191674         5.2157 
  45   0.0000       0.201087         5.4719 
  46   0.0000       0.204317         5.5597 
  47   0.0000       0.207821         5.6551 
  48   0.0000       0.220353         5.9961 
  49   0.0000       0.227224         6.1831 
  50   0.0000       0.233273         6.3477 
  51   0.0000       0.238841         6.4992 
  52   0.0000       0.256231         6.9724 
  53   0.0000       0.280668         7.6374 
  54   0.0000       0.289118         7.8673 
  55   0.0000       0.295749         8.0478 
  56   0.0000       0.302318         8.2265 
  57   0.0000       0.320778         8.7288 
  58   0.0000       0.321915         8.7598 
  59   0.0000       0.333880         9.0853 
  60   0.0000       0.339484         9.2378 
  61   0.0000       0.350415         9.5353 
  62   0.0000       0.360910         9.8209 
  63   0.0000       0.382378        10.4050 
  64   0.0000       0.391473        10.6525 
  65   0.0000       0.397060        10.8046 
  66   0.0000       0.425982        11.5916 
  67   0.0000       0.427585        11.6352 
  68   0.0000       0.440396        11.9838 
  69   0.0000       0.447262        12.1706 
  70   0.0000       0.463966        12.6252 
  71   0.0000       0.476912        12.9774 
  72   0.0000       0.496055        13.4983 
  73   0.0000       0.505184        13.7467 
  74   0.0000       0.514564        14.0020 
  75   0.0000       0.526572        14.3288 
  76   0.0000       0.532345        14.4858 
  77   0.0000       0.534012        14.5312 
  78   0.0000       0.543492        14.7892 
  79   0.0000       0.557796        15.1784 
  80   0.0000       0.560136        15.2421 
  81   0.0000       0.568746        15.4764 
  82   0.0000       0.574488        15.6326 
  83   0.0000       0.577083        15.7032 
  84   0.0000       0.582594        15.8532 
  85   0.0000       0.600413        16.3381 
  86   0.0000       0.605347        16.4723 
  87   0.0000       0.616697        16.7812 
  88   0.0000       0.632545        17.2124 
  89   0.0000       0.639546        17.4029 
  90   0.0000       0.644139        17.5279 
  91   0.0000       0.658322        17.9138 
  92   0.0000       0.663247        18.0479 
  93   0.0000       0.668116        18.1804 
  94   0.0000       0.676470        18.4077 
  95   0.0000       0.695352        18.9215 
  96   0.0000       0.707077        19.2406 
  97   0.0000       0.721976        19.6460 
  98   0.0000       0.725114        19.7314 
  99   0.0000       0.730612        19.8810 
 100   0.0000       0.751096        20.4384 
 101   0.0000       0.756582        20.5877 
 102   0.0000       0.775636        21.1061 
 103   0.0000       0.796281        21.6679 
 104   0.0000       0.806024        21.9330 
 105   0.0000       0.817582        22.2475 
 106   0.0000       0.839825        22.8528 
 107   0.0000       0.852101        23.1869 
 108   0.0000       0.853446        23.2234 
 109   0.0000       0.879741        23.9390 
 110   0.0000       0.894076        24.3290 
 111   0.0000       0.903348        24.5814 
 112   0.0000       0.922118        25.0921 
 113   0.0000       0.929692        25.2982 
 114   0.0000       0.947170        25.7738 
 115   0.0000       0.967649        26.3311 
 116   0.0000       0.975470        26.5439 
 117   0.0000       0.982747        26.7419 
 118   0.0000       0.989642        26.9295 
 119   0.0000       1.001542        27.2533 
 120   0.0000       1.031445        28.0671 
 121   0.0000       1.047729        28.5101 
 122   0.0000       1.058977        28.8162 
 123   0.0000       1.081843        29.4384 
 124   0.0000       1.090194        29.6657 
 125   0.0000       1.100009        29.9328 
 126   0.0000       1.118470        30.4351 
 127   0.0000       1.121213        30.5098 
 128   0.0000       1.132205        30.8089 
 129   0.0000       1.147468        31.2242 
 130   0.0000       1.149700        31.2849 
 131   0.0000       1.159046        31.5393 
 132   0.0000       1.186341        32.2820 
 133   0.0000       1.193748        32.4835 
 134   0.0000       1.209704        32.9177 
 135   0.0000       1.212366        32.9901 
 136   0.0000       1.222874        33.2761 
 137   0.0000       1.235658        33.6240 
 138   0.0000       1.247960        33.9587 
 139   0.0000       1.253705        34.1150 
 140   0.0000       1.264739        34.4153 
 141   0.0000       1.272057        34.6144 
 142   0.0000       1.285361        34.9765 
 143   0.0000       1.294082        35.2138 
 144   0.0000       1.306745        35.5583 
 145   0.0000       1.307281        35.5729 
 146   0.0000       1.324512        36.0418 
 147   0.0000       1.341667        36.5086 
 148   0.0000       1.349110        36.7112 
 149   0.0000       1.358049        36.9544 
 150   0.0000       1.376419        37.4543 
 151   0.0000       1.390588        37.8398 
 152   0.0000       1.415550        38.5191 
 153   0.0000       1.420134        38.6438 
 154   0.0000       1.436401        39.0865 
 155   0.0000       1.443162        39.2704 
 156   0.0000       1.456107        39.6227 
 157   0.0000       1.484280        40.3893 
 158   0.0000       1.501054        40.8457 
 159   0.0000       1.511858        41.1397 
 160   0.0000       1.514642        41.2155 
 161   0.0000       1.534429        41.7539 
 162   0.0000       1.549805        42.1723 
 163   0.0000       1.552177        42.2369 
 164   0.0000       1.561064        42.4787 
 165   0.0000       1.572159        42.7806 
 166   0.0000       1.576175        42.8899 
 167   0.0000       1.588276        43.2192 
 168   0.0000       1.605277        43.6818 
 169   0.0000       1.611766        43.8584 
 170   0.0000       1.626236        44.2521 
 171   0.0000       1.643103        44.7111 
 172   0.0000       1.658074        45.1185 
 173   0.0000       1.667947        45.3871 
 174   0.0000       1.684568        45.8394 
 175   0.0000       1.693004        46.0690 
 176   0.0000       1.701122        46.2899 
 177   0.0000       1.715459        46.6800 
 178   0.0000       1.731136        47.1066 
 179   0.0000       1.747359        47.5481 
 180   0.0000       1.765486        48.0413 
 181   0.0000       1.773258        48.2528 
 182   0.0000       1.793940        48.8156 
 183   0.0000       1.799057        48.9548 
 184   0.0000       1.811928        49.3051 
 185   0.0000       1.824563        49.6489 
 186   0.0000       1.850628        50.3581 
 187   0.0000       1.857026        50.5322 
 188   0.0000       1.875693        51.0402 
 189   0.0000       1.876896        51.0729 
 190   0.0000       1.910297        51.9818 
 191   0.0000       1.924420        52.3661 
 192   0.0000       1.927998        52.4635 
 193   0.0000       1.938925        52.7608 
 194   0.0000       1.943014        52.8721 
 195   0.0000       1.976271        53.7771 
 196   0.0000       2.007331        54.6222 
 197   0.0000       2.024090        55.0783 
 198   0.0000       2.046708        55.6938 
 199   0.0000       2.075366        56.4736 
 200   0.0000       2.113059        57.4993 
 201   0.0000       2.118440        57.6457 
 202   0.0000       2.138654        58.1957 
 203   0.0000       2.149154        58.4815 
 204   0.0000       2.166174        58.9446 
 205   0.0000       2.172157        59.1074 
 206   0.0000       2.227539        60.6144 
 207   0.0000       2.238766        60.9199 
 208   0.0000       2.260147        61.5017 
 209   0.0000       2.286535        62.2198 
 210   0.0000       2.299898        62.5834 
 211   0.0000       2.321659        63.1756 
 212   0.0000       2.346628        63.8550 
 213   0.0000       2.352946        64.0269 
 214   0.0000       2.374839        64.6226 
 215   0.0000       2.395220        65.1772 
 216   0.0000       2.427305        66.0503 
 217   0.0000       2.464040        67.0499 
 218   0.0000       2.477121        67.4059 
 219   0.0000       2.487939        67.7003 
 220   0.0000       2.522189        68.6323 
 221   0.0000       2.549846        69.3848 
 222   0.0000       2.567983        69.8784 
 223   0.0000       2.591362        70.5146 
 224   0.0000       2.654302        72.2272 
 225   0.0000       2.659695        72.3740 
 226   0.0000       2.705587        73.6228 
 227   0.0000       2.743329        74.6498 
 228   0.0000       2.755756        74.9879 
 229   0.0000       2.777298        75.5741 
 230   0.0000       2.801498        76.2326 
 231   0.0000       2.823626        76.8348 
 232   0.0000       2.858675        77.7885 
 233   0.0000       2.865808        77.9826 
 234   0.0000       2.874349        78.2150 
 235   0.0000       2.899074        78.8878 
 236   0.0000       2.903107        78.9976 
 237   0.0000       2.916606        79.3649 
 238   0.0000       2.931627        79.7736 
 239   0.0000       2.961960        80.5990 
 240   0.0000       3.007020        81.8252 
 241   0.0000       3.012635        81.9780 
 242   0.0000       3.024446        82.2994 
 243   0.0000       3.039213        82.7012 
 244   0.0000       3.052528        83.0635 
 245   0.0000       3.061530        83.3085 
 246   0.0000       3.070456        83.5514 
 247   0.0000       3.077996        83.7565 
 248   0.0000       3.102746        84.4300 
 249   0.0000       3.105093        84.4939 
 250   0.0000       3.114739        84.7563 
 251   0.0000       3.123458        84.9936 
 252   0.0000       3.131353        85.2084 
 253   0.0000       3.151312        85.7515 
 254   0.0000       3.160027        85.9887 
 255   0.0000       3.168624        86.2227 
 256   0.0000       3.174216        86.3748 
 257   0.0000       3.202805        87.1527 
 258   0.0000       3.205825        87.2349 
 259   0.0000       3.220301        87.6288 
 260   0.0000       3.232480        87.9602 
 261   0.0000       3.246770        88.3491 
 262   0.0000       3.250318        88.4457 
 263   0.0000       3.259793        88.7035 
 264   0.0000       3.270885        89.0053 
 265   0.0000       3.288982        89.4977 
 266   0.0000       3.307496        90.0015 
 267   0.0000       3.321243        90.3756 
 268   0.0000       3.330774        90.6350 
 269   0.0000       3.344458        91.0073 
 270   0.0000       3.356767        91.3423 
 271   0.0000       3.368586        91.6639 
 272   0.0000       3.386867        92.1613 
 273   0.0000       3.408860        92.7598 
 274   0.0000       3.417755        93.0018 
 275   0.0000       3.437288        93.5334 
 276   0.0000       3.449544        93.8669 
 277   0.0000       3.455956        94.0413 
 278   0.0000       3.465460        94.3000 
 279   0.0000       3.469376        94.4065 
 280   0.0000       3.490022        94.9683 
 281   0.0000       3.495219        95.1098 
 282   0.0000       3.497278        95.1658 
 283   0.0000       3.521767        95.8322 
 284   0.0000       3.537139        96.2505 
 285   0.0000       3.545097        96.4670 
 286   0.0000       3.554903        96.7338 
 287   0.0000       3.566061        97.0374 
 288   0.0000       3.573298        97.2344 
 289   0.0000       3.599289        97.9416 
 290   0.0000       3.608290        98.1866 
 291   0.0000       3.616793        98.4179 
 292   0.0000       3.624363        98.6239 
 293   0.0000       3.634938        98.9117 
 294   0.0000       3.642858        99.1272 
 295   0.0000       3.650134        99.3252 
 296   0.0000       3.664961        99.7287 
 297   0.0000       3.675620       100.0187 
 298   0.0000       3.689404       100.3938 
 299   0.0000       3.693245       100.4983 
 300   0.0000       3.713876       101.0597 
 301   0.0000       3.725797       101.3841 
 302   0.0000       3.742305       101.8333 
 303   0.0000       3.749638       102.0328 
 304   0.0000       3.765188       102.4560 
 305   0.0000       3.777171       102.7821 
 306   0.0000       3.798770       103.3698 
 307   0.0000       3.800775       103.4243 
 308   0.0000       3.815066       103.8132 
 309   0.0000       3.826326       104.1196 
 310   0.0000       3.832114       104.2771 
 311   0.0000       3.837461       104.4226 
 312   0.0000       3.852858       104.8416 
 313   0.0000       3.863350       105.1271 
 314   0.0000       3.873836       105.4124 
 315   0.0000       3.876881       105.4953 
 316   0.0000       3.900691       106.1432 
 317   0.0000       3.908577       106.3578 
 318   0.0000       3.930484       106.9539 
 319   0.0000       3.943397       107.3053 
 320   0.0000       3.949441       107.4698 
 321   0.0000       3.962135       107.8152 
 322   0.0000       3.982572       108.3713 
 323   0.0000       3.994953       108.7082 
 324   0.0000       4.001207       108.8784 
 325   0.0000       4.026845       109.5760 
 326   0.0000       4.037813       109.8745 
 327   0.0000       4.050886       110.2302 
 328   0.0000       4.065064       110.6160 
 329   0.0000       4.091476       111.3347 
 330   0.0000       4.092125       111.3524 
 331   0.0000       4.106185       111.7350 
 332   0.0000       4.113415       111.9317 
 333   0.0000       4.121547       112.1530 
 334   0.0000       4.131427       112.4218 
 335   0.0000       4.145728       112.8110 
 336   0.0000       4.160581       113.2152 
 337   0.0000       4.163790       113.3025 
 338   0.0000       4.189675       114.0069 
 339   0.0000       4.190649       114.0333 
 340   0.0000       4.214967       114.6951 
 341   0.0000       4.223336       114.9228 
 342   0.0000       4.231330       115.1403 
 343   0.0000       4.244189       115.4903 
 344   0.0000       4.273529       116.2886 
 345   0.0000       4.283970       116.5727 
 346   0.0000       4.291456       116.7765 
 347   0.0000       4.295675       116.8912 
 348   0.0000       4.328285       117.7786 
 349   0.0000       4.331242       117.8591 
 350   0.0000       4.339086       118.0725 
 351   0.0000       4.345686       118.2521 
 352   0.0000       4.360379       118.6519 
 353   0.0000       4.364448       118.7627 
 354   0.0000       4.388482       119.4167 
 355   0.0000       4.400841       119.7530 
 356   0.0000       4.407049       119.9219 
 357   0.0000       4.422837       120.3515 
 358   0.0000       4.433252       120.6349 
 359   0.0000       4.452422       121.1566 
 360   0.0000       4.462258       121.4242 
 361   0.0000       4.480459       121.9195 
 362   0.0000       4.482495       121.9749 
 363   0.0000       4.497223       122.3757 
 364   0.0000       4.515464       122.8720 
 365   0.0000       4.532866       123.3455 
 366   0.0000       4.545517       123.6898 
 367   0.0000       4.570986       124.3828 
 368   0.0000       4.573602       124.4540 
 369   0.0000       4.583207       124.7154 
 370   0.0000       4.599749       125.1655 
 371   0.0000       4.620805       125.7385 
 372   0.0000       4.623914       125.8231 
 373   0.0000       4.655315       126.6776 
 374   0.0000       4.676969       127.2668 
 375   0.0000       4.681873       127.4002 
 376   0.0000       4.704297       128.0104 
 377   0.0000       4.722323       128.5009 
 378   0.0000       4.742677       129.0548 
 379   0.0000       4.755346       129.3995 
 380   0.0000       4.768029       129.7447 
 381   0.0000       4.797247       130.5397 
 382   0.0000       4.817947       131.1030 
 383   0.0000       4.848661       131.9388 
 384   0.0000       4.886860       132.9782 
 385   0.0000       4.889387       133.0470 
 386   0.0000       4.898889       133.3056 
 387   0.0000       4.910968       133.6342 
 388   0.0000       4.948499       134.6555 
 389   0.0000       4.952204       134.7563 
 390   0.0000       4.966364       135.1416 
 391   0.0000       4.986643       135.6935 
 392   0.0000       5.008985       136.3014 
 393   0.0000       5.047151       137.3400 
 394   0.0000       5.068710       137.9266 
 395   0.0000       5.084436       138.3546 
 396   0.0000       5.093810       138.6096 
 397   0.0000       5.114970       139.1854 
 398   0.0000       5.119635       139.3124 
 399   0.0000       5.144551       139.9903 
 400   0.0000       5.163077       140.4945 
 401   0.0000       5.188604       141.1891 
 402   0.0000       5.212494       141.8392 
 403   0.0000       5.232410       142.3811 
 404   0.0000       5.254729       142.9885 
 405   0.0000       5.276204       143.5728 
 406   0.0000       5.296551       144.1265 
 407   0.0000       5.305629       144.3735 
 408   0.0000       5.321928       144.8170 
 409   0.0000       5.364194       145.9671 
 410   0.0000       5.376351       146.2980 
 411   0.0000       5.387966       146.6140 
 412   0.0000       5.412814       147.2902 
 413   0.0000       5.428358       147.7131 
 414   0.0000       5.454013       148.4112 
 415   0.0000       5.465896       148.7346 
 416   0.0000       5.480776       149.1395 
 417   0.0000       5.528449       150.4368 
 418   0.0000       5.534790       150.6093 
 419   0.0000       5.549663       151.0140 
 420   0.0000       5.573378       151.6593 
 421   0.0000       5.586755       152.0233 
 422   0.0000       5.636236       153.3698 
 423   0.0000       5.649456       153.7295 
 424   0.0000       5.664849       154.1484 
 425   0.0000       5.683719       154.6619 
 426   0.0000       5.708289       155.3305 
 427   0.0000       5.712150       155.4355 
 428   0.0000       5.743017       156.2754 
 429   0.0000       5.764294       156.8544 
 430   0.0000       5.792276       157.6159 
 431   0.0000       5.820696       158.3892 
 432   0.0000       5.858104       159.4071 
 433   0.0000       5.865673       159.6131 
 434   0.0000       5.885103       160.1418 
 435   0.0000       5.900690       160.5659 
 436   0.0000       5.941144       161.6667 
 437   0.0000       5.954228       162.0228 
 438   0.0000       5.974509       162.5746 
 439   0.0000       5.985847       162.8832 
 440   0.0000       6.010216       163.5463 
 441   0.0000       6.042417       164.4225 
 442   0.0000       6.055496       164.7784 
 443   0.0000       6.089119       165.6934 
 444   0.0000       6.133178       166.8923 
 445   0.0000       6.171601       167.9378 
 446   0.0000       6.255151       170.2113 
 447   0.0000       6.297344       171.3594 
 448   0.0000       6.364762       173.1940 
 449   0.0000       6.405196       174.2942 
 450   0.0000       6.433366       175.0608 
 451   0.0000       6.551188       178.2669 
 452   0.0000       6.598257       179.5477 
 453   0.0000       6.635172       180.5522 
 454   0.0000       6.902370       187.8230 
 455   0.0000       6.971598       189.7068 
 456   0.0000       6.996241       190.3774 
 457   0.0000       7.134484       194.1392 
 458   0.0000       7.187478       195.5812 
 459   0.0000       7.283193       198.1858 
 460   0.0000       7.350960       200.0298 
 461   0.0000       7.374370       200.6668 
 462   0.0000       7.412488       201.7041 
 463   0.0000       7.507081       204.2781 
 464   0.0000       7.642811       207.9714 
 465   0.0000       7.646803       208.0801 
 466   0.0000       7.851842       213.6595 
 467   0.0000       7.997998       217.6366 
 468   0.0000      24.056281       654.6047 
 469   0.0000      24.169334       657.6810 
 470   0.0000      24.323473       661.8753 
 471   0.0000      24.477153       666.0572 
 472   0.0000      24.555462       668.1881 
 473   0.0000      24.691661       671.8942 
 474   0.0000      24.754353       673.6002 
 475   0.0000      24.839635       675.9208 
 476   0.0000      45.644762      1242.0571 
 477   0.0000      45.988867      1251.4207 

                    ********************************
                    * MULLIKEN POPULATION ANALYSIS *
                    ********************************

-----------------------
MULLIKEN ATOMIC CHARGES
-----------------------
   0 C :   -0.162195
   1 C :   -0.130213
   2 C :   -0.273726
   3 C :   -0.104088
   4 H :    0.130931
   5 H :    0.115657
   6 H :    0.099832
   7 C :   -0.124122
   8 C :    0.306765
   9 H :    0.106671
  10 H :    0.098015
  11 H :    0.096584
  12 H :    0.082383
  13 C :    0.265391
  14 O :   -0.496200
  15 H :    0.049795
  16 O :   -0.374872
  17 C :    0.003498
  18 H :    0.089568
  19 H :    0.063408
  20 H :    0.060275
  21 H :    0.096644
Sum of atomic charges:   -0.0000000

--------------------------------
MULLIKEN REDUCED ORBITAL CHARGES
--------------------------------
  0 C s       :     3.122829  s :     3.122829
      pz      :     1.063553  p :     2.928383
      px      :     0.975934
      py      :     0.888896
      dz2     :     0.033733  d :     0.105386
      dxz     :     0.021634
      dyz     :     0.012816
      dx2y2   :     0.021346
      dxy     :     0.015857
      f0      :     0.000943  f :     0.005597
      f+1     :     0.000552
      f-1     :     0.000635
      f+2     :     0.000908
      f-2     :     0.000762
      f+3     :     0.000838
      f-3     :     0.000959
  1 C s       :     3.089760  s :     3.089760
      pz      :     1.058150  p :     2.930612
      px      :     0.951338
      py      :     0.921124
      dz2     :     0.027157  d :     0.104310
      dxz     :     0.025321
      dyz     :     0.009114
      dx2y2   :     0.017273
      dxy     :     0.025445
      f0      :     0.000843  f :     0.005531
      f+1     :     0.000923
      f-1     :     0.000228
      f+2     :     0.000705
      f-2     :     0.000650
      f+3     :     0.000904
      f-3     :     0.001278
  2 C s       :     3.172844  s :     3.172844
      pz      :     0.957367  p :     3.021943
      px      :     1.036429
      py      :     1.028147
      dz2     :     0.017588  d :     0.073402
      dxz     :     0.017038
      dyz     :     0.019504
      dx2y2   :     0.005252
      dxy     :     0.014020
      f0      :     0.001396  f :     0.005537
      f+1     :     0.000913
      f-1     :     0.000883
      f+2     :     0.000652
      f-2     :     0.001114
      f+3     :     0.000080
      f-3     :     0.000498
  3 C s       :     3.081916  s :     3.081916
      pz      :     1.003349  p :     2.906598
      px      :     0.955130
      py      :     0.948118
      dz2     :     0.033578  d :     0.107426
      dxz     :     0.019779
      dyz     :     0.018260
      dx2y2   :     0.016070
      dxy     :     0.019739
      f0      :     0.000984  f :     0.008150
      f+1     :     0.001255
      f-1     :     0.000940
      f+2     :     0.000822
      f-2     :     0.001467
      f+3     :     0.001280
      f-3     :     0.001401
  4 H s       :     0.824196  s :     0.824196
      pz      :     0.023550  p :     0.042556
      px      :     0.008708
      py      :     0.010298
      dz2     :     0.000859  d :     0.002317
      dxz     :     0.000638
      dyz     :     0.000759
      dx2y2   :     0.000024
      dxy     :     0.000036
  5 H s       :     0.842616  s :     0.842616
      pz      :     0.009522  p :     0.039628
      px      :     0.020012
      py      :     0.010093
      dz2     :     0.000307  d :     0.002099
      dxz     :     0.000563
      dyz     :     0.000122
      dx2y2   :     0.000533
      dxy     :     0.000574
  6 H s       :     0.856094  s :     0.856094
      pz      :     0.020916  p :     0.041836
      px      :     0.011116
      py      :     0.009804
      dz2     :     0.000758  d :     0.002238
      dxz     :     0.000735
      dyz     :     0.000622
      dx2y2   :     0.000065
      dxy     :     0.000059
  7 C s       :     3.175370  s :     3.175370
      pz      :     0.995655  p :     2.838056
      px      :     0.898624
      py      :     0.943777
      dz2     :     0.022971  d :     0.102092
      dxz     :     0.034270
      dyz     :     0.008675
      dx2y2   :     0.015586
      dxy     :     0.020591
      f0      :     0.000984  f :     0.008604
      f+1     :     0.001527
      f-1     :     0.000452
      f+2     :     0.001393
      f-2     :     0.000965
      f+3     :     0.001506
      f-3     :     0.001777
  8 C s       :     3.022497  s :     3.022497
      pz      :     0.889458  p :     2.454594
      px      :     0.694578
      py      :     0.870559
      dz2     :     0.045804  d :     0.198807
      dxz     :     0.049846
      dyz     :     0.031645
      dx2y2   :     0.030260
      dxy     :     0.041252
      f0      :     0.002117  f :     0.017337
      f+1     :     0.004124
      f-1     :     0.001506
      f+2     :     0.002761
      f-2     :     0.002705
      f+3     :     0.002170
      f-3     :     0.001955
  9 H s       :     0.852934  s :     0.852934
      pz      :     0.012366  p :     0.038267
      px      :     0.012863
      py      :     0.013038
      dz2     :     0.000461  d :     0.002128
      dxz     :     0.000470
      dyz     :     0.000333
      dx2y2   :     0.000455
      dxy     :     0.000408
 10 H s       :     0.857863  s :     0.857863
      pz      :     0.013526  p :     0.042029
      px      :     0.015346
      py      :     0.013157
      dz2     :     0.000406  d :     0.002093
      dxz     :     0.000436
      dyz     :     0.000439
      dx2y2   :     0.000410
      dxy     :     0.000402
 11 H s       :     0.858488  s :     0.858488
      pz      :     0.022279  p :     0.042712
      px      :     0.009291
      py      :     0.011142
      dz2     :     0.000758  d :     0.002215
      dxz     :     0.000708
      dyz     :     0.000593
      dx2y2   :     0.000084
      dxy     :     0.000073
 12 H s       :     0.868702  s :     0.868702
      pz      :     0.014571  p :     0.046594
      px      :     0.019299
      py      :     0.012724
      dz2     :     0.000438  d :     0.002321
      dxz     :     0.000602
      dyz     :     0.000303
      dx2y2   :     0.000458
      dxy     :     0.000519
 13 C s       :     3.125723  s :     3.125723
      pz      :     0.771262  p :     2.373864
      px      :     0.804657
      py      :     0.797946
      dz2     :     0.032398  d :     0.217475
      dxz     :     0.072174
      dyz     :     0.080905
      dx2y2   :     0.020071
      dxy     :     0.011927
      f0      :     0.003925  f :     0.017545
      f+1     :     0.004514
      f-1     :     0.004326
      f+2     :     0.001425
      f-2     :     0.001861
      f+3     :     0.000894
      f-3     :     0.000600
 14 O s       :     3.855170  s :     3.855170
      pz      :     1.360850  p :     4.603460
      px      :     1.632500
      py      :     1.610110
      dz2     :     0.014514  d :     0.035505
      dxz     :     0.009860
      dyz     :     0.009333
      dx2y2   :     0.000656
      dxy     :     0.001143
      f0      :     0.000775  f :     0.002064
      f+1     :     0.000555
      f-1     :     0.000488
      f+2     :     0.000088
      f-2     :     0.000128
      f+3     :     0.000014
      f-3     :     0.000017
 15 H s       :     0.914241  s :     0.914241
      pz      :     0.009343  p :     0.033752
      px      :     0.010457
      py      :     0.013952
      dz2     :     0.000621  d :     0.002212
      dxz     :     0.000317
      dyz     :     0.000607
      dx2y2   :     0.000254
      dxy     :     0.000413
 16 O s       :     3.768535  s :     3.768535
      pz      :     1.625789  p :     4.560537
      px      :     1.318689
      py      :     1.616059
      dz2     :     0.004582  d :     0.043514
      dxz     :     0.015593
      dyz     :     0.007194
      dx2y2   :     0.008619
      dxy     :     0.007528
      f0      :     0.000215  f :     0.002286
      f+1     :     0.000277
      f-1     :     0.000081
      f+2     :     0.000390
      f-2     :     0.000445
      f+3     :     0.000419
      f-3     :     0.000459
 17 C s       :     3.116182  s :     3.116182
      pz      :     0.984032  p :     2.745059
      px      :     0.887425
      py      :     0.873601
      dz2     :     0.026040  d :     0.125425
      dxz     :     0.030692
      dyz     :     0.015821
      dx2y2   :     0.033275
      dxy     :     0.019597
      f0      :     0.000708  f :     0.009837
      f+1     :     0.001353
      f-1     :     0.001199
      f+2     :     0.001401
      f-2     :     0.001583
      f+3     :     0.002120
      f-3     :     0.001472
 18 H s       :     0.875954  s :     0.875954
      pz      :     0.012719  p :     0.032366
      px      :     0.012979
      py      :     0.006667
      dz2     :     0.000463  d :     0.002113
      dxz     :     0.000601
      dyz     :     0.000199
      dx2y2   :     0.000380
      dxy     :     0.000470
 19 H s       :     0.901503  s :     0.901503
      pz      :     0.006713  p :     0.032923
      px      :     0.008945
      py      :     0.017265
      dz2     :     0.000217  d :     0.002167
      dxz     :     0.000148
      dyz     :     0.000525
      dx2y2   :     0.000645
      dxy     :     0.000632
 20 H s       :     0.904756  s :     0.904756
      pz      :     0.015980  p :     0.032821
      px      :     0.007799
      py      :     0.009042
      dz2     :     0.000617  d :     0.002148
      dxz     :     0.000662
      dyz     :     0.000557
      dx2y2   :     0.000133
      dxy     :     0.000180
 21 H s       :     0.860558  s :     0.860558
      pz      :     0.022174  p :     0.040521
      px      :     0.008554
      py      :     0.009792
      dz2     :     0.000811  d :     0.002277
      dxz     :     0.000725
      dyz     :     0.000606
      dx2y2   :     0.000066
      dxy     :     0.000069


                     *******************************
                     * LOEWDIN POPULATION ANALYSIS *
                     *******************************

----------------------
LOEWDIN ATOMIC CHARGES
----------------------
   0 C :    0.057172
   1 C :    0.055137
   2 C :    0.053939
   3 C :   -0.060576
   4 H :    0.019319
   5 H :    0.008548
   6 H :    0.001725
   7 C :    0.001577
   8 C :   -0.227443
   9 H :    0.010544
  10 H :   -0.004217
  11 H :    0.010462
  12 H :   -0.001096
  13 C :   -0.196181
  14 O :    0.032529
  15 H :    0.002159
  16 O :    0.240018
  17 C :   -0.038481
  18 H :    0.008100
  19 H :    0.002681
  20 H :   -0.002424
  21 H :    0.026505

-------------------------------
LOEWDIN REDUCED ORBITAL CHARGES
-------------------------------
  0 C s       :     2.739365  s :     2.739365
      pz      :     1.030899  p :     2.829131
      px      :     0.954570
      py      :     0.843662
      dz2     :     0.107734  d :     0.342747
      dxz     :     0.059222
      dyz     :     0.045956
      dx2y2   :     0.071874
      dxy     :     0.057960
      f0      :     0.004933  f :     0.031585
      f+1     :     0.003673
      f-1     :     0.004671
      f+2     :     0.005333
      f-2     :     0.004189
      f+3     :     0.004697
      f-3     :     0.004088
  1 C s       :     2.737650  s :     2.737650
      pz      :     1.012710  p :     2.833917
      px      :     1.001548
      py      :     0.819660
      dz2     :     0.081892  d :     0.341890
      dxz     :     0.094173
      dyz     :     0.030461
      dx2y2   :     0.054752
      dxy     :     0.080612
      f0      :     0.004314  f :     0.031405
      f+1     :     0.006535
      f-1     :     0.001705
      f+2     :     0.004167
      f-2     :     0.003613
      f+3     :     0.005002
      f-3     :     0.006068
  2 C s       :     2.746274  s :     2.746274
      pz      :     1.004442  p :     2.895026
      px      :     0.958466
      py      :     0.932118
      dz2     :     0.062359  d :     0.276997
      dxz     :     0.086439
      dyz     :     0.066746
      dx2y2   :     0.015976
      dxy     :     0.045478
      f0      :     0.006597  f :     0.027763
      f+1     :     0.005404
      f-1     :     0.004886
      f+2     :     0.002852
      f-2     :     0.004574
      f+3     :     0.001270
      f-3     :     0.002180
  3 C s       :     2.743499  s :     2.743499
      pz      :     1.000360  p :     2.891471
      px      :     0.962861
      py      :     0.928250
      dz2     :     0.110211  d :     0.386922
      dxz     :     0.078123
      dyz     :     0.063704
      dx2y2   :     0.054731
      dxy     :     0.080153
      f0      :     0.004469  f :     0.038683
      f+1     :     0.007790
      f-1     :     0.005833
      f+2     :     0.004595
      f-2     :     0.006232
      f+3     :     0.004193
      f-3     :     0.005572
  4 H s       :     0.797355  s :     0.797355
      pz      :     0.077364  p :     0.154899
      px      :     0.036084
      py      :     0.041450
      dz2     :     0.010720  d :     0.028427
      dxz     :     0.008374
      dyz     :     0.008736
      dx2y2   :     0.000250
      dxy     :     0.000347
  5 H s       :     0.813608  s :     0.813608
      pz      :     0.042553  p :     0.150316
      px      :     0.065359
      py      :     0.042404
      dz2     :     0.004463  d :     0.027528
      dxz     :     0.007641
      dyz     :     0.001712
      dx2y2   :     0.006883
      dxy     :     0.006829
  6 H s       :     0.813964  s :     0.813964
      pz      :     0.072076  p :     0.156479
      px      :     0.042298
      py      :     0.042105
      dz2     :     0.009880  d :     0.027833
      dxz     :     0.008541
      dyz     :     0.007963
      dx2y2   :     0.000645
      dxy     :     0.000804
  7 C s       :     2.726593  s :     2.726593
      pz      :     0.983964  p :     2.836072
      px      :     0.994485
      py      :     0.857623
      dz2     :     0.097240  d :     0.393522
      dxz     :     0.115799
      dyz     :     0.032571
      dx2y2   :     0.069154
      dxy     :     0.078758
      f0      :     0.004945  f :     0.042235
      f+1     :     0.009872
      f-1     :     0.002459
      f+2     :     0.007316
      f-2     :     0.005327
      f+3     :     0.005588
      f-3     :     0.006729
  8 C s       :     2.707555  s :     2.707555
      pz      :     1.008348  p :     2.726722
      px      :     0.849597
      py      :     0.868777
      dz2     :     0.148613  d :     0.693813
      dxz     :     0.203904
      dyz     :     0.109887
      dx2y2   :     0.117078
      dxy     :     0.114329
      f0      :     0.009848  f :     0.099354
      f+1     :     0.027466
      f-1     :     0.008081
      f+2     :     0.016970
      f-2     :     0.013672
      f+3     :     0.011794
      f-3     :     0.011522
  9 H s       :     0.814341  s :     0.814341
      pz      :     0.051165  p :     0.147737
      px      :     0.049073
      py      :     0.047499
      dz2     :     0.006791  d :     0.027378
      dxz     :     0.005953
      dyz     :     0.004372
      dx2y2   :     0.005176
      dxy     :     0.005087
 10 H s       :     0.816546  s :     0.816546
      pz      :     0.045868  p :     0.160001
      px      :     0.058927
      py      :     0.055206
      dz2     :     0.005406  d :     0.027670
      dxz     :     0.005802
      dyz     :     0.004983
      dx2y2   :     0.005838
      dxy     :     0.005641
 11 H s       :     0.808076  s :     0.808076
      pz      :     0.074850  p :     0.153176
      px      :     0.036986
      py      :     0.041340
      dz2     :     0.010042  d :     0.028286
      dxz     :     0.008853
      dyz     :     0.008039
      dx2y2   :     0.000819
      dxy     :     0.000533
 12 H s       :     0.809656  s :     0.809656
      pz      :     0.043185  p :     0.162742
      px      :     0.066493
      py      :     0.053063
      dz2     :     0.005200  d :     0.028697
      dxz     :     0.007077
      dyz     :     0.004149
      dx2y2   :     0.005887
      dxy     :     0.006384
 13 C s       :     2.769321  s :     2.769321
      pz      :     0.950560  p :     2.613584
      px      :     0.845521
      py      :     0.817503
      dz2     :     0.168376  d :     0.711083
      dxz     :     0.215426
      dyz     :     0.220169
      dx2y2   :     0.056867
      dxy     :     0.050245
      f0      :     0.022507  f :     0.102193
      f+1     :     0.028441
      f-1     :     0.027546
      f+2     :     0.008675
      f-2     :     0.007492
      f+3     :     0.004381
      f-3     :     0.003150
 14 O s       :     3.403478  s :     3.403478
      pz      :     1.486193  p :     4.491042
      px      :     1.515523
      py      :     1.489327
      dz2     :     0.028050  d :     0.067453
      dxz     :     0.019416
      dyz     :     0.016890
      dx2y2   :     0.001699
      dxy     :     0.001398
      f0      :     0.001869  f :     0.005497
      f+1     :     0.001623
      f-1     :     0.001377
      f+2     :     0.000368
      f-2     :     0.000221
      f+3     :     0.000017
      f-3     :     0.000021
 15 H s       :     0.848542  s :     0.848542
      pz      :     0.039234  p :     0.125756
      px      :     0.039065
      py      :     0.047457
      dz2     :     0.004930  d :     0.023542
      dxz     :     0.003971
      dyz     :     0.006052
      dx2y2   :     0.003310
      dxy     :     0.005280
 16 O s       :     3.228702  s :     3.228702
      pz      :     1.566726  p :     4.417817
      px      :     1.322522
      py      :     1.528568
      dz2     :     0.015492  d :     0.107152
      dxz     :     0.030465
      dyz     :     0.013276
      dx2y2   :     0.024413
      dxy     :     0.023506
      f0      :     0.000411  f :     0.006312
      f+1     :     0.001392
      f-1     :     0.000398
      f+2     :     0.001184
      f-2     :     0.000998
      f+3     :     0.000859
      f-3     :     0.001071
 17 C s       :     2.717696  s :     2.717696
      pz      :     0.988076  p :     2.799243
      px      :     0.899998
      py      :     0.911170
      dz2     :     0.079884  d :     0.454928
      dxz     :     0.116462
      dyz     :     0.066400
      dx2y2   :     0.105864
      dxy     :     0.086318
      f0      :     0.005774  f :     0.066613
      f+1     :     0.007877
      f-1     :     0.009510
      f+2     :     0.009048
      f-2     :     0.011807
      f+3     :     0.013579
      f-3     :     0.009019
 18 H s       :     0.829324  s :     0.829324
      pz      :     0.049140  p :     0.135138
      px      :     0.053425
      py      :     0.032573
      dz2     :     0.006149  d :     0.027437
      dxz     :     0.007508
      dyz     :     0.003539
      dx2y2   :     0.004687
      dxy     :     0.005554
 19 H s       :     0.832898  s :     0.832898
      pz      :     0.036175  p :     0.137359
      px      :     0.036703
      py      :     0.064482
      dz2     :     0.002503  d :     0.027062
      dxz     :     0.002342
      dyz     :     0.007468
      dx2y2   :     0.007772
      dxy     :     0.006977
 20 H s       :     0.838439  s :     0.838439
      pz      :     0.065449  p :     0.137073
      px      :     0.036045
      py      :     0.035578
      dz2     :     0.009263  d :     0.026913
      dxz     :     0.007781
      dyz     :     0.006060
      dx2y2   :     0.001427
      dxy     :     0.002381
 21 H s       :     0.799527  s :     0.799527
      pz      :     0.073580  p :     0.146319
      px      :     0.032307
      py      :     0.040432
      dz2     :     0.010215  d :     0.027648
      dxz     :     0.008208
      dyz     :     0.007801
      dx2y2   :     0.000722
      dxy     :     0.000702


                      *****************************
                      * MAYER POPULATION ANALYSIS *
                      *****************************

  NA   - Mulliken gross atomic population
  ZA   - Total nuclear charge
  QA   - Mulliken gross atomic charge
  VA   - Mayer's total valence
  BVA  - Mayer's bonded valence
  FA   - Mayer's free valence

  ATOM       NA         ZA         QA         VA         BVA        FA
  0 C      6.1622     6.0000    -0.1622     3.9209     3.9209     0.0000
  1 C      6.1302     6.0000    -0.1302     3.9129     3.9129    -0.0000
  2 C      6.2737     6.0000    -0.2737     3.9271     3.9271     0.0000
  3 C      6.1041     6.0000    -0.1041     3.6165     3.6165     0.0000
  4 H      0.8691     1.0000     0.1309     1.0116     1.0116     0.0000
  5 H      0.8843     1.0000     0.1157     1.0045     1.0045    -0.0000
  6 H      0.9002     1.0000     0.0998     1.0099     1.0099     0.0000
  7 C      6.1241     6.0000    -0.1241     3.9236     3.9236    -0.0000
  8 C      5.6932     6.0000     0.3068     3.8320     3.8320    -0.0000
  9 H      0.8933     1.0000     0.1067     1.0036     1.0036    -0.0000
 10 H      0.9020     1.0000     0.0980     1.0108     1.0108     0.0000
 11 H      0.9034     1.0000     0.0966     1.0044     1.0044    -0.0000
 12 H      0.9176     1.0000     0.0824     1.0146     1.0146    -0.0000
 13 C      5.7346     6.0000     0.2654     4.0748     4.0748     0.0000
 14 O      8.4962     8.0000    -0.4962     1.9581     1.9581    -0.0000
 15 H      0.9502     1.0000     0.0498     0.9983     0.9983     0.0000
 16 O      8.3749     8.0000    -0.3749     1.9221     1.9221    -0.0000
 17 C      5.9965     6.0000     0.0035     3.8995     3.8995    -0.0000
 18 H      0.9104     1.0000     0.0896     1.0010     1.0010     0.0000
 19 H      0.9366     1.0000     0.0634     0.9858     0.9858    -0.0000
 20 H      0.9397     1.0000     0.0603     0.9927     0.9927     0.0000
 21 H      0.9034     1.0000     0.0966     1.0284     1.0284    -0.0000

  Mayer bond orders larger than 0.100000
B(  0-C ,  1-C ) :   0.3826 B(  0-C ,  3-C ) :   1.4505 B(  0-C ,  4-H ) :   0.9950 
B(  0-C ,  5-H ) :   1.0057 B(  1-C ,  7-C ) :   1.4768 B(  1-C ,  9-H ) :   1.0002 
B(  1-C , 11-H ) :   1.0112 B(  2-C ,  3-C ) :   0.2181 B(  2-C ,  8-C ) :   1.5145 
B(  2-C , 10-H ) :   1.0153 B(  2-C , 12-H ) :   1.0137 B(  3-C ,  6-H ) :   1.0037 
B(  3-C , 13-C ) :   1.0319 B(  7-C ,  8-C ) :   1.2995 B(  7-C , 21-H ) :   0.9869 
B(  8-C , 16-O ) :   1.0262 B( 13-C , 14-O ) :   1.8966 B( 13-C , 15-H ) :   1.0578 
B( 16-O , 17-C ) :   0.9014 B( 17-C , 18-H ) :   1.0051 B( 17-C , 19-H ) :   0.9907 
B( 17-C , 20-H ) :   1.0038 

-------
TIMINGS
-------

Total SCF time: 0 days 0 hours 1 min 11 sec 

Total time                  ....      71.238 sec
Sum of individual times     ....      70.583 sec  ( 99.1%)

Fock matrix formation       ....      67.064 sec  ( 94.1%)
Diagonalization             ....       0.807 sec  (  1.1%)
Density matrix formation    ....       0.022 sec  (  0.0%)
Population analysis         ....       0.058 sec  (  0.1%)
Initial guess               ....       0.573 sec  (  0.8%)
Orbital Transformation      ....       0.000 sec  (  0.0%)
Orbital Orthonormalization  ....       0.000 sec  (  0.0%)
DIIS solution               ....       1.413 sec  (  2.0%)
SOSCF solution              ....       0.567 sec  (  0.8%)

Maximum memory used throughout the entire SCF-calculation: 247.1 MB


           ************************************************************
           *        Program running with 16 parallel MPI-processes    *
           *              working on a common directory               *
           ************************************************************


--------------------------------------------------------------------------------
                             ORCA-MATRIX DRIVEN CI
--------------------------------------------------------------------------------


Wavefunction type
-----------------
Correlation treatment                      ...      CCSD     
Single excitations                         ... ON
Orbital optimization                       ... OFF
Calculation of Z vector                    ... OFF
Calculation of Brueckner orbitals          ... OFF
Perturbative triple excitations            ... ON
Calculation of F12 correction              ... OFF
Frozen core treatment                      ... chemical core (20 el)
Reference Wavefunction                     ... RHF
  Internal Orbitals:    10 ...   37 ( 28 MO's/ 56 electrons)
  Virtual  Orbitals:    38 ...  477 (440 MO's              )
Number of AO's                             ...    478
Number of electrons                        ...     76
Number of correlated electrons             ...     56

Algorithmic settings
--------------------
Integral transformation                    ... All integrals via the RI transformation
K(C) Formation                             ... RI-DLPNO
   PNO-Integral Storage                    ... ON DISK
   PNO occupation number cut-off           ... 3.330e-07
   Singles PNO occupation number cut-off   ... 9.990e-09
   PNO Mulliken prescreening cut-off       ... 1.000e-03
   Domain cut-off (Mulliken population)    ... 1.000e-03
   PNO Normalization                       ...    1
Maximum number of iterations               ...        50
Convergence tolerance (max. residuum)      ... 2.500e-05
Level shift for amplitude update           ... 2.000e-01
Maximum number of DIIS vectors             ...         7
DIIS turned on at iteration                ...         0
Damping before turning on DIIS             ...     0.500
[...]
Making pair pair interaction lists          ... done

                       ===========================
                        286 OF  406 PAIRS ARE KEPT CCSD PAIRS
                        112 OF  406 PAIRS ARE KEPT MP2 PAIRS FOR (T)
                          8 OF  406 PAIRS ARE SKIPPED
                       ===========================

Total time spent in the initial guess                 ...    66.263 sec
SL-MP2 correlation energy (all non-screened pairs)    ...      -1.749451250892 Eh

Initial PNO correlation energy                        ...      -1.738947361203 Eh
sum of pair energies prescreened and skipped MP2 pairs...      -0.000052550187 Eh
sum of pair energies of crude MP2 skipped pairs only  ...      -0.000052550187 Eh
sum of MP2 pair energies for pairs that were not kept ...      -0.005150401119 Eh
sum of PNO error estimates for the kept pairs         ...      -0.005353488570 Eh
                                                          --------------------
sum of all corrections                                         -0.010503889689
Initial total correlation energy                               -1.749451250892
Thresholds for map construction and integral transformation for fine MP2 and CCSD(T) calculation:
   TCutMKN   ...     1.0e-03
   TCutDO    ...     1.0e-02
   TCutPairs ...     1.0e-04
   TCutCMO   ...     1.0e-03
   TCutCPAO  ...     1.0e-03

Thresholds for map construction and integral transformation for strong Triples:
   TCutMKN   ...     1.0e-02
   TCutDO    ...     2.0e-02
   TCutCMO   ...     1.0e-03
   TCutCPAO  ...     1.0e-03

Thresholds for map construction and integral transformation for weak Triples:
   TCutMKN   ...     1.0e-01
   TCutDO    ...     4.0e-02
   TCutCMO   ...     1.0e-03
   TCutCPAO  ...     1.0e-03

--------------------------------
LOCAL RI TRANSFORMATION (IAVPAO)
--------------------------------

Orbital window:      10 to 37
Number of PAOs:     478
Basis functions:    478 (182 shells)
Aux. functions:    1120 (340 shells)
Use SHARK:           on

Processing maps (0.0 sec)
Average map sizes:
   Aux shells -> MOs              28.0
   Aux shells -> PAOs            478.0
   MOs        -> AO shells       177.4
   PAOs       -> AO shells       182.0

Calculating integrals (0.8 sec, 114.378 MB)
Sorting integrals (0.1 sec, 114.366 MB)
Total time for the integral transformation: 0.9 sec
--------------------------------
INITIAL GUESS AND PNO GENERATION
--------------------------------

PNO truncation parameters                   .... 
    PAOOverlapThresh   =        1.000e-08

    TCutPairs          =        1.000e-04
    TCutPNO            =        3.330e-07
    TCutPNOSingles     =        9.990e-09
    TCutMP2Pairs       =        1.000e-05
    TCutMKN            =        1.000e-03
    TCutDO             =        1.000e-02

Pair selection                          .... not used
Type of local MP2 treatment                 .... semi-local MP2
Strategy for PNO selection                  .... occupation number selection
Pair density normalization                  .... MP2 norm
Spin component scaling                      .... not used

   .... Finished loop over pairs

 PNO Occupation Number Statistics: 
  | Av. % of trace(Dij) retained        ...  97.852344993113
  | sigma^2 in % of trace(Dij) retained ...   5.55e+00
  | Av. % of trace(Di) retained         ...  99.998954191727
  | sigma^2 in % of trace(Di) retained  ...   2.30e-07
 Distributions of % trace(Dij) recovered:
  |       >= 99.9  ...    79 ( 19.8 % of all pairs)
  |   [80.0, 90.0) ...     4 (  1.0 % of all pairs)
  |   [90.0, 99.0) ...   215 ( 54.0 % of all pairs)
  |   [99.0, 99.9) ...   100 ( 25.1 % of all pairs)
 Distributions of % trace(Di) recovered :
  |       >= 99.9  ...    28 (100.0 % of all I-pairs )

Making pair pair interaction lists          ... done

                       ===========================
                        286 OF  398 PAIRS ARE KEPT
                       ===========================

Total time spent in the initial guess                 ...     4.399 sec
SL-MP2 correlation energy (all non-screened pairs)    ...      -1.751033530805 Eh

Initial PNO correlation energy                        ...      -1.740480064234 Eh
sum of pair energies estimated for screened out pairs ...      -0.000052550187 Eh
sum of MP2 pair energies for pairs that were not kept ...      -0.005112736303 Eh
sum of PNO error estimates for the kept pairs         ...      -0.005440730269 Eh
                                                          --------------------
sum of all corrections                                         -0.010606016759
Initial total correlation energy                               -1.751086080992
Thresholds for map construction and integral transformation for fine MP2 and CCSD(T) calculation:
   TCutMKN   ...     1.0e-03
   TCutDO    ...     1.0e-02
   TCutPairs ...     1.0e-04
   TCutCMO   ...     1.0e-03
   TCutCPAO  ...     1.0e-03

Time for aux screen maps:            0.003
Time for maps after fine MP2:            0.013
-----------------------------
LOCAL RI TRANSFORMATION (IJV)
-----------------------------

Orbital window:      10 to 37
Basis functions:    478 (182 shells)
Aux. functions:    1120 (340 shells)
Use SHARK:           on

Processing maps (0.0 sec)
Average map sizes:
   Aux shells -> MOs(i)           27.7
   Aux shells -> MOs(j)           28.0
   MOs        -> AO shells       177.4

Calculating integrals (0.4 sec, 6.642 MB)
Sorting integrals (0.0 sec, 6.629 MB)
Total time for the integral transformation: 0.4 sec
--------------------------------
LOCAL RI TRANSFORMATION (VABPAO)
--------------------------------

Number of PAOs:     478
Basis functions:    478 (182 shells)
Aux. functions:    1120 (340 shells)
Use SHARK:           on

Processing maps (0.0 sec)
Average map sizes:
   Aux shells -> PAOs            478.0
   PAOs       -> AO shells       182.0

Calculating integrals (1.5 sec, 1952.391 MB)
Finished


-------------------------------------
Pair Pair Term precalculation with     
RI-(ij|mn) and (im|jn) transformation  
ON THE FLY                             
-------------------------------------

   IBatch   1 (of   2)              ... done (   32.310 sec)
   IBatch   2 (of   2)              ... done (   23.103 sec)
Total EXT                           ...          55.412 sec

---------------------
RI-PNO TRANSFORMATION
---------------------

Total Number of PNOs                   ...  9821
Average number of PNOs per pair        ...    34
Maximal number of PNOs per pair        ...    84
   #pairs with  1 -  5 PNOs   :    0
   #pairs with  6 - 10 PNOs   :    8
   #pairs with 11 - 15 PNOs   :   25
   #pairs with 16 - 20 PNOs   :   30
   #pairs with 21 - 25 PNOs   :   30
   #pairs with 26 - 30 PNOs   :   29
   #pairs with 31 - 35 PNOs   :   37
   #pairs with 36 - 40 PNOs   :   29
   #pairs with 41 - 45 PNOs   :   34
   #pairs with 46 - 50 PNOs   :   19
   #pairs with 51 - 55 PNOs   :   20
   #pairs with 56 - 60 PNOs   :   11
   #pairs with 61 - 65 PNOs   :    2
   #pairs with 66 - 70 PNOs   :    3
   #pairs with 71 - 75 PNOs   :    5
   #pairs with 76 - 80 PNOs   :    3
   #pairs with 81 - 85 PNOs   :    1

Generation of (ij|ab)[P] integrals            ... on
Generation of (ia|bc)[P],(ja|bc)[P] integrals ... on
Storage of 3 and 4 external integrals         ... on
Generation of ALL (ka|bc)[P] integrals        ... on
Keep RI integrals in memory                   ... off

Ibatch:  1 (of  1)
Starting 2-4 index PNO integral generation ... done

Timings:
Total PNO integral transformation time     ...         60.712 sec
Size of the 3-external file                ...       150 MB
Size of the 4-external file                ...      1006 MB
Size of the IKJL file                      ...         0 MB
Size of the all 3-external file            ...      2101 MB
Size of the 1-external file                ...         6 MB

Making pair/pair overlap matrices          ... done (    2.746 sec)
Size of the pair overlap file              ... 562 MB
Redoing the guess amplitudes               ... done (    0.004 sec)

-------------------------
FINAL STARTUP INFORMATION
-------------------------

E(0)                                       ...   -459.672747256
E(SL-MP2)                                  ...     -1.751033531
E(SL-MP2) including corrections            ...     -1.751086081
Initial E(tot)                             ...   -461.423833337
<T|T>                                      ...      0.503634646
Number of pairs included                   ... 286
Total number of pairs                      ... 406

------------------------------------------------
                  RHF COUPLED CLUSTER ITERATIONS
------------------------------------------------

Number of PNO amplitudes to be optimized   ...       406271
Number of non-PNO amplitudes               ...     55369600
Untruncated number of regular amplitudes   ...     78601600

Iter       E(tot)           E(Corr)          Delta-E          Residual     Time
  0   -461.423918661     -1.740565389      0.010468142      0.019706643   12.17
                           *** Turning on DIIS ***
  1   -461.479817198     -1.796463925     -0.055898536      0.012879065    5.97
  2   -461.525678397     -1.842325125     -0.045861200      0.006186784    6.21
  3   -461.534759116     -1.851405843     -0.009080719      0.003952007    5.94
  4   -461.537704863     -1.854351590     -0.002945747      0.001838340    5.96
  5   -461.538784405     -1.855431132     -0.001079542      0.000863891    5.95
  6   -461.539072478     -1.855719205     -0.000288073      0.000380519    5.98
  7   -461.539112765     -1.855759492     -0.000040287      0.000239570    5.98
  8   -461.539134793     -1.855781520     -0.000022029      0.000139580    5.96
  9   -461.539121768     -1.855768495      0.000013025      0.000065256    5.98
 10   -461.539129214     -1.855775941     -0.000007446      0.000027412    5.98
 11   -461.539127301     -1.855774028      0.000001913      0.000014995    6.07
               --- The Coupled-Cluster iterations have converged ---

----------------------
COUPLED CLUSTER ENERGY
----------------------

E(0)                                       ...   -459.672747256
E(CORR)(strong-pairs)                      ...     -1.855774028
E(CORR)(weak-pairs)                        ...     -0.010606017
E(CORR)(corrected)                         ...     -1.866380045
E(TOT)                                     ...   -461.539127301
Singles Norm <S|S>**1/2                    ...      0.091760450  
T1 diagnostic                              ...      0.012262006  

------------------
LARGEST AMPLITUDES
------------------
  29-> 38  29-> 38       0.053789
  30-> 38  30-> 38       0.051839
  15-> 38  15-> 38       0.051661
  20-> 38  20-> 38       0.049532
  33-> 38  33-> 38       0.048422
  32-> 39  32-> 39       0.042736
  30-> 38  29-> 38       0.041250
  21-> 38  21-> 38       0.035964
  21-> 39  21-> 39       0.035405
  31-> 42  31-> 42       0.034592
  35-> 38  35-> 38       0.033683
  34-> 41  34-> 41       0.033102
  26-> 38  26-> 38       0.031323
  36-> 38  36-> 38       0.031240
  31-> 38  31-> 38       0.031159
  34-> 38  34-> 38       0.030840


-------------------------------------------
DLPNO BASED TRIPLES CORRECTION
-------------------------------------------

Singles multiplier          ...  1.000000
TCutTNO                     ... 1.000e-09
TCutMP2Pairs                ... 1.000e-05
TCutDOStrong                ... 2.000e-02
TCutMKNStrong               ... 1.000e-02
TCutDOWeak                  ... 4.000e-02
TCutMKNWeak                 ... 1.000e-01

Fragment selection                          .... not used
Fock matrix occ-virt block is zero --> Setting DT_in_Triples to false.
Number of Triples that are to be computed   ...      2751

 . . . . . . . . .
10% done  
20% done  
30% done  
40% done  
50% done  
60% done  
70% done  
80% done  
90% done               (    111.405 sec)
Triples timings:
Total time for T0               ...   121.079 sec
Total time for Iterative (T)    ...     0.000 sec
Total time of overall (T)       ...   128.291 sec

Triples List generation         ...     0.000 sec
TNO generation                  ...     9.579 sec
Pair density generation         ...     0.044 sec
Look up tables                  ...     0.000 sec
Generating 3-index integrals    ...    75.468 sec
  Make 4-ind.int. from 3-ind.int...     8.795 sec
  Projecting amplitudes (D + S) ...    15.126 sec
  Downprojecting integrals      ...     0.001 sec
  Energy contr. (sum over a,b,c)...     2.223 sec
Fitting ET(->0)                 ...     0.000 sec

Everything after 3-index        ...    35.937 sec

Timing details:
 TNO integrals                  ...    83.508 sec
   Reading 3-index integrals    ...     0.364 sec
   Sorting integrals            ...     8.869 sec
       Sorting integrals 1      ...     0.001 sec
       Sorting integrals 2      ...     6.566 sec
       Sorting integrals 3      ...     0.319 sec
       Sorting integrals 4      ...     0.027 sec
       Sorting integrals 5      ...     0.079 sec
       Sorting integrals 6      ...     1.877 sec
   Calculating local VM**-1/2   ...     0.306 sec
   Orthogonal. integrals        ...     0.688 sec
   Multipl. 3-index integrals   ...    73.281 sec
   All concerning IRIab (w/TNO) ...     5.558 sec

 Calculate W0/W1                ...     9.785 sec
 W 3-ext contribution           ...     5.911 sec
 W 3-int contribution           ...     1.751 sec
 Sorting W                      ...     1.944 sec

 V exchange contribution        ...     0.881 sec

 Timings for Triples without generation
     of 3-index integrals       ...    35.934 sec
       0 weak pairs             ...    28.165 sec
       1 weak pair              ...     7.769 sec
       2 weak pairs             ...     0.000 sec
       3 weak pairs             ...     0.000 sec
  Extra time for extrapolation  ...     0.000 sec

Number of Triples   (0, 1, 2, 3 weak pairs; overall):   1758     993       0       0  (  2751)
Number of Atoms     (0, 1, 2, 3 weak pairs; overall):   16.0    12.7     0.0     0.0  (    22)
Number of PAOs      (0, 1, 2, 3 weak pairs; overall):  372.9   308.9     0.0     0.0  (   478)
Number of AuxFcns   (0, 1, 2, 3 weak pairs; overall):  422.5   344.2     0.0     0.0  (  1120)
Number of TNOs      (0, 1, 2, 3 weak pairs         ):   92.5    64.7     0.0     0.0
Aver. Number of NTNO, Atoms, PAOs, AuxFcns / Triples:   2751    82.4    14.8   349.8   394.3

Triples Correction (T)                     ...     -0.085933168
Final correlation energy                   ...     -1.952313213
E(CCSD)                                    ...   -461.539127301
E(CCSD(T))                                 ...   -461.625060469



--------------------------------------------------------------------------------
                                    TIMINGS
--------------------------------------------------------------------------------


Total execution time                   ...      411.055 sec

Localization of occupied MO's          ...        0.475 sec (  0.1%)
Fock Matrix Formation                  ...        8.683 sec (  2.1%)
Global overlap, Fock, MKN matrices     ...        0.392 sec (  0.1%)
Differential overlap integrals         ...        0.577 sec (  0.1%)
Organizing maps                        ...        0.042 sec (  0.0%)
RI 3-index integral generations        ...        3.500 sec (  0.9%)
RI-PNO integral transformation         ...      119.514 sec ( 29.1%)
Initial Guess                          ...       70.718 sec ( 17.2%)
DIIS Solver                            ...        0.348 sec (  0.1%)
State Vector Update                    ...        0.020 sec (  0.0%)
Sigma-vector construction              ...       77.800 sec ( 18.9%)
  <D|H|D>(0-ext)                       ...        2.121 sec (  2.7% of sigma)
  <D|H|D>(2-ext Fock)                  ...        0.011 sec (  0.0% of sigma)
  <D|H|D>(2-ext)                       ...       11.944 sec ( 15.4% of sigma)
  <D|H|D>(4-ext)                       ...        9.084 sec ( 11.7% of sigma)
  <D|H|D>(4-ext-corr)                  ...       35.111 sec ( 45.1% of sigma)
  CCSD doubles correction              ...        0.100 sec (  0.1% of sigma)
  <S|H|S>                              ...        0.353 sec (  0.5% of sigma)
  <S|H|D>(1-ext)                       ...        0.267 sec (  0.3% of sigma)
  <D|H|S>(1-ext)                       ...        0.006 sec (  0.0% of sigma)
  <S|H|D>(3-ext)                       ...        0.118 sec (  0.2% of sigma)
  Fock-dressing                        ...        6.772 sec (  8.7% of sigma)
  Singles amplitudes                   ...        0.740 sec (  1.0% of sigma)
  (ik|jl)-dressing                     ...        1.750 sec (  2.2% of sigma)
  (ij|ab),(ia|jb)-dressing             ...        1.849 sec (  2.4% of sigma)
  Pair energies                        ...        0.054 sec (  0.1% of sigma)
Total Time for computing (T)           ...      128.298 sec ( 31.2% of ALL)


Maximum memory used throughout the entire MDCI-calculation: 3955.6 MB

-------------------------   --------------------
FINAL SINGLE POINT ENERGY      -461.625060468997
-------------------------   --------------------


                            ***************************************
                            *     ORCA property calculations      *
                            ***************************************


  WARNING: The energy has been calculated at the MDCI level but the densities
           used in the property calculations are still SCF densities
           MDCI response densities have not been calculated 
           use %mdci Density linearized end
           or  %mdci Density unrelaxed end
           or  %mdci Density orbopt end

                                    ---------------------
                                    Active property flags
                                    ---------------------
   (+) Dipole Moment


------------------------------------------------------------------------------
                       ORCA ELECTRIC PROPERTIES CALCULATION
------------------------------------------------------------------------------

Dipole Moment Calculation                       ... on
Quadrupole Moment Calculation                   ... off
Polarizability Calculation                      ... off
GBWName                                         ... /tmp/42996/DATS_13_endo_ii_DLPNO.gbw
Electron density                                ... /tmp/42996/DATS_13_endo_ii_DLPNO.scfp
The origin for moment calculation is the CENTER OF MASS  = (-0.016901, -0.009901 -0.060640)

-------------
DIPOLE MOMENT
-------------
                                X             Y             Z
Electronic contribution:     -0.88205      -0.44956      -3.29364
Nuclear contribution   :      1.28450       0.75243       4.60861
                        -----------------------------------------
Total Dipole Moment    :      0.40245       0.30287       1.31497
                        -----------------------------------------
Magnitude (a.u.)       :      1.40813
Magnitude (Debye)      :      3.57919



--------------------
Rotational spectrum 
--------------------
 
Rotational constants in cm-1:     0.062110     0.039940     0.031531 
Rotational constants in MHz :  1862.005667  1197.361305   945.280400 

 Dipole components along the rotational axes: 
x,y,z [a.u.] :     0.390485     0.388821     1.295829 
x,y,z [Debye]:     0.992533     0.988304     3.293736 

 

Timings for individual modules:

Sum of individual times         ...      484.564 sec (=   8.076 min)
GTO integral calculation        ...        0.770 sec (=   0.013 min)   0.2 %
SCF iterations                  ...       71.645 sec (=   1.194 min)  14.8 %
MDCI module                     ...      412.150 sec (=   6.869 min)  85.1 %
                             ****ORCA TERMINATED NORMALLY****
TOTAL RUN TIME: 0 days 0 hours 8 minutes 5 seconds 92 msec
