Job Start Time: Fri Jun 24 13:02:05 MDT 2022
SLURM Job ID: 43001
SLURM Job Name: DATS_13_exo_iii_DLPNO
SLURM Job Nodes: node10
SLURM Memory / CPU: 8000

                                 *****************
                                 * O   R   C   A *
                                 *****************

                                            #,                                       
                                            ###                                      
                                            ####                                     
                                            #####                                    
                                            ######                                   
                                           ########,                                 
                                     ,,################,,,,,                         
                               ,,#################################,,                 
                          ,,##########################################,,             
                       ,#########################################, ''#####,          
                    ,#############################################,,   '####,        
                  ,##################################################,,,,####,       
                ,###########''''           ''''###############################       
              ,#####''   ,,,,##########,,,,          '''####'''          '####       
            ,##' ,,,,###########################,,,                        '##       
           ' ,,###''''                  '''############,,,                           
         ,,##''                                '''############,,,,        ,,,,,,###''
      ,#''                                            '''#######################'''  
     '                                                          ''''####''''         
             ,#######,   #######,   ,#######,      ##                                
            ,#'     '#,  ##    ##  ,#'     '#,    #''#        ######   ,####,        
            ##       ##  ##   ,#'  ##            #'  '#       #        #'  '#        
            ##       ##  #######   ##           ,######,      #####,   #    #        
            '#,     ,#'  ##    ##  '#,     ,#' ,#      #,         ##   #,  ,#        
             '#######'   ##     ##  '#######'  #'      '#     #####' # '####'        



                  #######################################################
                  #                        -***-                        #
                  #          Department of theory and spectroscopy      #
                  #    Directorship and core code : Frank Neese         #
                  #        Max Planck Institute fuer Kohlenforschung    #
                  #                Kaiser Wilhelm Platz 1               #
                  #                 D-45470 Muelheim/Ruhr               #
                  #                      Germany                        #
                  #                                                     #
                  #                  All rights reserved                #
                  #                        -***-                        #
                  #######################################################


                         Program Version 5.0.3 -  RELEASE  -


 With contributions from (in alphabetic order):
   Daniel Aravena         : Magnetic Suceptibility
   Michael Atanasov       : Ab Initio Ligand Field Theory (pilot matlab implementation)
   Alexander A. Auer      : GIAO ZORA, VPT2 properties, NMR spectrum
   Ute Becker             : Parallelization
   Giovanni Bistoni       : ED, misc. LED, open-shell LED, HFLD
   Martin Brehm           : Molecular dynamics
   Dmytro Bykov           : SCF Hessian
   Vijay G. Chilkuri      : MRCI spin determinant printing, contributions to CSF-ICE
   Dipayan Datta          : RHF DLPNO-CCSD density
   Achintya Kumar Dutta   : EOM-CC, STEOM-CC
   Dmitry Ganyushin       : Spin-Orbit,Spin-Spin,Magnetic field MRCI
   Miquel Garcia          : C-PCM and meta-GGA Hessian, CC/C-PCM, Gaussian charge scheme
   Yang Guo               : DLPNO-NEVPT2, F12-NEVPT2, CIM, IAO-localization
   Andreas Hansen         : Spin unrestricted coupled pair/coupled cluster methods
   Benjamin Helmich-Paris : MC-RPA, TRAH-SCF, COSX integrals
   Lee Huntington         : MR-EOM, pCC
   Robert Izsak           : Overlap fitted RIJCOSX, COSX-SCS-MP3, EOM
   Marcus Kettner         : VPT2
   Christian Kollmar      : KDIIS, OOCD, Brueckner-CCSD(T), CCSD density, CASPT2, CASPT2-K
   Simone Kossmann        : Meta GGA functionals, TD-DFT gradient, OOMP2, MP2 Hessian
   Martin Krupicka        : Initial AUTO-CI
   Lucas Lang             : DCDCAS
   Marvin Lechner         : AUTO-CI (C++ implementation), FIC-MRCC
   Dagmar Lenk            : GEPOL surface, SMD
   Dimitrios Liakos       : Extrapolation schemes; Compound Job, initial MDCI parallelization
   Dimitrios Manganas     : Further ROCIS development; embedding schemes
   Dimitrios Pantazis     : SARC Basis sets
   Anastasios Papadopoulos: AUTO-CI, single reference methods and gradients
   Taras Petrenko         : DFT Hessian,TD-DFT gradient, ASA, ECA, R-Raman, ABS, FL, XAS/XES, NRVS
   Peter Pinski           : DLPNO-MP2, DLPNO-MP2 Gradient
   Christoph Reimann      : Effective Core Potentials
   Marius Retegan         : Local ZFS, SOC
   Christoph Riplinger    : Optimizer, TS searches, QM/MM, DLPNO-CCSD(T), (RO)-DLPNO pert. Triples
   Tobias Risthaus        : Range-separated hybrids, TD-DFT gradient, RPA, STAB
   Michael Roemelt        : Original ROCIS implementation
   Masaaki Saitow         : Open-shell DLPNO-CCSD energy and density
   Barbara Sandhoefer     : DKH picture change effects
   Avijit Sen             : IP-ROCIS
   Kantharuban Sivalingam : CASSCF convergence, NEVPT2, FIC-MRCI
   Bernardo de Souza      : ESD, SOC TD-DFT
   Georgi Stoychev        : AutoAux, RI-MP2 NMR, DLPNO-MP2 response
   Willem Van den Heuvel  : Paramagnetic NMR
   Boris Wezisla          : Elementary symmetry handling
   Frank Wennmohs         : Technical directorship


 We gratefully acknowledge several colleagues who have allowed us to
 interface, adapt or use parts of their codes:
   Stefan Grimme, W. Hujo, H. Kruse, P. Pracht,  : VdW corrections, initial TS optimization,
                  C. Bannwarth, S. Ehlert          DFT functionals, gCP, sTDA/sTD-DF
   Ed Valeev, F. Pavosevic, A. Kumar             : LibInt (2-el integral package), F12 methods
   Garnet Chan, S. Sharma, J. Yang, R. Olivares  : DMRG
   Ulf Ekstrom                                   : XCFun DFT Library
   Mihaly Kallay                                 : mrcc  (arbitrary order and MRCC methods)
   Jiri Pittner, Ondrej Demel                    : Mk-CCSD
   Frank Weinhold                                : gennbo (NPA and NBO analysis)
   Christopher J. Cramer and Donald G. Truhlar   : smd solvation model
   Lars Goerigk                                  : TD-DFT with DH, B97 family of functionals
   V. Asgeirsson, H. Jonsson                     : NEB implementation
   FAccTs GmbH                                   : IRC, NEB, NEB-TS, DLPNO-Multilevel, CI-OPT
                                                   MM, QMMM, 2- and 3-layer-ONIOM, Crystal-QMMM,
                                                   LR-CPCM, SF, NACMEs, symmetry and pop. for TD-DFT,
                                                   nearIR, NL-DFT gradient (VV10), updates on ESD,
                                                   ML-optimized integration grids
   S Lehtola, MJT Oliveira, MAL Marques          : LibXC Library
   Liviu Ungur et al                             : ANISO software


 Your calculation uses the libint2 library for the computation of 2-el integrals
 For citations please refer to: http://libint.valeyev.net

 Your ORCA version has been built with support for libXC version: 5.1.0
 For citations please refer to: https://tddft.org/programs/libxc/

 This ORCA versions uses:
   CBLAS   interface :  Fast vector & matrix operations
   LAPACKE interface :  Fast linear algebra routines
   SCALAPACK package :  Parallel linear algebra routines
   Shared memory     :  Shared parallel matrices
   BLAS/LAPACK       :  OpenBLAS 0.3.15  USE64BITINT DYNAMIC_ARCH NO_AFFINITY Zen SINGLE_THREADED
        Core in use  :  Zen
   Copyright (c) 2011-2014, The OpenBLAS Project


================================================================================

----- Orbital basis set information -----
Your calculation utilizes the basis: def2-TZVPP
   F. Weigend and R. Ahlrichs, Phys. Chem. Chem. Phys. 7, 3297 (2005).

----- AuxC basis set information -----
Your calculation utilizes the auxiliary basis: def2-TZVPP/C
  H-La, Hf-Rn : A. Hellweg, C. Hattig, S. Hofener and W. Klopper, Theor. Chem. Acc. 117, 587 (2007).
        Ce-Lu : J. Chmela and M. E. Harding, Mol. Phys. (2018).

================================================================================
                                        WARNINGS
                       Please study these warnings very carefully!
================================================================================


WARNING: Post HF methods need fully converged wavefunctions
  ===> : Setting SCFConvForced true
         You can overwrite this default with %scf ConvForced false 


WARNING: MDCI localization with Augmented Hessian Foster-Boys
  ===> : Switching off randomization!

INFO   : the flag for use of the SHARK integral package has been found!

================================================================================
                                       INPUT FILE
================================================================================
NAME = /tmp/43001/DATS_13_exo_iii_DLPNO.inp
|  1> # DATS_13_exo_iii_DLPNO
|  2> %maxcore 4000
|  3> %pal nprocs 16 end
|  4> ! pal16 DLPNO-CCSD(T) def2-tzvpp def2-tzvpp/C
|  5> 
|  6> * xyz 0 1
|  7>  C  -1.21343300   1.45407900   0.86092300
|  8>  C   0.33799100   2.02528800  -0.61059800
|  9>  C  -0.06160700  -0.76282800  -0.97828300
| 10>  C  -1.45372000   0.09898000   0.74348700
| 11>  H  -0.63434500   1.83723400   1.69201200
| 12>  H  -1.92319900   2.15387400   0.42433300
| 13>  H  -1.00834400  -0.61935800   1.42340400
| 14>  C   1.34233600   1.11966700  -0.35842000
| 15>  C   1.13740300  -0.27271500  -0.52267700
| 16>  H   0.50449600   3.07620400  -0.39355600
| 17>  H  -0.25039400  -1.83051300  -0.95074700
| 18>  H  -0.41534700   1.83127800  -1.36496700
| 19>  H  -0.66805000  -0.17668400  -1.65484200
| 20>  C  -2.63517300  -0.35906200  -0.00385700
| 21>  O  -3.10054100  -1.47524100   0.03435600
| 22>  H  -3.09763900   0.42917500  -0.64386600
| 23>  O   2.01392000  -1.20419200  -0.04198300
| 24>  C   3.14847000  -0.75946200   0.66542100
| 25>  H   3.69482100  -1.65859300   0.95047300
| 26>  H   3.79436100  -0.13080000   0.04032800
| 27>  H   2.87145700  -0.20368900   1.57011400
| 28>  H   2.21154900   1.46365100   0.19236200
| 29> **                         ****END OF INPUT****
================================================================================

                       ****************************
                       * Single Point Calculation *
                       ****************************

---------------------------------
CARTESIAN COORDINATES (ANGSTROEM)
---------------------------------
  C     -1.213433    1.454079    0.860923
  C      0.337991    2.025288   -0.610598
  C     -0.061607   -0.762828   -0.978283
  C     -1.453720    0.098980    0.743487
  H     -0.634345    1.837234    1.692012
  H     -1.923199    2.153874    0.424333
  H     -1.008344   -0.619358    1.423404
  C      1.342336    1.119667   -0.358420
  C      1.137403   -0.272715   -0.522677
  H      0.504496    3.076204   -0.393556
  H     -0.250394   -1.830513   -0.950747
  H     -0.415347    1.831278   -1.364967
  H     -0.668050   -0.176684   -1.654842
  C     -2.635173   -0.359062   -0.003857
  O     -3.100541   -1.475241    0.034356
  H     -3.097639    0.429175   -0.643866
  O      2.013920   -1.204192   -0.041983
  C      3.148470   -0.759462    0.665421
  H      3.694821   -1.658593    0.950473
  H      3.794361   -0.130800    0.040328
  H      2.871457   -0.203689    1.570114
  H      2.211549    1.463651    0.192362

----------------------------
CARTESIAN COORDINATES (A.U.)
----------------------------
  NO LB      ZA    FRAG     MASS         X           Y           Z
   0 C     6.0000    0    12.011   -2.293056    2.747811    1.626909
   1 C     6.0000    0    12.011    0.638710    3.827240   -1.153863
   2 C     6.0000    0    12.011   -0.116420   -1.441536   -1.848687
   3 C     6.0000    0    12.011   -2.747133    0.187045    1.404987
   4 H     1.0000    0     1.008   -1.198738    3.471869    3.197439
   5 H     1.0000    0     1.008   -3.634319    4.070232    0.801873
   6 H     1.0000    0     1.008   -1.905494   -1.170417    2.689844
   7 C     6.0000    0    12.011    2.536647    2.115864   -0.677316
   8 C     6.0000    0    12.011    2.149380   -0.515357   -0.987716
   9 H     1.0000    0     1.008    0.953359    5.813183   -0.743713
  10 H     1.0000    0     1.008   -0.473176   -3.459168   -1.796651
  11 H     1.0000    0     1.008   -0.784892    3.460614   -2.579414
  12 H     1.0000    0     1.008   -1.262432   -0.333884   -3.127198
  13 C     6.0000    0    12.011   -4.979755   -0.678529   -0.007289
  14 O     8.0000    0    15.999   -5.859173   -2.787801    0.064923
  15 H     1.0000    0     1.008   -5.853689    0.811023   -1.216730
  16 O     8.0000    0    15.999    3.805757   -2.275593   -0.079336
  17 C     6.0000    0    12.011    5.949746   -1.435175    1.257463
  18 H     1.0000    0     1.008    6.982200   -3.134287    1.796134
  19 H     1.0000    0     1.008    7.170303   -0.247176    0.076209
  20 H     1.0000    0     1.008    5.426267   -0.384916    2.967085
  21 H     1.0000    0     1.008    4.179222    2.765900    0.363511

--------------------------------
INTERNAL COORDINATES (ANGSTROEM)
--------------------------------
 C      0   0   0     0.000000000000     0.00000000     0.00000000
 C      1   0   0     2.213271380310     0.00000000     0.00000000
 C      2   1   0     2.840503766990    74.58121620     0.00000000
 C      1   2   3     1.381239427567   108.57914284     0.37793017
 H      1   2   3     1.082986422671    92.52725568   123.64262043
 H      1   2   3     1.088159751544    91.40297865   239.15927631
 H      4   1   2     1.084737936328   121.66625896    99.45855265
 C      2   1   3     1.375664209882   102.70793033   307.94289682
 C      3   2   1     1.373103259083    58.92580124   245.19661323
 H      2   1   3     1.085935349754   102.96495864   183.48579043
 H      3   2   1     1.084596709330   170.91394299   328.94459944
 H      2   1   3     1.083619218409    85.94738182    68.98374308
 H      3   2   1     1.081235395955    68.14817635    94.08994488
 C      4   1   2     1.471107310603   119.23353583   259.55601455
 O     14   4   1     1.209910397027   125.45695899   195.18224819
 H     14   4   1     1.115707797502   113.84936881    15.33591981
 O      9   3   2     1.366381416170   115.69346011   168.80750964
 C     17   9   3     1.409045384158   118.55320664   191.68792378
 H     18  17   9     1.090041564834   105.93336104   179.91260795
 H     18  17   9     1.096873900124   111.64921361   298.51923305
 H     18  17   9     1.097310008132   111.74706097    61.10188768
 H      8   2   1     1.084996333242   117.98421281   256.39396795

---------------------------
INTERNAL COORDINATES (A.U.)
---------------------------
 C      0   0   0     0.000000000000     0.00000000     0.00000000
 C      1   0   0     4.182476768831     0.00000000     0.00000000
 C      2   1   0     5.367774201983    74.58121620     0.00000000
 C      1   2   3     2.610164243476   108.57914284     0.37793017
 H      1   2   3     2.046547745604    92.52725568   123.64262043
 H      1   2   3     2.056323920375    91.40297865   239.15927631
 H      4   1   2     2.049857626735   121.66625896    99.45855265
 C      2   1   3     2.599628608914   102.70793033   307.94289682
 C      3   2   1     2.594789113262    58.92580124   245.19661323
 H      2   1   3     2.052120410179   102.96495864   183.48579043
 H      3   2   1     2.049590746386   170.91394299   328.94459944
 H      2   1   3     2.047743556247    85.94738182    68.98374308
 H      3   2   1     2.043238784657    68.14817635    94.08994488
 C      4   1   2     2.779989930649   119.23353583   259.55601455
 O     14   4   1     2.286399296965   125.45695899   195.18224819
 H     14   4   1     2.108382182759   113.84936881    15.33591981
 O      9   3   2     2.582086671040   115.69346011   168.80750964
 C     17   9   3     2.662709886324   118.55320664   191.68792378
 H     18  17   9     2.059880032127   105.93336104   179.91260795
 H     18  17   9     2.072791274681   111.64921361   298.51923305
 H     18  17   9     2.073615399381   111.74706097    61.10188768
 H      8   2   1     2.050345926137   117.98421281   256.39396795

---------------------
BASIS SET INFORMATION
---------------------
There are 3 groups of distinct atoms

 Group   1 Type C   : 11s6p2d1f contracted to 5s3p2d1f pattern {62111/411/11/1}
 Group   2 Type H   : 5s2p1d contracted to 3s2p1d pattern {311/11/1}
 Group   3 Type O   : 11s6p2d1f contracted to 5s3p2d1f pattern {62111/411/11/1}

Atom   0C    basis set group =>   1
Atom   1C    basis set group =>   1
Atom   2C    basis set group =>   1
Atom   3C    basis set group =>   1
Atom   4H    basis set group =>   2
Atom   5H    basis set group =>   2
Atom   6H    basis set group =>   2
Atom   7C    basis set group =>   1
Atom   8C    basis set group =>   1
Atom   9H    basis set group =>   2
Atom  10H    basis set group =>   2
Atom  11H    basis set group =>   2
Atom  12H    basis set group =>   2
Atom  13C    basis set group =>   1
Atom  14O    basis set group =>   3
Atom  15H    basis set group =>   2
Atom  16O    basis set group =>   3
Atom  17C    basis set group =>   1
Atom  18H    basis set group =>   2
Atom  19H    basis set group =>   2
Atom  20H    basis set group =>   2
Atom  21H    basis set group =>   2
---------------------------------
AUXILIARY/C BASIS SET INFORMATION
---------------------------------
There are 3 groups of distinct atoms

 Group   1 Type C   : 8s6p5d3f1g contracted to 8s6p4d3f1g pattern {11111111/111111/2111/111/1}
 Group   2 Type H   : 4s3p2d1f contracted to 4s3p2d1f pattern {1111/111/11/1}
 Group   3 Type O   : 8s6p5d3f1g contracted to 8s6p4d3f1g pattern {11111111/111111/2111/111/1}

Atom   0C    basis set group =>   1
Atom   1C    basis set group =>   1
Atom   2C    basis set group =>   1
Atom   3C    basis set group =>   1
Atom   4H    basis set group =>   2
Atom   5H    basis set group =>   2
Atom   6H    basis set group =>   2
Atom   7C    basis set group =>   1
Atom   8C    basis set group =>   1
Atom   9H    basis set group =>   2
Atom  10H    basis set group =>   2
Atom  11H    basis set group =>   2
Atom  12H    basis set group =>   2
Atom  13C    basis set group =>   1
Atom  14O    basis set group =>   3
Atom  15H    basis set group =>   2
Atom  16O    basis set group =>   3
Atom  17C    basis set group =>   1
Atom  18H    basis set group =>   2
Atom  19H    basis set group =>   2
Atom  20H    basis set group =>   2
Atom  21H    basis set group =>   2


           ************************************************************
           *        Program running with 16 parallel MPI-processes    *
           *              working on a common directory               *
           ************************************************************
------------------------------------------------------------------------------
                           ORCA GTO INTEGRAL CALCULATION
------------------------------------------------------------------------------
------------------------------------------------------------------------------
                   ___                                                        
                  /   \      - P O W E R E D   B Y -                         
                 /     \                                                     
                 |  |  |   _    _      __       _____    __    __             
                 |  |  |  | |  | |    /  \     |  _  \  |  |  /  |          
                  \  \/   | |  | |   /    \    | | | |  |  | /  /          
                 / \  \   | |__| |  /  /\  \   | |_| |  |  |/  /          
                |  |  |   |  __  | /  /__\  \  |    /   |      \           
                |  |  |   | |  | | |   __   |  |    \   |  |\   \          
                \     /   | |  | | |  |  |  |  | |\  \  |  | \   \       
                 \___/    |_|  |_| |__|  |__|  |_| \__\ |__|  \__/        
                                                                              
                      - O R C A' S   B I G   F R I E N D -                    
                                      &                                       
                       - I N T E G R A L  F E E D E R -                       
                                                                              
 v1 FN, 2020, v2 2021                                                         
------------------------------------------------------------------------------


Reading SHARK input file /tmp/43001/DATS_13_exo_iii_DLPNO.SHARKINP.tmp ... ok
----------------------
SHARK INTEGRAL PACKAGE
----------------------

Number of atoms                             ...     22
Number of basis functions                   ...    478
Number of shells                            ...    182
Maximum angular momentum                    ...      3
Integral batch strategy                     ... SHARK/LIBINT Hybrid
RI-J (if used) integral strategy            ... SPLIT-RIJ (Revised 2003 algorithm where possible)
Printlevel                                  ...      1
Contraction scheme used                     ... SEGMENTED contraction
Coulomb Range Separation                    ... NOT USED
Exchange Range Separation                   ... NOT USED
Finite Nucleus Model                        ... NOT USED
Auxiliary Coulomb fitting basis             ... NOT available
Auxiliary J/K fitting basis                 ... NOT available
Auxiliary Correlation fitting basis         ... AVAILABLE
   # of basis functions in Aux-C            ...   1120
   # of shells in Aux-C                     ...    340
   Maximum angular momentum in Aux-C        ...      4
Auxiliary 'external' fitting basis          ... NOT available
Integral threshold                          ...     1.000000e-10
Primitive cut-off                           ...     1.000000e-11
Primitive pair pre-selection threshold      ...     1.000000e-11

Calculating pre-screening integrals         ... done (  0.0 sec) Dimension = 182
Organizing shell pair data                  ... done (  0.1 sec)
Shell pair information
Total number of shell pairs                 ...     16653
Shell pairs after pre-screening             ...     14176
Total number of primitive shell pairs       ...     44212
Primitive shell pairs kept                  ...     28072
          la=0 lb=0:   3148 shell pairs
          la=1 lb=0:   4027 shell pairs
          la=1 lb=1:   1335 shell pairs
          la=2 lb=0:   2248 shell pairs
          la=2 lb=1:   1470 shell pairs
          la=2 lb=2:    430 shell pairs
          la=3 lb=0:    727 shell pairs
          la=3 lb=1:    474 shell pairs
          la=3 lb=2:    269 shell pairs
          la=3 lb=3:     48 shell pairs

Calculating one electron integrals          ... done (  0.0 sec)
Calculating RI/C V-Matrix + Cholesky decomp.... done (  0.0 sec)
Calculating Nuclear repulsion               ... done (  0.0 sec) ENN=    521.365472116417 Eh

SHARK setup successfully completed in   0.4 seconds

Maximum memory used throughout the entire GTOINT-calculation: 26.4 MB


           ************************************************************
           *        Program running with 16 parallel MPI-processes    *
           *              working on a common directory               *
           ************************************************************
-------------------------------------------------------------------------------
                                 ORCA SCF
-------------------------------------------------------------------------------

------------
SCF SETTINGS
------------
Hamiltonian:
 Ab initio Hamiltonian  Method          .... Hartree-Fock(GTOs)


General Settings:
 Integral files         IntName         .... /tmp/43001/DATS_13_exo_iii_DLPNO
 Hartree-Fock type      HFTyp           .... RHF
 Total Charge           Charge          ....    0
 Multiplicity           Mult            ....    1
 Number of Electrons    NEL             ....   76
 Basis Dimension        Dim             ....  478
 Nuclear Repulsion      ENuc            ....    521.3654721164 Eh

Convergence Acceleration:
 DIIS                   CNVDIIS         .... on
   Start iteration      DIISMaxIt       ....    12
   Startup error        DIISStart       ....  0.200000
   # of expansion vecs  DIISMaxEq       ....     5
   Bias factor          DIISBfac        ....   1.050
   Max. coefficient     DIISMaxC        ....  10.000
 Trust-Rad. Augm. Hess. CNVTRAH         .... auto
   Auto Start mean grad. ratio tolernc. ....  1.125000
   Auto Start start iteration           ....    20
   Auto Start num. interpolation iter.  ....    10
   Max. Number of Micro iterations      ....    16
   Max. Number of Macro iterations      .... Maxiter - #DIIS iter
   Number of Davidson start vectors     ....     2
   Converg. threshold I  (grad. norm)   ....   5.000e-05
   Converg. threshold II (energy diff.) ....   1.000e-06
   Grad. Scal. Fac. for Micro threshold ....   0.100
   Minimum threshold for Micro iter.    ....   0.010
   NR start threshold (gradient norm)   ....   0.001
   Initial trust radius                 ....   0.400
   Minimum AH scaling param. (alpha)    ....   1.000
   Maximum AH scaling param. (alpha)    .... 1000.000
   Orbital update algorithm             .... Taylor
   White noise on init. David. guess    .... on
   Maximum white noise                  ....   0.010
   Quad. conv. algorithm                .... NR
 SOSCF                  CNVSOSCF        .... on
   Start iteration      SOSCFMaxIt      ....   150
   Startup grad/error   SOSCFStart      ....  0.003300
 Level Shifting         CNVShift        .... on
   Level shift para.    LevelShift      ....    0.2500
   Turn off err/grad.   ShiftErr        ....    0.0010
 Zerner damping         CNVZerner       .... off
 Static damping         CNVDamp         .... on
   Fraction old density DampFac         ....    0.7000
   Max. Damping (<1)    DampMax         ....    0.9800
   Min. Damping (>=0)   DampMin         ....    0.0000
   Turn off err/grad.   DampErr         ....    0.1000
 Fernandez-Rico         CNVRico         .... off

SCF Procedure:
 Maximum # iterations   MaxIter         ....   125
 SCF integral mode      SCFMode         .... Direct
   Integral package                     .... SHARK and LIBINT hybrid scheme
 Reset frequency        DirectResetFreq ....    20
 Integral Threshold     Thresh          ....  1.000e-10 Eh
 Primitive CutOff       TCut            ....  1.000e-11 Eh

Convergence Tolerance:
 Convergence Check Mode ConvCheckMode   .... Total+1el-Energy
 Convergence forced     ConvForced      .... 1
 Energy Change          TolE            ....  1.000e-06 Eh
 1-El. energy change                    ....  1.000e-03 Eh
 Orbital Gradient       TolG            ....  5.000e-05
 Orbital Rotation angle TolX            ....  5.000e-05
 DIIS Error             TolErr          ....  1.000e-06


Diagonalization of the overlap matrix:
Smallest eigenvalue                        ... 4.738e-05
Time for diagonalization                   ...    0.027 sec
Threshold for overlap eigenvalues          ... 1.000e-08
Number of eigenvalues below threshold      ... 0
Time for construction of square roots      ...    0.025 sec
Total time needed                          ...    0.053 sec

Time for model grid setup =    0.077 sec

------------------------------
INITIAL GUESS: MODEL POTENTIAL
------------------------------
Loading Hartree-Fock densities                     ... done
Calculating cut-offs                               ... done
Initializing the effective Hamiltonian             ... done
Setting up the integral package (SHARK)            ... done
Starting the Coulomb interaction                   ... done (   0.1 sec)
Reading the grid                                   ... done
Mapping shells                                     ... done
Starting the XC term evaluation                    ... done (   0.0 sec)
Transforming the Hamiltonian                       ... done (   0.0 sec)
Diagonalizing the Hamiltonian                      ... done (   0.0 sec)
Back transforming the eigenvectors                 ... done (   0.0 sec)
Now organizing SCF variables                       ... done
                      ------------------
                      INITIAL GUESS DONE (   0.2 sec)
                      ------------------
--------------
SCF ITERATIONS
--------------
ITER       Energy         Delta-E        Max-DP      RMS-DP      [F,P]     Damp
               ***  Starting incremental Fock matrix formation  ***
  0   -459.2401435244   0.000000000000 0.08039333  0.00067785  0.2994192 0.7000
  1   -459.3877735902  -0.147630065825 0.07481401  0.00056519  0.2200327 0.7000
                               ***Turning on DIIS***
  2   -459.4789619183  -0.091188328115 0.03705951  0.00036337  0.1627762 0.7000
  3   -460.6481491844  -1.169187266062 0.01071627  0.00021239  0.1202775 0.7000
  4   -460.4872391494   0.160910034936 0.02943158  0.00051568  0.0845706 0.0000
  5   -459.7029361268   0.784303022664 0.01383643  0.00009371  0.0037650 0.0000
                      *** Initiating the SOSCF procedure ***
                           *** Shutting down DIIS ***
                      *** Re-Reading the Fockian *** 
                      *** Removing any level shift *** 
ITER      Energy       Delta-E        Grad      Rot      Max-DP    RMS-DP
  6   -459.67768615   0.0252499785  0.002313  0.002313  0.011508  0.000064
               *** Restarting incremental Fock matrix formation ***
  7   -459.67325973   0.0044264184  0.001493  0.003414  0.005198  0.000035
  8   -459.67331626  -0.0000565345  0.000831  0.005154  0.011116  0.000059
  9   -459.67334631  -0.0000300468  0.000210  0.000422  0.001963  0.000013
 10   -459.67334931  -0.0000030017  0.000083  0.000302  0.000813  0.000007
                 **** Energy Check signals convergence ****
              ***Rediagonalizing the Fockian in SOSCF/NRSCF***

               *****************************************************
               *                     SUCCESS                       *
               *           SCF CONVERGED AFTER  11 CYCLES          *
               *****************************************************


----------------
TOTAL SCF ENERGY
----------------

Total Energy       :         -459.67334993 Eh          -12508.34776 eV

Components:
Nuclear Repulsion  :          521.36547212 Eh           14187.07575 eV
Electronic Energy  :         -981.03882205 Eh          -26695.42352 eV
One Electron Energy:        -1659.59049027 Eh          -45159.75312 eV
Two Electron Energy:          678.55166822 Eh           18464.32960 eV

Virial components:
Potential Energy   :         -918.81018776 Eh          -25002.09629 eV
Kinetic Energy     :          459.13683782 Eh           12493.74853 eV
Virial Ratio       :            2.00116852


---------------
SCF CONVERGENCE
---------------

  Last Energy change         ...   -6.2085e-07  Tolerance :   1.0000e-06
  Last MAX-Density change    ...    1.6423e-04  Tolerance :   1.0000e-05
  Last RMS-Density change    ...    2.0342e-06  Tolerance :   1.0000e-06
  Last Orbital Gradient      ...    5.2007e-05  Tolerance :   5.0000e-05
  Last Orbital Rotation      ...    2.7037e-04  Tolerance :   5.0000e-05

             **** THE GBW FILE WAS UPDATED (/tmp/43001/DATS_13_exo_iii_DLPNO.gbw) ****
             **** DENSITY /tmp/43001/DATS_13_exo_iii_DLPNO.scfp WAS UPDATED ****
             **** ENERGY FILE WAS UPDATED (/tmp/43001/DATS_13_exo_iii_DLPNO.en.tmp) ****
             **** THE GBW FILE WAS UPDATED (/tmp/43001/DATS_13_exo_iii_DLPNO.gbw) ****
             **** DENSITY /tmp/43001/DATS_13_exo_iii_DLPNO.scfp WAS UPDATED ****
----------------
ORBITAL ENERGIES
----------------

  NO   OCC          E(Eh)            E(eV) 
   0   2.0000     -20.583695      -560.1108 
   1   2.0000     -20.536174      -558.8177 
   2   2.0000     -11.322124      -308.0907 
   3   2.0000     -11.299058      -307.4630 
   4   2.0000     -11.287525      -307.1492 
   5   2.0000     -11.260135      -306.4038 
   6   2.0000     -11.252264      -306.1897 
   7   2.0000     -11.244630      -305.9819 
   8   2.0000     -11.243166      -305.9421 
   9   2.0000     -11.236691      -305.7659 
  10   2.0000      -1.412513       -38.4364 
  11   2.0000      -1.376059       -37.4445 
  12   2.0000      -1.112678       -30.2775 
  13   2.0000      -1.059335       -28.8260 
  14   2.0000      -1.013839       -27.5880 
  15   2.0000      -0.933490       -25.4015 
  16   2.0000      -0.879093       -23.9213 
  17   2.0000      -0.865072       -23.5398 
  18   2.0000      -0.773751       -21.0548 
  19   2.0000      -0.737848       -20.0779 
  20   2.0000      -0.709436       -19.3047 
  21   2.0000      -0.675468       -18.3804 
  22   2.0000      -0.659201       -17.9378 
  23   2.0000      -0.653438       -17.7810 
  24   2.0000      -0.644047       -17.5254 
  25   2.0000      -0.604292       -16.4436 
  26   2.0000      -0.584367       -15.9014 
  27   2.0000      -0.582086       -15.8394 
  28   2.0000      -0.568108       -15.4590 
  29   2.0000      -0.551303       -15.0017 
  30   2.0000      -0.539813       -14.6891 
  31   2.0000      -0.533100       -14.5064 
  32   2.0000      -0.510893       -13.9021 
  33   2.0000      -0.493498       -13.4288 
  34   2.0000      -0.457737       -12.4557 
  35   2.0000      -0.414833       -11.2882 
  36   2.0000      -0.322981        -8.7888 
  37   2.0000      -0.310297        -8.4436 
  38   0.0000       0.069588         1.8936 
  39   0.0000       0.115007         3.1295 
  40   0.0000       0.127528         3.4702 
  41   0.0000       0.142058         3.8656 
  42   0.0000       0.161361         4.3909 
  43   0.0000       0.170233         4.6323 
  44   0.0000       0.173084         4.7098 
  45   0.0000       0.197422         5.3721 
  46   0.0000       0.201349         5.4790 
  47   0.0000       0.210798         5.7361 
  48   0.0000       0.217405         5.9159 
  49   0.0000       0.219785         5.9807 
  50   0.0000       0.229776         6.2525 
  51   0.0000       0.239342         6.5128 
  52   0.0000       0.243953         6.6383 
  53   0.0000       0.257775         7.0144 
  54   0.0000       0.266117         7.2414 
  55   0.0000       0.293339         7.9822 
  56   0.0000       0.303198         8.2504 
  57   0.0000       0.314941         8.5700 
  58   0.0000       0.321510         8.7487 
  59   0.0000       0.322725         8.7818 
  60   0.0000       0.335687         9.1345 
  61   0.0000       0.346654         9.4329 
  62   0.0000       0.361456         9.8357 
  63   0.0000       0.383317        10.4306 
  64   0.0000       0.387522        10.5450 
  65   0.0000       0.397350        10.8125 
  66   0.0000       0.403818        10.9884 
  67   0.0000       0.423659        11.5283 
  68   0.0000       0.432569        11.7708 
  69   0.0000       0.439196        11.9511 
  70   0.0000       0.445287        12.1169 
  71   0.0000       0.461710        12.5638 
  72   0.0000       0.470920        12.8144 
  73   0.0000       0.488287        13.2870 
  74   0.0000       0.503523        13.7015 
  75   0.0000       0.510694        13.8967 
  76   0.0000       0.522986        14.2312 
  77   0.0000       0.535334        14.5672 
  78   0.0000       0.541848        14.7444 
  79   0.0000       0.548889        14.9360 
  80   0.0000       0.556522        15.1437 
  81   0.0000       0.561182        15.2705 
  82   0.0000       0.573910        15.6169 
  83   0.0000       0.578894        15.7525 
  84   0.0000       0.588489        16.0136 
  85   0.0000       0.593053        16.1378 
  86   0.0000       0.596886        16.2421 
  87   0.0000       0.609658        16.5896 
  88   0.0000       0.612476        16.6663 
  89   0.0000       0.616911        16.7870 
  90   0.0000       0.632048        17.1989 
  91   0.0000       0.636613        17.3231 
  92   0.0000       0.653959        17.7951 
  93   0.0000       0.671244        18.2655 
  94   0.0000       0.685480        18.6529 
  95   0.0000       0.690169        18.7805 
  96   0.0000       0.695612        18.9286 
  97   0.0000       0.703640        19.1470 
  98   0.0000       0.717964        19.5368 
  99   0.0000       0.727174        19.7874 
 100   0.0000       0.736030        20.0284 
 101   0.0000       0.741014        20.1640 
 102   0.0000       0.766405        20.8549 
 103   0.0000       0.771901        21.0045 
 104   0.0000       0.778759        21.1911 
 105   0.0000       0.798280        21.7223 
 106   0.0000       0.813506        22.1366 
 107   0.0000       0.824783        22.4435 
 108   0.0000       0.832498        22.6534 
 109   0.0000       0.848707        23.0945 
 110   0.0000       0.851916        23.1818 
 111   0.0000       0.863582        23.4993 
 112   0.0000       0.889148        24.1949 
 113   0.0000       0.907616        24.6975 
 114   0.0000       0.911010        24.7899 
 115   0.0000       0.935756        25.4632 
 116   0.0000       0.948993        25.8234 
 117   0.0000       0.966363        26.2961 
 118   0.0000       0.981380        26.7047 
 119   0.0000       0.988045        26.8861 
 120   0.0000       1.013847        27.5882 
 121   0.0000       1.028612        27.9900 
 122   0.0000       1.048029        28.5183 
 123   0.0000       1.056888        28.7594 
 124   0.0000       1.078258        29.3409 
 125   0.0000       1.085328        29.5333 
 126   0.0000       1.092282        29.7225 
 127   0.0000       1.109270        30.1848 
 128   0.0000       1.121011        30.5043 
 129   0.0000       1.126962        30.6662 
 130   0.0000       1.148098        31.2413 
 131   0.0000       1.152587        31.3635 
 132   0.0000       1.161267        31.5997 
 133   0.0000       1.169884        31.8342 
 134   0.0000       1.187727        32.3197 
 135   0.0000       1.190674        32.3999 
 136   0.0000       1.209578        32.9143 
 137   0.0000       1.214711        33.0540 
 138   0.0000       1.222076        33.2544 
 139   0.0000       1.232287        33.5322 
 140   0.0000       1.237114        33.6636 
 141   0.0000       1.244925        33.8761 
 142   0.0000       1.262499        34.3544 
 143   0.0000       1.274586        34.6832 
 144   0.0000       1.286691        35.0126 
 145   0.0000       1.310164        35.6514 
 146   0.0000       1.321126        35.9497 
 147   0.0000       1.327288        36.1173 
 148   0.0000       1.334750        36.3204 
 149   0.0000       1.357666        36.9440 
 150   0.0000       1.360003        37.0076 
 151   0.0000       1.364423        37.1278 
 152   0.0000       1.379334        37.5336 
 153   0.0000       1.395558        37.9751 
 154   0.0000       1.425127        38.7797 
 155   0.0000       1.430160        38.9166 
 156   0.0000       1.441504        39.2253 
 157   0.0000       1.453783        39.5594 
 158   0.0000       1.469031        39.9744 
 159   0.0000       1.476699        40.1830 
 160   0.0000       1.492855        40.6227 
 161   0.0000       1.507819        41.0298 
 162   0.0000       1.516662        41.2705 
 163   0.0000       1.530550        41.6484 
 164   0.0000       1.555572        42.3293 
 165   0.0000       1.567636        42.6575 
 166   0.0000       1.571315        42.7577 
 167   0.0000       1.585036        43.1310 
 168   0.0000       1.602263        43.5998 
 169   0.0000       1.611438        43.8495 
 170   0.0000       1.617675        44.0192 
 171   0.0000       1.640268        44.6340 
 172   0.0000       1.647673        44.8355 
 173   0.0000       1.652601        44.9696 
 174   0.0000       1.664353        45.2894 
 175   0.0000       1.677410        45.6446 
 176   0.0000       1.686691        45.8972 
 177   0.0000       1.689971        45.9864 
 178   0.0000       1.704133        46.3718 
 179   0.0000       1.715837        46.6903 
 180   0.0000       1.722420        46.8694 
 181   0.0000       1.762272        47.9539 
 182   0.0000       1.768126        48.1132 
 183   0.0000       1.772712        48.2379 
 184   0.0000       1.788395        48.6647 
 185   0.0000       1.800235        48.9869 
 186   0.0000       1.811465        49.2925 
 187   0.0000       1.840822        50.0913 
 188   0.0000       1.847399        50.2703 
 189   0.0000       1.862511        50.6815 
 190   0.0000       1.871773        50.9335 
 191   0.0000       1.884303        51.2745 
 192   0.0000       1.890862        51.4530 
 193   0.0000       1.906407        51.8760 
 194   0.0000       1.940765        52.8109 
 195   0.0000       1.960987        53.3612 
 196   0.0000       1.971057        53.6352 
 197   0.0000       1.992094        54.2076 
 198   0.0000       2.007984        54.6400 
 199   0.0000       2.050004        55.7835 
 200   0.0000       2.072485        56.3952 
 201   0.0000       2.086470        56.7757 
 202   0.0000       2.096370        57.0451 
 203   0.0000       2.121125        57.7188 
 204   0.0000       2.146250        58.4024 
 205   0.0000       2.153038        58.5871 
 206   0.0000       2.197287        59.7912 
 207   0.0000       2.222493        60.4771 
 208   0.0000       2.255073        61.3637 
 209   0.0000       2.270924        61.7950 
 210   0.0000       2.275735        61.9259 
 211   0.0000       2.295621        62.4670 
 212   0.0000       2.314679        62.9856 
 213   0.0000       2.347534        63.8797 
 214   0.0000       2.370062        64.4927 
 215   0.0000       2.376476        64.6672 
 216   0.0000       2.386630        64.9435 
 217   0.0000       2.420279        65.8591 
 218   0.0000       2.459900        66.9373 
 219   0.0000       2.462871        67.0181 
 220   0.0000       2.494901        67.8897 
 221   0.0000       2.505296        68.1726 
 222   0.0000       2.549365        69.3717 
 223   0.0000       2.590294        70.4855 
 224   0.0000       2.609860        71.0179 
 225   0.0000       2.654910        72.2438 
 226   0.0000       2.675776        72.8116 
 227   0.0000       2.707247        73.6679 
 228   0.0000       2.717986        73.9601 
 229   0.0000       2.749917        74.8290 
 230   0.0000       2.777031        75.5668 
 231   0.0000       2.798967        76.1638 
 232   0.0000       2.828133        76.9574 
 233   0.0000       2.833047        77.0911 
 234   0.0000       2.855486        77.7017 
 235   0.0000       2.878354        78.3240 
 236   0.0000       2.884272        78.4850 
 237   0.0000       2.917431        79.3873 
 238   0.0000       2.944527        80.1246 
 239   0.0000       2.962796        80.6218 
 240   0.0000       2.977955        81.0343 
 241   0.0000       2.999115        81.6101 
 242   0.0000       3.011726        81.9532 
 243   0.0000       3.019676        82.1696 
 244   0.0000       3.027524        82.3831 
 245   0.0000       3.041526        82.7641 
 246   0.0000       3.047258        82.9201 
 247   0.0000       3.057194        83.1905 
 248   0.0000       3.063061        83.3501 
 249   0.0000       3.080929        83.8363 
 250   0.0000       3.102603        84.4261 
 251   0.0000       3.112154        84.6860 
 252   0.0000       3.118978        84.8717 
 253   0.0000       3.132734        85.2460 
 254   0.0000       3.144984        85.5794 
 255   0.0000       3.152406        85.7813 
 256   0.0000       3.165536        86.1386 
 257   0.0000       3.173098        86.3444 
 258   0.0000       3.187120        86.7259 
 259   0.0000       3.205769        87.2334 
 260   0.0000       3.211502        87.3894 
 261   0.0000       3.216279        87.5194 
 262   0.0000       3.235053        88.0303 
 263   0.0000       3.247250        88.3622 
 264   0.0000       3.256621        88.6172 
 265   0.0000       3.265025        88.8459 
 266   0.0000       3.286680        89.4351 
 267   0.0000       3.301197        89.8301 
 268   0.0000       3.314182        90.1835 
 269   0.0000       3.323891        90.4477 
 270   0.0000       3.340108        90.8890 
 271   0.0000       3.350634        91.1754 
 272   0.0000       3.365018        91.5668 
 273   0.0000       3.370788        91.7238 
 274   0.0000       3.384798        92.1050 
 275   0.0000       3.400282        92.5264 
 276   0.0000       3.409249        92.7704 
 277   0.0000       3.415571        92.9424 
 278   0.0000       3.425877        93.2229 
 279   0.0000       3.435130        93.4746 
 280   0.0000       3.448699        93.8439 
 281   0.0000       3.470562        94.4388 
 282   0.0000       3.483664        94.7953 
 283   0.0000       3.491249        95.0017 
 284   0.0000       3.503469        95.3342 
 285   0.0000       3.514443        95.6328 
 286   0.0000       3.528023        96.0024 
 287   0.0000       3.540805        96.3502 
 288   0.0000       3.546774        96.5126 
 289   0.0000       3.559453        96.8576 
 290   0.0000       3.578557        97.3775 
 291   0.0000       3.596682        97.8707 
 292   0.0000       3.599276        97.9413 
 293   0.0000       3.615467        98.3819 
 294   0.0000       3.619854        98.5012 
 295   0.0000       3.625059        98.6429 
 296   0.0000       3.638878        99.0189 
 297   0.0000       3.648782        99.2884 
 298   0.0000       3.665290        99.7376 
 299   0.0000       3.687518       100.3425 
 300   0.0000       3.693593       100.5078 
 301   0.0000       3.700834       100.7048 
 302   0.0000       3.717487       101.1580 
 303   0.0000       3.721593       101.2697 
 304   0.0000       3.727443       101.4289 
 305   0.0000       3.733328       101.5890 
 306   0.0000       3.765987       102.4777 
 307   0.0000       3.776766       102.7710 
 308   0.0000       3.785577       103.0108 
 309   0.0000       3.796846       103.3174 
 310   0.0000       3.810204       103.6809 
 311   0.0000       3.819617       103.9371 
 312   0.0000       3.837763       104.4308 
 313   0.0000       3.848209       104.7151 
 314   0.0000       3.859836       105.0315 
 315   0.0000       3.872437       105.3744 
 316   0.0000       3.892895       105.9310 
 317   0.0000       3.900028       106.1252 
 318   0.0000       3.914627       106.5224 
 319   0.0000       3.920939       106.6942 
 320   0.0000       3.930414       106.9520 
 321   0.0000       3.949847       107.4808 
 322   0.0000       3.966260       107.9274 
 323   0.0000       3.982505       108.3695 
 324   0.0000       3.996611       108.7533 
 325   0.0000       4.009559       109.1056 
 326   0.0000       4.012966       109.1983 
 327   0.0000       4.024228       109.5048 
 328   0.0000       4.044542       110.0576 
 329   0.0000       4.063328       110.5688 
 330   0.0000       4.064192       110.5923 
 331   0.0000       4.080013       111.0228 
 332   0.0000       4.091968       111.3481 
 333   0.0000       4.125580       112.2627 
 334   0.0000       4.133667       112.4828 
 335   0.0000       4.145166       112.7957 
 336   0.0000       4.155575       113.0789 
 337   0.0000       4.159049       113.1735 
 338   0.0000       4.168777       113.4382 
 339   0.0000       4.193714       114.1168 
 340   0.0000       4.194850       114.1477 
 341   0.0000       4.204228       114.4029 
 342   0.0000       4.209412       114.5439 
 343   0.0000       4.239397       115.3599 
 344   0.0000       4.253443       115.7421 
 345   0.0000       4.262119       115.9781 
 346   0.0000       4.278732       116.4302 
 347   0.0000       4.281476       116.5049 
 348   0.0000       4.294722       116.8653 
 349   0.0000       4.310340       117.2903 
 350   0.0000       4.319316       117.5346 
 351   0.0000       4.325515       117.7033 
 352   0.0000       4.347433       118.2997 
 353   0.0000       4.350760       118.3902 
 354   0.0000       4.356361       118.5426 
 355   0.0000       4.382053       119.2417 
 356   0.0000       4.400156       119.7343 
 357   0.0000       4.405436       119.8780 
 358   0.0000       4.417586       120.2086 
 359   0.0000       4.427217       120.4707 
 360   0.0000       4.447580       121.0248 
 361   0.0000       4.454975       121.2260 
 362   0.0000       4.465384       121.5093 
 363   0.0000       4.483374       121.9988 
 364   0.0000       4.495054       122.3166 
 365   0.0000       4.504495       122.5735 
 366   0.0000       4.522395       123.0606 
 367   0.0000       4.530599       123.2839 
 368   0.0000       4.545914       123.7006 
 369   0.0000       4.560457       124.0964 
 370   0.0000       4.581337       124.6645 
 371   0.0000       4.593865       125.0054 
 372   0.0000       4.601484       125.2127 
 373   0.0000       4.628523       125.9485 
 374   0.0000       4.635088       126.1272 
 375   0.0000       4.674602       127.2024 
 376   0.0000       4.687640       127.5572 
 377   0.0000       4.704713       128.0218 
 378   0.0000       4.719823       128.4329 
 379   0.0000       4.751734       129.3012 
 380   0.0000       4.766814       129.7116 
 381   0.0000       4.788024       130.2888 
 382   0.0000       4.809646       130.8771 
 383   0.0000       4.845750       131.8596 
 384   0.0000       4.859904       132.2447 
 385   0.0000       4.880537       132.8062 
 386   0.0000       4.901706       133.3822 
 387   0.0000       4.911539       133.6498 
 388   0.0000       4.921799       133.9290 
 389   0.0000       4.945468       134.5730 
 390   0.0000       4.950721       134.7160 
 391   0.0000       4.976254       135.4107 
 392   0.0000       4.991971       135.8384 
 393   0.0000       5.019501       136.5876 
 394   0.0000       5.042065       137.2016 
 395   0.0000       5.055464       137.5662 
 396   0.0000       5.069981       137.9612 
 397   0.0000       5.081051       138.2624 
 398   0.0000       5.094946       138.6405 
 399   0.0000       5.126963       139.5117 
 400   0.0000       5.149666       140.1295 
 401   0.0000       5.182196       141.0147 
 402   0.0000       5.193555       141.3238 
 403   0.0000       5.230730       142.3354 
 404   0.0000       5.250540       142.8745 
 405   0.0000       5.277011       143.5948 
 406   0.0000       5.294639       144.0745 
 407   0.0000       5.300321       144.2291 
 408   0.0000       5.316616       144.6725 
 409   0.0000       5.345569       145.4603 
 410   0.0000       5.369839       146.1207 
 411   0.0000       5.388968       146.6413 
 412   0.0000       5.414857       147.3458 
 413   0.0000       5.433765       147.8603 
 414   0.0000       5.444847       148.1618 
 415   0.0000       5.460157       148.5784 
 416   0.0000       5.474277       148.9626 
 417   0.0000       5.475927       149.0075 
 418   0.0000       5.519732       150.1996 
 419   0.0000       5.538647       150.7142 
 420   0.0000       5.553842       151.1277 
 421   0.0000       5.565400       151.4422 
 422   0.0000       5.618454       152.8859 
 423   0.0000       5.620565       152.9433 
 424   0.0000       5.649929       153.7424 
 425   0.0000       5.667178       154.2118 
 426   0.0000       5.685829       154.7193 
 427   0.0000       5.721205       155.6819 
 428   0.0000       5.734761       156.0508 
 429   0.0000       5.751926       156.5179 
 430   0.0000       5.758739       156.7032 
 431   0.0000       5.823968       158.4782 
 432   0.0000       5.837058       158.8344 
 433   0.0000       5.846760       159.0984 
 434   0.0000       5.855702       159.3418 
 435   0.0000       5.878836       159.9713 
 436   0.0000       5.923483       161.1862 
 437   0.0000       5.943193       161.7225 
 438   0.0000       5.961529       162.2214 
 439   0.0000       5.964185       162.2937 
 440   0.0000       6.006906       163.4562 
 441   0.0000       6.020026       163.8132 
 442   0.0000       6.068899       165.1431 
 443   0.0000       6.085376       165.5915 
 444   0.0000       6.121259       166.5679 
 445   0.0000       6.165196       167.7635 
 446   0.0000       6.243851       169.9038 
 447   0.0000       6.303062       171.5150 
 448   0.0000       6.368216       173.2880 
 449   0.0000       6.407661       174.3613 
 450   0.0000       6.484624       176.4556 
 451   0.0000       6.543442       178.0561 
 452   0.0000       6.587419       179.2528 
 453   0.0000       6.647142       180.8779 
 454   0.0000       6.897541       187.6916 
 455   0.0000       6.916848       188.2170 
 456   0.0000       6.942755       188.9220 
 457   0.0000       7.096783       193.1133 
 458   0.0000       7.175606       195.2582 
 459   0.0000       7.261230       197.5881 
 460   0.0000       7.341454       199.7711 
 461   0.0000       7.352707       200.0773 
 462   0.0000       7.366377       200.4493 
 463   0.0000       7.488831       203.7814 
 464   0.0000       7.597503       206.7386 
 465   0.0000       7.623252       207.4392 
 466   0.0000       7.830339       213.0744 
 467   0.0000       7.976863       217.0615 
 468   0.0000      23.981558       652.5714 
 469   0.0000      24.183849       658.0760 
 470   0.0000      24.219360       659.0423 
 471   0.0000      24.455921       665.4795 
 472   0.0000      24.558245       668.2638 
 473   0.0000      24.686057       671.7418 
 474   0.0000      24.703401       672.2137 
 475   0.0000      24.832666       675.7312 
 476   0.0000      45.506228      1238.2874 
 477   0.0000      45.946677      1250.2726 

                    ********************************
                    * MULLIKEN POPULATION ANALYSIS *
                    ********************************

-----------------------
MULLIKEN ATOMIC CHARGES
-----------------------
   0 C :   -0.214428
   1 C :   -0.120696
   2 C :   -0.208844
   3 C :   -0.062637
   4 H :    0.104422
   5 H :    0.112368
   6 H :    0.114741
   7 C :   -0.182854
   8 C :    0.274795
   9 H :    0.105941
  10 H :    0.125367
  11 H :    0.087151
  12 H :    0.104153
  13 C :    0.262001
  14 O :   -0.447147
  15 H :    0.029682
  16 O :   -0.375756
  17 C :   -0.010018
  18 H :    0.091564
  19 H :    0.066142
  20 H :    0.062187
  21 H :    0.081866
Sum of atomic charges:    0.0000000

--------------------------------
MULLIKEN REDUCED ORBITAL CHARGES
--------------------------------
  0 C s       :     3.143149  s :     3.143149
      pz      :     1.014010  p :     2.968001
      px      :     1.001198
      py      :     0.952794
      dz2     :     0.009389  d :     0.097717
      dxz     :     0.014057
      dyz     :     0.029019
      dx2y2   :     0.016792
      dxy     :     0.028461
      f0      :     0.000595  f :     0.005560
      f+1     :     0.000514
      f-1     :     0.000518
      f+2     :     0.000984
      f-2     :     0.000731
      f+3     :     0.001260
      f-3     :     0.000958
  1 C s       :     3.104616  s :     3.104616
      pz      :     0.970908  p :     2.911846
      px      :     0.942574
      py      :     0.998365
      dz2     :     0.009520  d :     0.098517
      dxz     :     0.027801
      dyz     :     0.012178
      dx2y2   :     0.031487
      dxy     :     0.017532
      f0      :     0.000660  f :     0.005717
      f+1     :     0.000737
      f-1     :     0.000510
      f+2     :     0.000543
      f-2     :     0.001087
      f+3     :     0.001017
      f-3     :     0.001163
  2 C s       :     3.147940  s :     3.147940
      pz      :     0.968507  p :     2.976648
      px      :     0.928749
      py      :     1.079392
      dz2     :     0.009073  d :     0.078424
      dxz     :     0.019912
      dyz     :     0.011249
      dx2y2   :     0.018922
      dxy     :     0.019267
      f0      :     0.000544  f :     0.005832
      f+1     :     0.001126
      f-1     :     0.000502
      f+2     :     0.000601
      f-2     :     0.001147
      f+3     :     0.000983
      f-3     :     0.000929
  3 C s       :     3.077348  s :     3.077348
      pz      :     0.979053  p :     2.857827
      px      :     0.914292
      py      :     0.964482
      dz2     :     0.010197  d :     0.119631
      dxz     :     0.017943
      dyz     :     0.032532
      dx2y2   :     0.028830
      dxy     :     0.030129
      f0      :     0.000857  f :     0.007831
      f+1     :     0.000823
      f-1     :     0.000672
      f+2     :     0.001498
      f-2     :     0.001172
      f+3     :     0.001557
      f-3     :     0.001252
  4 H s       :     0.852541  s :     0.852541
      pz      :     0.018120  p :     0.040872
      px      :     0.013681
      py      :     0.009071
      dz2     :     0.000596  d :     0.002165
      dxz     :     0.000559
      dyz     :     0.000437
      dx2y2   :     0.000257
      dxy     :     0.000316
  5 H s       :     0.844522  s :     0.844522
      pz      :     0.010550  p :     0.040965
      px      :     0.015522
      py      :     0.014894
      dz2     :     0.000260  d :     0.002145
      dxz     :     0.000356
      dyz     :     0.000388
      dx2y2   :     0.000613
      dxy     :     0.000529
  6 H s       :     0.842107  s :     0.842107
      pz      :     0.015342  p :     0.040883
      px      :     0.011345
      py      :     0.014197
      dz2     :     0.000482  d :     0.002268
      dxz     :     0.000396
      dyz     :     0.000522
      dx2y2   :     0.000467
      dxy     :     0.000401
  7 C s       :     3.179767  s :     3.179767
      pz      :     1.014326  p :     2.893672
      px      :     0.975827
      py      :     0.903520
      dz2     :     0.005567  d :     0.100974
      dxz     :     0.015629
      dyz     :     0.021556
      dx2y2   :     0.031041
      dxy     :     0.027180
      f0      :     0.001231  f :     0.008442
      f+1     :     0.000693
      f-1     :     0.000940
      f+2     :     0.000984
      f-2     :     0.001058
      f+3     :     0.001731
      f-3     :     0.001805
  8 C s       :     3.063273  s :     3.063273
      pz      :     0.900908  p :     2.453195
      px      :     0.774748
      py      :     0.777539
      dz2     :     0.021338  d :     0.191734
      dxz     :     0.027128
      dyz     :     0.034418
      dx2y2   :     0.065423
      dxy     :     0.043427
      f0      :     0.001547  f :     0.017002
      f+1     :     0.002199
      f-1     :     0.002011
      f+2     :     0.002091
      f-2     :     0.002395
      f+3     :     0.003612
      f-3     :     0.003147
  9 H s       :     0.853533  s :     0.853533
      pz      :     0.008590  p :     0.038464
      px      :     0.008314
      py      :     0.021560
      dz2     :     0.000216  d :     0.002062
      dxz     :     0.000048
      dyz     :     0.000575
      dx2y2   :     0.000582
      dxy     :     0.000641
 10 H s       :     0.834778  s :     0.834778
      pz      :     0.008479  p :     0.037787
      px      :     0.007455
      py      :     0.021853
      dz2     :     0.000192  d :     0.002068
      dxz     :     0.000033
      dyz     :     0.000571
      dx2y2   :     0.000626
      dxy     :     0.000646
 11 H s       :     0.866712  s :     0.866712
      pz      :     0.018492  p :     0.043933
      px      :     0.016677
      py      :     0.008764
      dz2     :     0.000513  d :     0.002205
      dxz     :     0.000653
      dyz     :     0.000335
      dx2y2   :     0.000372
      dxy     :     0.000331
 12 H s       :     0.847913  s :     0.847913
      pz      :     0.017296  p :     0.045759
      px      :     0.016077
      py      :     0.012385
      dz2     :     0.000480  d :     0.002175
      dxz     :     0.000483
      dyz     :     0.000381
      dx2y2   :     0.000478
      dxy     :     0.000352
 13 C s       :     3.152189  s :     3.152189
      pz      :     0.771386  p :     2.364743
      px      :     0.792429
      py      :     0.800929
      dz2     :     0.010685  d :     0.203761
      dxz     :     0.015675
      dyz     :     0.069626
      dx2y2   :     0.054114
      dxy     :     0.053661
      f0      :     0.002075  f :     0.017306
      f+1     :     0.001223
      f-1     :     0.001176
      f+2     :     0.002220
      f-2     :     0.002618
      f+3     :     0.002983
      f-3     :     0.005010
 14 O s       :     3.842403  s :     3.842403
      pz      :     1.562401  p :     4.566796
      px      :     1.612712
      py      :     1.391683
      dz2     :     0.003647  d :     0.035851
      dxz     :     0.001823
      dyz     :     0.009263
      dx2y2   :     0.010513
      dxy     :     0.010605
      f0      :     0.000247  f :     0.002096
      f+1     :     0.000071
      f-1     :     0.000260
      f+2     :     0.000190
      f-2     :     0.000212
      f+3     :     0.000547
      f-3     :     0.000570
 15 H s       :     0.933457  s :     0.933457
      pz      :     0.011411  p :     0.034572
      px      :     0.009655
      py      :     0.013506
      dz2     :     0.000310  d :     0.002289
      dxz     :     0.000306
      dyz     :     0.000587
      dx2y2   :     0.000626
      dxy     :     0.000460
 16 O s       :     3.769661  s :     3.769661
      pz      :     1.648969  p :     4.561033
      px      :     1.357973
      py      :     1.554091
      dz2     :     0.005314  d :     0.042832
      dxz     :     0.007447
      dyz     :     0.007414
      dx2y2   :     0.007168
      dxy     :     0.015490
      f0      :     0.000339  f :     0.002230
      f+1     :     0.000326
      f-1     :     0.000145
      f+2     :     0.000315
      f-2     :     0.000497
      f+3     :     0.000295
      f-3     :     0.000312
 17 C s       :     3.120909  s :     3.120909
      pz      :     0.933544  p :     2.754065
      px      :     0.781189
      py      :     1.039332
      dz2     :     0.024502  d :     0.125282
      dxz     :     0.022694
      dyz     :     0.027931
      dx2y2   :     0.018558
      dxy     :     0.031598
      f0      :     0.000734  f :     0.009763
      f+1     :     0.002532
      f-1     :     0.000757
      f+2     :     0.001438
      f-2     :     0.001662
      f+3     :     0.001494
      f-3     :     0.001145
 18 H s       :     0.873633  s :     0.873633
      pz      :     0.008074  p :     0.032682
      px      :     0.008080
      py      :     0.016528
      dz2     :     0.000214  d :     0.002120
      dxz     :     0.000290
      dyz     :     0.000460
      dx2y2   :     0.000594
      dxy     :     0.000562
 19 H s       :     0.899603  s :     0.899603
      pz      :     0.012247  p :     0.032132
      px      :     0.010103
      py      :     0.009782
      dz2     :     0.000405  d :     0.002123
      dxz     :     0.000444
      dyz     :     0.000385
      dx2y2   :     0.000406
      dxy     :     0.000483
 20 H s       :     0.903254  s :     0.903254
      pz      :     0.016693  p :     0.032437
      px      :     0.006681
      py      :     0.009063
      dz2     :     0.000603  d :     0.002122
      dxz     :     0.000558
      dyz     :     0.000567
      dx2y2   :     0.000144
      dxy     :     0.000249
 21 H s       :     0.873026  s :     0.873026
      pz      :     0.014271  p :     0.042838
      px      :     0.018164
      py      :     0.010402
      dz2     :     0.000340  d :     0.002270
      dxz     :     0.000561
      dyz     :     0.000277
      dx2y2   :     0.000502
      dxy     :     0.000590


                     *******************************
                     * LOEWDIN POPULATION ANALYSIS *
                     *******************************

----------------------
LOEWDIN ATOMIC CHARGES
----------------------
   0 C :    0.042349
   1 C :    0.065456
   2 C :    0.076417
   3 C :   -0.046657
   4 H :    0.002530
   5 H :    0.005345
   6 H :    0.015940
   7 C :   -0.048701
   8 C :   -0.221814
   9 H :    0.005108
  10 H :    0.012473
  11 H :    0.006420
  12 H :    0.002180
  13 C :   -0.177500
  14 O :    0.054399
  15 H :    0.005185
  16 O :    0.224870
  17 C :   -0.043779
  18 H :    0.008475
  19 H :    0.000275
  20 H :   -0.001715
  21 H :    0.012745

-------------------------------
LOEWDIN REDUCED ORBITAL CHARGES
-------------------------------
  0 C s       :     2.750275  s :     2.750275
      pz      :     0.921767  p :     2.858071
      px      :     0.903235
      py      :     1.033068
      dz2     :     0.031385  d :     0.319994
      dxz     :     0.044949
      dyz     :     0.088762
      dx2y2   :     0.057664
      dxy     :     0.097234
      f0      :     0.003230  f :     0.029310
      f+1     :     0.001996
      f-1     :     0.003435
      f+2     :     0.004764
      f-2     :     0.003653
      f+3     :     0.006802
      f-3     :     0.005430
  1 C s       :     2.748388  s :     2.748388
      pz      :     0.884584  p :     2.832563
      px      :     0.942325
      py      :     1.005654
      dz2     :     0.032315  d :     0.323726
      dxz     :     0.091478
      dyz     :     0.030972
      dx2y2   :     0.111458
      dxy     :     0.057502
      f0      :     0.002187  f :     0.029867
      f+1     :     0.003005
      f-1     :     0.003151
      f+2     :     0.003211
      f-2     :     0.005192
      f+3     :     0.006503
      f-3     :     0.006618
  2 C s       :     2.748647  s :     2.748647
      pz      :     0.898843  p :     2.861836
      px      :     0.961258
      py      :     1.001735
      dz2     :     0.031098  d :     0.284782
      dxz     :     0.068353
      dyz     :     0.032154
      dx2y2   :     0.080841
      dxy     :     0.072336
      f0      :     0.001822  f :     0.028317
      f+1     :     0.003859
      f-1     :     0.002501
      f+2     :     0.003352
      f-2     :     0.005014
      f+3     :     0.006002
      f-3     :     0.005767
  3 C s       :     2.745123  s :     2.745123
      pz      :     0.915319  p :     2.865634
      px      :     0.917326
      py      :     1.032989
      dz2     :     0.033193  d :     0.397105
      dxz     :     0.059351
      dyz     :     0.109368
      dx2y2   :     0.086658
      dxy     :     0.108535
      f0      :     0.004012  f :     0.038796
      f+1     :     0.003478
      f-1     :     0.003587
      f+2     :     0.006896
      f-2     :     0.005370
      f+3     :     0.008547
      f-3     :     0.006905
  4 H s       :     0.815439  s :     0.815439
      pz      :     0.064035  p :     0.154348
      px      :     0.051860
      py      :     0.038453
      dz2     :     0.007727  d :     0.027683
      dxz     :     0.007029
      dyz     :     0.005937
      dx2y2   :     0.003386
      dxy     :     0.003604
  5 H s       :     0.813380  s :     0.813380
      pz      :     0.046275  p :     0.153726
      px      :     0.058923
      py      :     0.048528
      dz2     :     0.003940  d :     0.027549
      dxz     :     0.004894
      dyz     :     0.004455
      dx2y2   :     0.007522
      dxy     :     0.006739
  6 H s       :     0.803830  s :     0.803830
      pz      :     0.056784  p :     0.152070
      px      :     0.043904
      py      :     0.051383
      dz2     :     0.006183  d :     0.028160
      dxz     :     0.004910
      dyz     :     0.006793
      dx2y2   :     0.005344
      dxy     :     0.004929
  7 C s       :     2.721928  s :     2.721928
      pz      :     0.907484  p :     2.885577
      px      :     0.973704
      py      :     1.004389
      dz2     :     0.028428  d :     0.398739
      dxz     :     0.051470
      dyz     :     0.075913
      dx2y2   :     0.130483
      dxy     :     0.112446
      f0      :     0.003624  f :     0.042457
      f+1     :     0.001612
      f-1     :     0.004916
      f+2     :     0.005074
      f-2     :     0.005332
      f+3     :     0.011626
      f-3     :     0.010272
  8 C s       :     2.709695  s :     2.709695
      pz      :     0.854414  p :     2.732014
      px      :     0.918846
      py      :     0.958754
      dz2     :     0.080318  d :     0.682382
      dxz     :     0.091214
      dyz     :     0.123887
      dx2y2   :     0.187126
      dxy     :     0.199837
      f0      :     0.006537  f :     0.097722
      f+1     :     0.008161
      f-1     :     0.011326
      f+2     :     0.012767
      f-2     :     0.015026
      f+3     :     0.025511
      f-3     :     0.018393
  9 H s       :     0.819036  s :     0.819036
      pz      :     0.040155  p :     0.148892
      px      :     0.037185
      py      :     0.071553
      dz2     :     0.002823  d :     0.026964
      dxz     :     0.000708
      dyz     :     0.007622
      dx2y2   :     0.007445
      dxy     :     0.008366
 10 H s       :     0.809480  s :     0.809480
      pz      :     0.039530  p :     0.150323
      px      :     0.033457
      py      :     0.077335
      dz2     :     0.002525  d :     0.027723
      dxz     :     0.000276
      dyz     :     0.008238
      dx2y2   :     0.008215
      dxy     :     0.008470
 11 H s       :     0.810630  s :     0.810630
      pz      :     0.059315  p :     0.154781
      px      :     0.057150
      py      :     0.038316
      dz2     :     0.006932  d :     0.028168
      dxz     :     0.007826
      dyz     :     0.004463
      dx2y2   :     0.004385
      dxy     :     0.004563
 12 H s       :     0.810081  s :     0.810081
      pz      :     0.057700  p :     0.159169
      px      :     0.049754
      py      :     0.051714
      dz2     :     0.006735  d :     0.028570
      dxz     :     0.005710
      dyz     :     0.005525
      dx2y2   :     0.006057
      dxy     :     0.004542
 13 C s       :     2.772820  s :     2.772820
      pz      :     0.783056  p :     2.600884
      px      :     0.872558
      py      :     0.945270
      dz2     :     0.059693  d :     0.702927
      dxz     :     0.065268
      dyz     :     0.188034
      dx2y2   :     0.193698
      dxy     :     0.196235
      f0      :     0.011467  f :     0.100868
      f+1     :     0.006740
      f-1     :     0.007758
      f+2     :     0.013867
      f-2     :     0.012346
      f+3     :     0.019161
      f-3     :     0.029528
 14 O s       :     3.407221  s :     3.407221
      pz      :     1.447390  p :     4.464997
      px      :     1.516776
      py      :     1.500831
      dz2     :     0.007972  d :     0.067772
      dxz     :     0.002538
      dyz     :     0.014601
      dx2y2   :     0.021048
      dxy     :     0.021612
      f0      :     0.000560  f :     0.005613
      f+1     :     0.000229
      f-1     :     0.000796
      f+2     :     0.000452
      f-2     :     0.000448
      f+3     :     0.001605
      f-3     :     0.001522
 15 H s       :     0.847370  s :     0.847370
      pz      :     0.040977  p :     0.124017
      px      :     0.033074
      py      :     0.049966
      dz2     :     0.003247  d :     0.023428
      dxz     :     0.003810
      dyz     :     0.006348
      dx2y2   :     0.005217
      dxy     :     0.004805
 16 O s       :     3.235050  s :     3.235050
      pz      :     1.554171  p :     4.427460
      px      :     1.343832
      py      :     1.529458
      dz2     :     0.013492  d :     0.106474
      dxz     :     0.022509
      dyz     :     0.015873
      dx2y2   :     0.022712
      dxy     :     0.031889
      f0      :     0.000601  f :     0.006146
      f+1     :     0.000947
      f-1     :     0.000531
      f+2     :     0.000716
      f-2     :     0.001035
      f+3     :     0.001225
      f-3     :     0.001090
 17 C s       :     2.718840  s :     2.718840
      pz      :     0.950092  p :     2.801283
      px      :     0.834250
      py      :     1.016940
      dz2     :     0.076507  d :     0.457396
      dxz     :     0.101460
      dyz     :     0.095528
      dx2y2   :     0.059008
      dxy     :     0.124894
      f0      :     0.006564  f :     0.066260
      f+1     :     0.015010
      f-1     :     0.004997
      f+2     :     0.008786
      f-2     :     0.010732
      f+3     :     0.010686
      f-3     :     0.009485
 18 H s       :     0.828779  s :     0.828779
      pz      :     0.036865  p :     0.135312
      px      :     0.038055
      py      :     0.060392
      dz2     :     0.002870  d :     0.027433
      dxz     :     0.002811
      dyz     :     0.007328
      dx2y2   :     0.006707
      dxy     :     0.007716
 19 H s       :     0.836086  s :     0.836086
      pz      :     0.044493  p :     0.136658
      px      :     0.042957
      py      :     0.049208
      dz2     :     0.004803  d :     0.026981
      dxz     :     0.005714
      dyz     :     0.004989
      dx2y2   :     0.006204
      dxy     :     0.005271
 20 H s       :     0.837874  s :     0.837874
      pz      :     0.060819  p :     0.136864
      px      :     0.029235
      py      :     0.046810
      dz2     :     0.008752  d :     0.026977
      dxz     :     0.005512
      dyz     :     0.007423
      dx2y2   :     0.002589
      dxy     :     0.002700
 21 H s       :     0.803763  s :     0.803763
      pz      :     0.056265  p :     0.155494
      px      :     0.061640
      py      :     0.037589
      dz2     :     0.004851  d :     0.027999
      dxz     :     0.007122
      dyz     :     0.003028
      dx2y2   :     0.006159
      dxy     :     0.006839


                      *****************************
                      * MAYER POPULATION ANALYSIS *
                      *****************************

  NA   - Mulliken gross atomic population
  ZA   - Total nuclear charge
  QA   - Mulliken gross atomic charge
  VA   - Mayer's total valence
  BVA  - Mayer's bonded valence
  FA   - Mayer's free valence

  ATOM       NA         ZA         QA         VA         BVA        FA
  0 C      6.2144     6.0000    -0.2144     3.9102     3.9102    -0.0000
  1 C      6.1207     6.0000    -0.1207     3.8958     3.8958     0.0000
  2 C      6.2088     6.0000    -0.2088     3.9116     3.9116     0.0000
  3 C      6.0626     6.0000    -0.0626     3.5792     3.5792     0.0000
  4 H      0.8956     1.0000     0.1044     1.0145     1.0145    -0.0000
  5 H      0.8876     1.0000     0.1124     0.9998     0.9998     0.0000
  6 H      0.8853     1.0000     0.1147     1.0094     1.0094     0.0000
  7 C      6.1829     6.0000    -0.1829     3.8630     3.8630    -0.0000
  8 C      5.7252     6.0000     0.2748     3.7830     3.7830    -0.0000
  9 H      0.8941     1.0000     0.1059     1.0037     1.0037     0.0000
 10 H      0.8746     1.0000     0.1254     1.0201     1.0201    -0.0000
 11 H      0.9128     1.0000     0.0872     1.0145     1.0145    -0.0000
 12 H      0.8958     1.0000     0.1042     1.0084     1.0084     0.0000
 13 C      5.7380     6.0000     0.2620     4.0897     4.0897     0.0000
 14 O      8.4471     8.0000    -0.4471     2.0022     2.0022     0.0000
 15 H      0.9703     1.0000     0.0297     1.0000     1.0000     0.0000
 16 O      8.3758     8.0000    -0.3758     1.9215     1.9215     0.0000
 17 C      6.0100     6.0000    -0.0100     3.9020     3.9020     0.0000
 18 H      0.9084     1.0000     0.0916     0.9999     0.9999     0.0000
 19 H      0.9339     1.0000     0.0661     0.9879     0.9879     0.0000
 20 H      0.9378     1.0000     0.0622     0.9904     0.9904    -0.0000
 21 H      0.9181     1.0000     0.0819     1.0192     1.0192    -0.0000

  Mayer bond orders larger than 0.100000
B(  0-C ,  1-C ) :   0.2687 B(  0-C ,  3-C ) :   1.5063 B(  0-C ,  4-H ) :   1.0078 
B(  0-C ,  5-H ) :   1.0157 B(  1-C ,  7-C ) :   1.5673 B(  1-C ,  9-H ) :   1.0025 
B(  1-C , 11-H ) :   1.0152 B(  2-C ,  3-C ) :   0.2608 B(  2-C ,  8-C ) :   1.5208 
B(  2-C , 10-H ) :   0.9911 B(  2-C , 12-H ) :   1.0291 B(  3-C ,  6-H ) :   0.9890 
B(  3-C , 13-C ) :   0.9651 B(  3-C , 15-H ) :  -0.1103 B(  7-C ,  8-C ) :   1.2375 
B(  7-C , 21-H ) :   1.0135 B(  8-C , 16-O ) :   1.0395 B( 13-C , 14-O ) :   1.9694 
B( 13-C , 15-H ) :   1.0669 B( 16-O , 17-C ) :   0.9035 B( 17-C , 18-H ) :   1.0034 
B( 17-C , 19-H ) :   0.9997 B( 17-C , 20-H ) :   0.9971 

-------
TIMINGS
-------

Total SCF time: 0 days 0 hours 0 min 58 sec 

Total time                  ....      58.798 sec
Sum of individual times     ....      58.205 sec  ( 99.0%)

Fock matrix formation       ....      57.008 sec  ( 97.0%)
Diagonalization             ....       0.356 sec  (  0.6%)
Density matrix formation    ....       0.021 sec  (  0.0%)
Population analysis         ....       0.083 sec  (  0.1%)
Initial guess               ....       0.147 sec  (  0.2%)
Orbital Transformation      ....       0.000 sec  (  0.0%)
Orbital Orthonormalization  ....       0.000 sec  (  0.0%)
DIIS solution               ....       0.323 sec  (  0.5%)
SOSCF solution              ....       0.190 sec  (  0.3%)

Maximum memory used throughout the entire SCF-calculation: 246.5 MB


           ************************************************************
           *        Program running with 16 parallel MPI-processes    *
           *              working on a common directory               *
           ************************************************************


--------------------------------------------------------------------------------
                             ORCA-MATRIX DRIVEN CI
--------------------------------------------------------------------------------


Wavefunction type
-----------------
Correlation treatment                      ...      CCSD     
Single excitations                         ... ON
Orbital optimization                       ... OFF
Calculation of Z vector                    ... OFF
Calculation of Brueckner orbitals          ... OFF
Perturbative triple excitations            ... ON
Calculation of F12 correction              ... OFF
Frozen core treatment                      ... chemical core (20 el)
Reference Wavefunction                     ... RHF
  Internal Orbitals:    10 ...   37 ( 28 MO's/ 56 electrons)
  Virtual  Orbitals:    38 ...  477 (440 MO's              )
Number of AO's                             ...    478
Number of electrons                        ...     76
Number of correlated electrons             ...     56

Algorithmic settings
--------------------
Integral transformation                    ... All integrals via the RI transformation
K(C) Formation                             ... RI-DLPNO
   PNO-Integral Storage                    ... ON DISK
   PNO occupation number cut-off           ... 3.330e-07
   Singles PNO occupation number cut-off   ... 9.990e-09
   PNO Mulliken prescreening cut-off       ... 1.000e-03
   Domain cut-off (Mulliken population)    ... 1.000e-03
   PNO Normalization                       ...    1
Maximum number of iterations               ...        50
Convergence tolerance (max. residuum)      ... 2.500e-05
Level shift for amplitude update           ... 2.000e-01
Maximum number of DIIS vectors             ...         7
DIIS turned on at iteration                ...         0
Damping before turning on DIIS             ...     0.500
Damping after turning on DIIS              ...     0.000
[...]
Pair density normalization                  .... MP2 norm
Spin component scaling                      .... not used

   .... Finished loop over pairs
Making pair pair interaction lists          ... done

                       ===========================
                        273 OF  406 PAIRS ARE KEPT CCSD PAIRS
                         90 OF  406 PAIRS ARE KEPT MP2 PAIRS FOR (T)
                         43 OF  406 PAIRS ARE SKIPPED
                       ===========================

Total time spent in the initial guess                 ...     2.037 sec
SL-MP2 correlation energy (all non-screened pairs)    ...      -1.739902191166 Eh

Initial PNO correlation energy                        ...      -1.730911884845 Eh
sum of pair energies prescreened and skipped MP2 pairs...      -0.000192469185 Eh
sum of pair energies of crude MP2 skipped pairs only  ...      -0.000192469185 Eh
sum of MP2 pair energies for pairs that were not kept ...      -0.003959513853 Eh
sum of PNO error estimates for the kept pairs         ...      -0.005030792468 Eh
                                                          --------------------
sum of all corrections                                         -0.008990306321
Initial total correlation energy                               -1.739902191166
Thresholds for map construction and integral transformation for fine MP2 and CCSD(T) calculation:
   TCutMKN   ...     1.0e-03
   TCutDO    ...     1.0e-02
   TCutPairs ...     1.0e-04
   TCutCMO   ...     1.0e-03
   TCutCPAO  ...     1.0e-03

Thresholds for map construction and integral transformation for strong Triples:
   TCutMKN   ...     1.0e-02
   TCutDO    ...     2.0e-02
   TCutCMO   ...     1.0e-03
   TCutCPAO  ...     1.0e-03

Thresholds for map construction and integral transformation for weak Triples:
   TCutMKN   ...     1.0e-01
   TCutDO    ...     4.0e-02
   TCutCMO   ...     1.0e-03
   TCutCPAO  ...     1.0e-03

--------------------------------
LOCAL RI TRANSFORMATION (IAVPAO)
--------------------------------

Orbital window:      10 to 37
Number of PAOs:     478
Basis functions:    478 (182 shells)
Aux. functions:    1120 (340 shells)
Use SHARK:           on

Processing maps (0.0 sec)
Average map sizes:
   Aux shells -> MOs              27.8
   Aux shells -> PAOs            478.0
   MOs        -> AO shells       171.2
   PAOs       -> AO shells       181.5

Calculating integrals (0.5 sec, 113.722 MB)
Sorting integrals (0.1 sec, 113.709 MB)
Total time for the integral transformation: 0.6 sec
--------------------------------
INITIAL GUESS AND PNO GENERATION
--------------------------------

PNO truncation parameters                   .... 
    PAOOverlapThresh   =        1.000e-08

    TCutPairs          =        1.000e-04
    TCutPNO            =        3.330e-07
    TCutPNOSingles     =        9.990e-09
    TCutMP2Pairs       =        1.000e-05
    TCutMKN            =        1.000e-03
    TCutDO             =        1.000e-02

Pair selection                          .... not used
Type of local MP2 treatment                 .... semi-local MP2
Strategy for PNO selection                  .... occupation number selection
Pair density normalization                  .... MP2 norm
Spin component scaling                      .... not used

   .... Finished loop over pairs

 PNO Occupation Number Statistics: 
  | Av. % of trace(Dij) retained        ...  97.764950413220
  | sigma^2 in % of trace(Dij) retained ...   7.34e+00
  | Av. % of trace(Di) retained         ...  99.999012219778
  | sigma^2 in % of trace(Di) retained  ...   2.03e-07
 Distributions of % trace(Dij) recovered:
  |       >= 99.9  ...    79 ( 21.8 % of all pairs)
  |   [80.0, 90.0) ...     6 (  1.7 % of all pairs)
  |   [90.0, 99.0) ...   181 ( 49.9 % of all pairs)
  |   [99.0, 99.9) ...    97 ( 26.7 % of all pairs)
 Distributions of % trace(Di) recovered :
  |       >= 99.9  ...    28 (100.0 % of all I-pairs )

Making pair pair interaction lists          ... done

                       ===========================
                        273 OF  363 PAIRS ARE KEPT
                       ===========================

Total time spent in the initial guess                 ...     3.643 sec
SL-MP2 correlation energy (all non-screened pairs)    ...      -1.741022596701 Eh

Initial PNO correlation energy                        ...      -1.732136242235 Eh
sum of pair energies estimated for screened out pairs ...      -0.000192469185 Eh
sum of MP2 pair energies for pairs that were not kept ...      -0.003773702312 Eh
sum of PNO error estimates for the kept pairs         ...      -0.005112652154 Eh
                                                          --------------------
sum of all corrections                                         -0.009078823651
Initial total correlation energy                               -1.741215065886
Thresholds for map construction and integral transformation for fine MP2 and CCSD(T) calculation:
   TCutMKN   ...     1.0e-03
   TCutDO    ...     1.0e-02
   TCutPairs ...     1.0e-04
   TCutCMO   ...     1.0e-03
   TCutCPAO  ...     1.0e-03

Time for aux screen maps:            0.003
Time for maps after fine MP2:            0.013
-----------------------------
LOCAL RI TRANSFORMATION (IJV)
-----------------------------

Orbital window:      10 to 37
Basis functions:    478 (182 shells)
Aux. functions:    1120 (340 shells)
Use SHARK:           on

Processing maps (0.0 sec)
Average map sizes:
   Aux shells -> MOs(i)           27.3
   Aux shells -> MOs(j)           28.0
   MOs        -> AO shells       171.2

Calculating integrals (0.4 sec, 6.548 MB)
Sorting integrals (0.0 sec, 6.535 MB)
Total time for the integral transformation: 0.4 sec
--------------------------------
LOCAL RI TRANSFORMATION (VABPAO)
--------------------------------

Number of PAOs:     478
Basis functions:    478 (182 shells)
Aux. functions:    1120 (340 shells)
Use SHARK:           on

Processing maps (0.0 sec)
Average map sizes:
   Aux shells -> PAOs            478.0
   PAOs       -> AO shells       181.5

Calculating integrals (1.5 sec, 1952.391 MB)
Finished


-------------------------------------
Pair Pair Term precalculation with     
RI-(ij|mn) and (im|jn) transformation  
ON THE FLY                             
-------------------------------------

   IBatch   1 (of   2)              ... done (   34.776 sec)
   IBatch   2 (of   2)              ... done (    7.376 sec)
Total EXT                           ...          42.152 sec

---------------------
RI-PNO TRANSFORMATION
---------------------

Total Number of PNOs                   ...  9333
Average number of PNOs per pair        ...    34
Maximal number of PNOs per pair        ...    76
   #pairs with  1 -  5 PNOs   :    0
   #pairs with  6 - 10 PNOs   :    3
   #pairs with 11 - 15 PNOs   :   23
   #pairs with 16 - 20 PNOs   :   39
   #pairs with 21 - 25 PNOs   :   29
   #pairs with 26 - 30 PNOs   :   22
   #pairs with 31 - 35 PNOs   :   35
   #pairs with 36 - 40 PNOs   :   30
   #pairs with 41 - 45 PNOs   :   34
   #pairs with 46 - 50 PNOs   :   14
   #pairs with 51 - 55 PNOs   :   21
   #pairs with 56 - 60 PNOs   :    9
   #pairs with 61 - 65 PNOs   :    5
   #pairs with 66 - 70 PNOs   :    3
   #pairs with 71 - 75 PNOs   :    5
   #pairs with 76 - 80 PNOs   :    1

Generation of (ij|ab)[P] integrals            ... on
Generation of (ia|bc)[P],(ja|bc)[P] integrals ... on
Storage of 3 and 4 external integrals         ... on
Generation of ALL (ka|bc)[P] integrals        ... on
Keep RI integrals in memory                   ... off

Ibatch:  1 (of  1)
Starting 2-4 index PNO integral generation ... done

Timings:
Total PNO integral transformation time     ...         21.790 sec
Size of the 3-external file                ...       137 MB
Size of the 4-external file                ...       896 MB
Size of the IKJL file                      ...         0 MB
Size of the all 3-external file            ...      1927 MB
Size of the 1-external file                ...         5 MB

Making pair/pair overlap matrices          ... done (    2.025 sec)
Size of the pair overlap file              ... 511 MB
Redoing the guess amplitudes               ... done (    0.003 sec)

-------------------------
FINAL STARTUP INFORMATION
-------------------------

E(0)                                       ...   -459.673350046
E(SL-MP2)                                  ...     -1.741022597
E(SL-MP2) including corrections            ...     -1.741215066
Initial E(tot)                             ...   -461.414565111
<T|T>                                      ...      0.499839377
Number of pairs included                   ... 273
Total number of pairs                      ... 406

------------------------------------------------
                  RHF COUPLED CLUSTER ITERATIONS
------------------------------------------------

Number of PNO amplitudes to be optimized   ...       380933
Number of non-PNO amplitudes               ...     52852800
Untruncated number of regular amplitudes   ...     78601600

Iter       E(tot)           E(Corr)          Delta-E          Residual     Time
  0   -461.414645387     -1.732216518      0.008806079      0.020444624    6.02
                           *** Turning on DIIS ***
  1   -461.473338751     -1.790909882     -0.058693364      0.013869261    7.99
  2   -461.519692672     -1.837263802     -0.046353921      0.006712152    5.90
  3   -461.529071381     -1.846642512     -0.009378710      0.004282995    5.98
  4   -461.532169065     -1.849740196     -0.003097684      0.001941452    5.99
  5   -461.533283263     -1.850854394     -0.001114198      0.000769415    6.09
  6   -461.533562547     -1.851133678     -0.000279283      0.000322882    5.98
  7   -461.533593273     -1.851164404     -0.000030726      0.000162024    5.96
  8   -461.533608348     -1.851179479     -0.000015075      0.000083252    5.92
  9   -461.533596875     -1.851168006      0.000011473      0.000045144    5.93
 10   -461.533601509     -1.851172640     -0.000004633      0.000021873    6.06
               --- The Coupled-Cluster iterations have converged ---

----------------------
COUPLED CLUSTER ENERGY
----------------------

E(0)                                       ...   -459.673350046
E(CORR)(strong-pairs)                      ...     -1.851172640
E(CORR)(weak-pairs)                        ...     -0.009078824
E(CORR)(corrected)                         ...     -1.860251463
E(TOT)                                     ...   -461.533601509
Singles Norm <S|S>**1/2                    ...      0.089050292  
T1 diagnostic                              ...      0.011899846  

------------------
LARGEST AMPLITUDES
------------------
  30-> 38  30-> 38       0.056594
  29-> 38  29-> 38       0.055801
  33-> 38  33-> 38       0.048668
  20-> 38  20-> 38       0.048005
  15-> 38  15-> 38       0.044779
  30-> 38  29-> 38       0.043804
  32-> 39  32-> 39       0.043554
  22-> 38  22-> 38       0.042395
  22-> 39  22-> 39       0.033777
  31-> 42  31-> 42       0.033214
  34-> 41  34-> 41       0.032955
  20-> 38  19-> 38       0.032823
  35-> 38  35-> 38       0.031704
  36-> 38  36-> 38       0.031633
  34-> 38  34-> 38       0.030902
  19-> 38  19-> 38       0.030781


-------------------------------------------
DLPNO BASED TRIPLES CORRECTION
-------------------------------------------

Singles multiplier          ...  1.000000
TCutTNO                     ... 1.000e-09
TCutMP2Pairs                ... 1.000e-05
TCutDOStrong                ... 2.000e-02
TCutMKNStrong               ... 1.000e-02
TCutDOWeak                  ... 4.000e-02
TCutMKNWeak                 ... 1.000e-01

Fragment selection                          .... not used
Number of Triples that are to be computed   ...      2405

 . . . . . . . . .
10% done  
20% done  
30% done  
40% done  
50% done  
60% done  
70% done  
80% done  
90% done               (     88.597 sec)
Triples timings:
Total time for T0               ...    96.145 sec
Total time for Iterative (T)    ...     0.000 sec
Total time of overall (T)       ...   108.179 sec

Triples List generation         ...     0.000 sec
TNO generation                  ...     7.538 sec
Pair density generation         ...     0.005 sec
Look up tables                  ...     0.000 sec
Generating 3-index integrals    ...    60.225 sec
  Make 4-ind.int. from 3-ind.int...     6.969 sec
  Projecting amplitudes (D + S) ...    11.193 sec
  Downprojecting integrals      ...     0.001 sec
  Energy contr. (sum over a,b,c)...     3.031 sec
Fitting ET(->0)                 ...     0.000 sec

Everything after 3-index        ...    28.372 sec

Timing details:
 TNO integrals                  ...    66.619 sec
   Reading 3-index integrals    ...     0.368 sec
   Sorting integrals            ...     7.182 sec
       Sorting integrals 1      ...     0.001 sec
       Sorting integrals 2      ...     5.421 sec
       Sorting integrals 3      ...     0.266 sec
       Sorting integrals 4      ...     0.018 sec
       Sorting integrals 5      ...     0.070 sec
       Sorting integrals 6      ...     1.407 sec
   Calculating local VM**-1/2   ...     0.288 sec
   Orthogonal. integrals        ...     0.618 sec
   Multipl. 3-index integrals   ...    58.162 sec
   All concerning IRIab (w/TNO) ...     4.361 sec

 Calculate W0/W1                ...     7.169 sec
 W 3-ext contribution           ...     4.351 sec
 W 3-int contribution           ...     1.286 sec
 Sorting W                      ...     1.395 sec

 V exchange contribution        ...     1.373 sec

 Timings for Triples without generation
     of 3-index integrals       ...    28.370 sec
       0 weak pairs             ...    22.091 sec
       1 weak pair              ...     6.279 sec
       2 weak pairs             ...     0.000 sec
       3 weak pairs             ...     0.000 sec
  Extra time for extrapolation  ...     0.000 sec

Number of Triples   (0, 1, 2, 3 weak pairs; overall):   1621     784       0       0  (  2405)
Number of Atoms     (0, 1, 2, 3 weak pairs; overall):   14.9    12.8     0.0     0.0  (    22)
Number of PAOs      (0, 1, 2, 3 weak pairs; overall):  345.4   310.0     0.0     0.0  (   478)
Number of AuxFcns   (0, 1, 2, 3 weak pairs; overall):  438.4   347.4     0.0     0.0  (  1120)
Number of TNOs      (0, 1, 2, 3 weak pairs         ):   91.8    67.1     0.0     0.0
Aver. Number of NTNO, Atoms, PAOs, AuxFcns / Triples:   2405    83.8    14.2   333.9   408.8

Triples Correction (T)                     ...     -0.084610341
Final correlation energy                   ...     -1.944861804
E(CCSD)                                    ...   -461.533601509
E(CCSD(T))                                 ...   -461.618211850



--------------------------------------------------------------------------------
                                    TIMINGS
--------------------------------------------------------------------------------


Total execution time                   ...      268.039 sec

Localization of occupied MO's          ...        0.478 sec (  0.2%)
Fock Matrix Formation                  ...        7.650 sec (  2.9%)
Global overlap, Fock, MKN matrices     ...        0.375 sec (  0.1%)
Differential overlap integrals         ...        0.572 sec (  0.2%)
Organizing maps                        ...        0.039 sec (  0.0%)
RI 3-index integral generations        ...        3.125 sec (  1.2%)
RI-PNO integral transformation         ...       73.593 sec ( 27.5%)
Initial Guess                          ...        5.738 sec (  2.1%)
DIIS Solver                            ...        0.224 sec (  0.1%)
State Vector Update                    ...        0.016 sec (  0.0%)
Sigma-vector construction              ...       67.576 sec ( 25.2%)
  <D|H|D>(0-ext)                       ...        1.758 sec (  2.6% of sigma)
  <D|H|D>(2-ext Fock)                  ...        0.009 sec (  0.0% of sigma)
  <D|H|D>(2-ext)                       ...        8.839 sec ( 13.1% of sigma)
  <D|H|D>(4-ext)                       ...        5.838 sec (  8.6% of sigma)
  <D|H|D>(4-ext-corr)                  ...       26.285 sec ( 38.9% of sigma)
  CCSD doubles correction              ...        0.089 sec (  0.1% of sigma)
  <S|H|S>                              ...        0.276 sec (  0.4% of sigma)
  <S|H|D>(1-ext)                       ...        0.238 sec (  0.4% of sigma)
  <D|H|S>(1-ext)                       ...        0.005 sec (  0.0% of sigma)
  <S|H|D>(3-ext)                       ...        0.098 sec (  0.1% of sigma)
  Fock-dressing                        ...        5.990 sec (  8.9% of sigma)
  Singles amplitudes                   ...        0.645 sec (  1.0% of sigma)
  (ik|jl)-dressing                     ...        1.380 sec (  2.0% of sigma)
  (ij|ab),(ia|jb)-dressing             ...        1.495 sec (  2.2% of sigma)
  Pair energies                        ...        0.066 sec (  0.1% of sigma)
Total Time for computing (T)           ...      108.184 sec ( 40.4% of ALL)


Maximum memory used throughout the entire MDCI-calculation: 3961.2 MB

-------------------------   --------------------
FINAL SINGLE POINT ENERGY      -461.618211849584
-------------------------   --------------------


                            ***************************************
                            *     ORCA property calculations      *
                            ***************************************


  WARNING: The energy has been calculated at the MDCI level but the densities
           used in the property calculations are still SCF densities
           MDCI response densities have not been calculated 
           use %mdci Density linearized end
           or  %mdci Density unrelaxed end
           or  %mdci Density orbopt end

                                    ---------------------
                                    Active property flags
                                    ---------------------
   (+) Dipole Moment


------------------------------------------------------------------------------
                       ORCA ELECTRIC PROPERTIES CALCULATION
------------------------------------------------------------------------------

Dipole Moment Calculation                       ... on
Quadrupole Moment Calculation                   ... off
Polarizability Calculation                      ... off
GBWName                                         ... /tmp/43001/DATS_13_exo_iii_DLPNO.gbw
Electron density                                ... /tmp/43001/DATS_13_exo_iii_DLPNO.scfp
The origin for moment calculation is the CENTER OF MASS  = (-0.067821, -0.082120 -0.017214)

-------------
DIPOLE MOMENT
-------------
                                X             Y             Z
Electronic contribution:     -3.85360      -4.55543      -1.06273
Nuclear contribution   :      5.15438       6.24111       1.30831
                        -----------------------------------------
Total Dipole Moment    :      1.30078       1.68568       0.24558
                        -----------------------------------------
Magnitude (a.u.)       :      2.14333
Magnitude (Debye)      :      5.44791



--------------------
Rotational spectrum 
--------------------
 
Rotational constants in cm-1:     0.067448     0.027345     0.022357 
Rotational constants in MHz :  2022.051599   819.775372   670.245820 

 Dipole components along the rotational axes: 
x,y,z [a.u.] :    -1.334075     1.656885     0.262371 
x,y,z [Debye]:    -3.390950     4.211466     0.666895 

 

Timings for individual modules:

Sum of individual times         ...      329.103 sec (=   5.485 min)
GTO integral calculation        ...        0.688 sec (=   0.011 min)   0.2 %
SCF iterations                  ...       59.182 sec (=   0.986 min)  18.0 %
MDCI module                     ...      269.233 sec (=   4.487 min)  81.8 %
                             ****ORCA TERMINATED NORMALLY****
TOTAL RUN TIME: 0 days 0 hours 5 minutes 29 seconds 634 msec
