Job Start Time: Fri Jun 24 13:05:38 MDT 2022
SLURM Job ID: 43003
SLURM Job Name: DATS_14_endo_i_DLPNO
SLURM Job Nodes: node09
SLURM Memory / CPU: 8000

                                 *****************
                                 * O   R   C   A *
                                 *****************

                                            #,                                       
                                            ###                                      
                                            ####                                     
                                            #####                                    
                                            ######                                   
                                           ########,                                 
                                     ,,################,,,,,                         
                               ,,#################################,,                 
                          ,,##########################################,,             
                       ,#########################################, ''#####,          
                    ,#############################################,,   '####,        
                  ,##################################################,,,,####,       
                ,###########''''           ''''###############################       
              ,#####''   ,,,,##########,,,,          '''####'''          '####       
            ,##' ,,,,###########################,,,                        '##       
           ' ,,###''''                  '''############,,,                           
         ,,##''                                '''############,,,,        ,,,,,,###''
      ,#''                                            '''#######################'''  
     '                                                          ''''####''''         
             ,#######,   #######,   ,#######,      ##                                
            ,#'     '#,  ##    ##  ,#'     '#,    #''#        ######   ,####,        
            ##       ##  ##   ,#'  ##            #'  '#       #        #'  '#        
            ##       ##  #######   ##           ,######,      #####,   #    #        
            '#,     ,#'  ##    ##  '#,     ,#' ,#      #,         ##   #,  ,#        
             '#######'   ##     ##  '#######'  #'      '#     #####' # '####'        



                  #######################################################
                  #                        -***-                        #
                  #          Department of theory and spectroscopy      #
                  #    Directorship and core code : Frank Neese         #
                  #        Max Planck Institute fuer Kohlenforschung    #
                  #                Kaiser Wilhelm Platz 1               #
                  #                 D-45470 Muelheim/Ruhr               #
                  #                      Germany                        #
                  #                                                     #
                  #                  All rights reserved                #
                  #                        -***-                        #
                  #######################################################


                         Program Version 5.0.3 -  RELEASE  -


 With contributions from (in alphabetic order):
   Daniel Aravena         : Magnetic Suceptibility
   Michael Atanasov       : Ab Initio Ligand Field Theory (pilot matlab implementation)
   Alexander A. Auer      : GIAO ZORA, VPT2 properties, NMR spectrum
   Ute Becker             : Parallelization
   Giovanni Bistoni       : ED, misc. LED, open-shell LED, HFLD
   Martin Brehm           : Molecular dynamics
   Dmytro Bykov           : SCF Hessian
   Vijay G. Chilkuri      : MRCI spin determinant printing, contributions to CSF-ICE
   Dipayan Datta          : RHF DLPNO-CCSD density
   Achintya Kumar Dutta   : EOM-CC, STEOM-CC
   Dmitry Ganyushin       : Spin-Orbit,Spin-Spin,Magnetic field MRCI
   Miquel Garcia          : C-PCM and meta-GGA Hessian, CC/C-PCM, Gaussian charge scheme
   Yang Guo               : DLPNO-NEVPT2, F12-NEVPT2, CIM, IAO-localization
   Andreas Hansen         : Spin unrestricted coupled pair/coupled cluster methods
   Benjamin Helmich-Paris : MC-RPA, TRAH-SCF, COSX integrals
   Lee Huntington         : MR-EOM, pCC
   Robert Izsak           : Overlap fitted RIJCOSX, COSX-SCS-MP3, EOM
   Marcus Kettner         : VPT2
   Christian Kollmar      : KDIIS, OOCD, Brueckner-CCSD(T), CCSD density, CASPT2, CASPT2-K
   Simone Kossmann        : Meta GGA functionals, TD-DFT gradient, OOMP2, MP2 Hessian
   Martin Krupicka        : Initial AUTO-CI
   Lucas Lang             : DCDCAS
   Marvin Lechner         : AUTO-CI (C++ implementation), FIC-MRCC
   Dagmar Lenk            : GEPOL surface, SMD
   Dimitrios Liakos       : Extrapolation schemes; Compound Job, initial MDCI parallelization
   Dimitrios Manganas     : Further ROCIS development; embedding schemes
   Dimitrios Pantazis     : SARC Basis sets
   Anastasios Papadopoulos: AUTO-CI, single reference methods and gradients
   Taras Petrenko         : DFT Hessian,TD-DFT gradient, ASA, ECA, R-Raman, ABS, FL, XAS/XES, NRVS
   Peter Pinski           : DLPNO-MP2, DLPNO-MP2 Gradient
   Christoph Reimann      : Effective Core Potentials
   Marius Retegan         : Local ZFS, SOC
   Christoph Riplinger    : Optimizer, TS searches, QM/MM, DLPNO-CCSD(T), (RO)-DLPNO pert. Triples
   Tobias Risthaus        : Range-separated hybrids, TD-DFT gradient, RPA, STAB
   Michael Roemelt        : Original ROCIS implementation
   Masaaki Saitow         : Open-shell DLPNO-CCSD energy and density
   Barbara Sandhoefer     : DKH picture change effects
   Avijit Sen             : IP-ROCIS
   Kantharuban Sivalingam : CASSCF convergence, NEVPT2, FIC-MRCI
   Bernardo de Souza      : ESD, SOC TD-DFT
   Georgi Stoychev        : AutoAux, RI-MP2 NMR, DLPNO-MP2 response
   Willem Van den Heuvel  : Paramagnetic NMR
   Boris Wezisla          : Elementary symmetry handling
   Frank Wennmohs         : Technical directorship


 We gratefully acknowledge several colleagues who have allowed us to
 interface, adapt or use parts of their codes:
   Stefan Grimme, W. Hujo, H. Kruse, P. Pracht,  : VdW corrections, initial TS optimization,
                  C. Bannwarth, S. Ehlert          DFT functionals, gCP, sTDA/sTD-DF
   Ed Valeev, F. Pavosevic, A. Kumar             : LibInt (2-el integral package), F12 methods
   Garnet Chan, S. Sharma, J. Yang, R. Olivares  : DMRG
   Ulf Ekstrom                                   : XCFun DFT Library
   Mihaly Kallay                                 : mrcc  (arbitrary order and MRCC methods)
   Jiri Pittner, Ondrej Demel                    : Mk-CCSD
   Frank Weinhold                                : gennbo (NPA and NBO analysis)
   Christopher J. Cramer and Donald G. Truhlar   : smd solvation model
   Lars Goerigk                                  : TD-DFT with DH, B97 family of functionals
   V. Asgeirsson, H. Jonsson                     : NEB implementation
   FAccTs GmbH                                   : IRC, NEB, NEB-TS, DLPNO-Multilevel, CI-OPT
                                                   MM, QMMM, 2- and 3-layer-ONIOM, Crystal-QMMM,
                                                   LR-CPCM, SF, NACMEs, symmetry and pop. for TD-DFT,
                                                   nearIR, NL-DFT gradient (VV10), updates on ESD,
                                                   ML-optimized integration grids
   S Lehtola, MJT Oliveira, MAL Marques          : LibXC Library
   Liviu Ungur et al                             : ANISO software


 Your calculation uses the libint2 library for the computation of 2-el integrals
 For citations please refer to: http://libint.valeyev.net

 Your ORCA version has been built with support for libXC version: 5.1.0
 For citations please refer to: https://tddft.org/programs/libxc/

 This ORCA versions uses:
   CBLAS   interface :  Fast vector & matrix operations
   LAPACKE interface :  Fast linear algebra routines
   SCALAPACK package :  Parallel linear algebra routines
   Shared memory     :  Shared parallel matrices
   BLAS/LAPACK       :  OpenBLAS 0.3.15  USE64BITINT DYNAMIC_ARCH NO_AFFINITY Zen SINGLE_THREADED
        Core in use  :  Zen
   Copyright (c) 2011-2014, The OpenBLAS Project


================================================================================

----- Orbital basis set information -----
Your calculation utilizes the basis: def2-TZVPP
   F. Weigend and R. Ahlrichs, Phys. Chem. Chem. Phys. 7, 3297 (2005).

----- AuxC basis set information -----
Your calculation utilizes the auxiliary basis: def2-TZVPP/C
  H-La, Hf-Rn : A. Hellweg, C. Hattig, S. Hofener and W. Klopper, Theor. Chem. Acc. 117, 587 (2007).
        Ce-Lu : J. Chmela and M. E. Harding, Mol. Phys. (2018).

================================================================================
                                        WARNINGS
                       Please study these warnings very carefully!
================================================================================


WARNING: Post HF methods need fully converged wavefunctions
  ===> : Setting SCFConvForced true
         You can overwrite this default with %scf ConvForced false 


WARNING: MDCI localization with Augmented Hessian Foster-Boys
  ===> : Switching off randomization!

INFO   : the flag for use of the SHARK integral package has been found!

================================================================================
                                       INPUT FILE
================================================================================
NAME = /tmp/43003/DATS_14_endo_i_DLPNO.inp
|  1> # DATS_14_endo_i_DLPNO
|  2> %maxcore 4000
|  3> %pal nprocs 16 end
|  4> ! pal16 DLPNO-CCSD(T) def2-tzvpp def2-tzvpp/C
|  5> 
|  6> * xyz 0 1
|  7>  C  -1.46441500  -0.56806900  -1.32635300
|  8>  C   0.09333400  -1.72764100  -0.63331400
|  9>  C  -0.66180200  -0.69789000   1.96112900
| 10>  C  -2.10543500   0.14940600  -0.32653700
| 11>  H  -0.79351800  -0.00612700  -1.97024800
| 12>  H  -1.97319100  -1.40924700  -1.78957100
| 13>  H  -3.02228300  -0.19297700   0.14160800
| 14>  C   0.87260800  -0.81866300   0.06330300
| 15>  C   0.50310100  -0.35358700   1.37092100
| 16>  H   0.48015400  -2.07893800  -1.58448900
| 17>  H  -0.94845200  -0.25509600   2.90937700
| 18>  H   1.11468300   0.41254700   1.83475200
| 19>  H  -0.51081800  -2.43205700  -0.07672900
| 20>  H  -1.30901700  -1.47610000   1.57810700
| 21>  O   1.91671900  -0.30716500  -0.61036300
| 22>  C   2.50860000   0.90066300  -0.15280400
| 23>  H   3.06613000   0.73687600   0.77628300
| 24>  H   3.20547200   1.19806300  -0.93609900
| 25>  H   1.74024000   1.66694600  -0.01562200
| 26>  C  -1.52803200   1.40750200   0.06486900
| 27>  O  -0.44963100   1.81658900  -0.36430700
| 28>  H  -2.09386800   2.01039100   0.80269200
| 29> **                         ****END OF INPUT****
================================================================================

                       ****************************
                       * Single Point Calculation *
                       ****************************

---------------------------------
CARTESIAN COORDINATES (ANGSTROEM)
---------------------------------
  C     -1.464415   -0.568069   -1.326353
  C      0.093334   -1.727641   -0.633314
  C     -0.661802   -0.697890    1.961129
  C     -2.105435    0.149406   -0.326537
  H     -0.793518   -0.006127   -1.970248
  H     -1.973191   -1.409247   -1.789571
  H     -3.022283   -0.192977    0.141608
  C      0.872608   -0.818663    0.063303
  C      0.503101   -0.353587    1.370921
  H      0.480154   -2.078938   -1.584489
  H     -0.948452   -0.255096    2.909377
  H      1.114683    0.412547    1.834752
  H     -0.510818   -2.432057   -0.076729
  H     -1.309017   -1.476100    1.578107
  O      1.916719   -0.307165   -0.610363
  C      2.508600    0.900663   -0.152804
  H      3.066130    0.736876    0.776283
  H      3.205472    1.198063   -0.936099
  H      1.740240    1.666946   -0.015622
  C     -1.528032    1.407502    0.064869
  O     -0.449631    1.816589   -0.364307
  H     -2.093868    2.010391    0.802692

----------------------------
CARTESIAN COORDINATES (A.U.)
----------------------------
  NO LB      ZA    FRAG     MASS         X           Y           Z
   0 C     6.0000    0    12.011   -2.767343   -1.073495   -2.506444
   1 C     6.0000    0    12.011    0.176376   -3.264768   -1.196790
   2 C     6.0000    0    12.011   -1.250625   -1.318821    3.705997
   3 C     6.0000    0    12.011   -3.978696    0.282336   -0.617066
   4 H     1.0000    0     1.008   -1.499532   -0.011578   -3.723229
   5 H     1.0000    0     1.008   -3.728791   -2.663091   -3.381799
   6 H     1.0000    0     1.008   -5.711287   -0.364674    0.267600
   7 C     6.0000    0    12.011    1.648990   -1.547049    0.119625
   8 C     6.0000    0    12.011    0.950723   -0.668183    2.590665
   9 H     1.0000    0     1.008    0.907360   -3.928623   -2.994250
  10 H     1.0000    0     1.008   -1.792315   -0.482062    5.497926
  11 H     1.0000    0     1.008    2.106446    0.779601    3.467179
  12 H     1.0000    0     1.008   -0.965306   -4.595922   -0.144997
  13 H     1.0000    0     1.008   -2.473684   -2.789425    2.982190
  14 O     8.0000    0    15.999    3.622074   -0.580458   -1.153419
  15 C     6.0000    0    12.011    4.740567    1.702006   -0.288758
  16 H     1.0000    0     1.008    5.794146    1.392494    1.466962
  17 H     1.0000    0     1.008    6.057464    2.264011   -1.768971
  18 H     1.0000    0     1.008    3.288577    3.150071   -0.029521
  19 C     6.0000    0    12.011   -2.887562    2.659793    0.122585
  20 O     8.0000    0    15.999   -0.849679    3.432856   -0.688440
  21 H     1.0000    0     1.008   -3.956837    3.799088    1.516868

--------------------------------
INTERNAL COORDINATES (ANGSTROEM)
--------------------------------
 C      0   0   0     0.000000000000     0.00000000     0.00000000
 C      1   0   0     2.061914698940     0.00000000     0.00000000
 C      2   1   0     2.891669410694    84.49165685     0.00000000
 C      1   2   3     1.387555061928   113.42951787     1.22006165
 H      1   2   3     1.086500053842    91.34967204   120.90135016
 H      1   2   3     1.086740245590    93.53513550   236.95574446
 H      4   1   2     1.084894517830   122.55873586   262.42386397
 C      2   1   3     1.385201868411   103.00355315   305.23763192
 C      3   2   1     1.350514360709    58.22614190   248.44838460
 H      2   1   3     1.085252585914    99.01732104   184.77082838
 H      3   2   1     1.085084797811   176.73157445   314.11948044
 H      9   3   2     1.084496678299   118.66032490   173.10990256
 H      2   1   3     1.082122175350    96.72891163    66.97095065
 H      3   2   1     1.082221748446    65.32677569    76.80647183
 O      8   2   1     1.343735042291   115.77220246   263.02070614
 C     15   8   2     1.420750447554   119.06841691   160.71721304
 H     16  15   8     1.095841473863   110.97350335    71.38440293
 H     16  15   8     1.089783648900   105.48086341   189.23414494
 H     16  15   8     1.093794142795   110.07955208   308.30514014
 C      4   1   2     1.438540380546   117.57071129    83.86731130
 O     20   4   1     1.230647361898   123.19960487   353.98513490
 H     20   4   1     1.108164385164   116.87264898   175.03192837

---------------------------
INTERNAL COORDINATES (A.U.)
---------------------------
 C      0   0   0     0.000000000000     0.00000000     0.00000000
 C      1   0   0     3.896454092504     0.00000000     0.00000000
 C      2   1   0     5.464463256050    84.49165685     0.00000000
 C      1   2   3     2.622099062779   113.42951787     1.22006165
 H      1   2   3     2.053187546251    91.34967204   120.90135016
 H      1   2   3     2.053641442875    93.53513550   236.95574446
 H      4   1   2     2.050153522892   122.55873586   262.42386397
 C      2   1   3     2.617652171493   103.00355315   305.23763192
 C      3   2   1     2.552102281668    58.22614190   248.44838460
 H      2   1   3     2.050830173508    99.01732104   184.77082838
 H      3   2   1     2.050513099944   176.73157445   314.11948044
 H      9   3   2     2.049401715132   118.66032490   173.10990256
 H      2   1   3     2.044914554855    96.72891163    66.97095065
 H      3   2   1     2.045102720736    65.32677569    76.80647183
 O      8   2   1     2.539291226483   115.77220246   263.02070614
 C     15   8   2     2.684829250524   119.06841691   160.71721304
 H     16  15   8     2.070840271793   110.97350335    71.38440293
 H     16  15   8     2.059392641646   105.48086341   189.23414494
 H     16  15   8     2.066971376770   110.07955208   308.30514014
 C      4   1   2     2.718447351819   117.57071129    83.86731130
 O     20   4   1     2.325586481420   123.19960487   353.98513490
 H     20   4   1     2.094127199325   116.87264898   175.03192837

---------------------
BASIS SET INFORMATION
---------------------
There are 3 groups of distinct atoms

 Group   1 Type C   : 11s6p2d1f contracted to 5s3p2d1f pattern {62111/411/11/1}
 Group   2 Type H   : 5s2p1d contracted to 3s2p1d pattern {311/11/1}
 Group   3 Type O   : 11s6p2d1f contracted to 5s3p2d1f pattern {62111/411/11/1}

Atom   0C    basis set group =>   1
Atom   1C    basis set group =>   1
Atom   2C    basis set group =>   1
Atom   3C    basis set group =>   1
Atom   4H    basis set group =>   2
Atom   5H    basis set group =>   2
Atom   6H    basis set group =>   2
Atom   7C    basis set group =>   1
Atom   8C    basis set group =>   1
Atom   9H    basis set group =>   2
Atom  10H    basis set group =>   2
Atom  11H    basis set group =>   2
Atom  12H    basis set group =>   2
Atom  13H    basis set group =>   2
Atom  14O    basis set group =>   3
Atom  15C    basis set group =>   1
Atom  16H    basis set group =>   2
Atom  17H    basis set group =>   2
Atom  18H    basis set group =>   2
Atom  19C    basis set group =>   1
Atom  20O    basis set group =>   3
Atom  21H    basis set group =>   2
---------------------------------
AUXILIARY/C BASIS SET INFORMATION
---------------------------------
There are 3 groups of distinct atoms

 Group   1 Type C   : 8s6p5d3f1g contracted to 8s6p4d3f1g pattern {11111111/111111/2111/111/1}
 Group   2 Type H   : 4s3p2d1f contracted to 4s3p2d1f pattern {1111/111/11/1}
 Group   3 Type O   : 8s6p5d3f1g contracted to 8s6p4d3f1g pattern {11111111/111111/2111/111/1}

Atom   0C    basis set group =>   1
Atom   1C    basis set group =>   1
Atom   2C    basis set group =>   1
Atom   3C    basis set group =>   1
Atom   4H    basis set group =>   2
Atom   5H    basis set group =>   2
Atom   6H    basis set group =>   2
Atom   7C    basis set group =>   1
Atom   8C    basis set group =>   1
Atom   9H    basis set group =>   2
Atom  10H    basis set group =>   2
Atom  11H    basis set group =>   2
Atom  12H    basis set group =>   2
Atom  13H    basis set group =>   2
Atom  14O    basis set group =>   3
Atom  15C    basis set group =>   1
Atom  16H    basis set group =>   2
Atom  17H    basis set group =>   2
Atom  18H    basis set group =>   2
Atom  19C    basis set group =>   1
Atom  20O    basis set group =>   3
Atom  21H    basis set group =>   2


           ************************************************************
           *        Program running with 16 parallel MPI-processes    *
           *              working on a common directory               *
           ************************************************************
------------------------------------------------------------------------------
                           ORCA GTO INTEGRAL CALCULATION
------------------------------------------------------------------------------
------------------------------------------------------------------------------
                   ___                                                        
                  /   \      - P O W E R E D   B Y -                         
                 /     \                                                     
                 |  |  |   _    _      __       _____    __    __             
                 |  |  |  | |  | |    /  \     |  _  \  |  |  /  |          
                  \  \/   | |  | |   /    \    | | | |  |  | /  /          
                 / \  \   | |__| |  /  /\  \   | |_| |  |  |/  /          
                |  |  |   |  __  | /  /__\  \  |    /   |      \           
                |  |  |   | |  | | |   __   |  |    \   |  |\   \          
                \     /   | |  | | |  |  |  |  | |\  \  |  | \   \       
                 \___/    |_|  |_| |__|  |__|  |_| \__\ |__|  \__/        
                                                                              
                      - O R C A' S   B I G   F R I E N D -                    
                                      &                                       
                       - I N T E G R A L  F E E D E R -                       
                                                                              
 v1 FN, 2020, v2 2021                                                         
------------------------------------------------------------------------------


Reading SHARK input file /tmp/43003/DATS_14_endo_i_DLPNO.SHARKINP.tmp ... ok
----------------------
SHARK INTEGRAL PACKAGE
----------------------

Number of atoms                             ...     22
Number of basis functions                   ...    478
Number of shells                            ...    182
Maximum angular momentum                    ...      3
Integral batch strategy                     ... SHARK/LIBINT Hybrid
RI-J (if used) integral strategy            ... SPLIT-RIJ (Revised 2003 algorithm where possible)
Printlevel                                  ...      1
Contraction scheme used                     ... SEGMENTED contraction
Coulomb Range Separation                    ... NOT USED
Exchange Range Separation                   ... NOT USED
Finite Nucleus Model                        ... NOT USED
Auxiliary Coulomb fitting basis             ... NOT available
Auxiliary J/K fitting basis                 ... NOT available
Auxiliary Correlation fitting basis         ... AVAILABLE
   # of basis functions in Aux-C            ...   1120
   # of shells in Aux-C                     ...    340
   Maximum angular momentum in Aux-C        ...      4
Auxiliary 'external' fitting basis          ... NOT available
Integral threshold                          ...     1.000000e-10
Primitive cut-off                           ...     1.000000e-11
Primitive pair pre-selection threshold      ...     1.000000e-11

Calculating pre-screening integrals         ... done (  0.0 sec) Dimension = 182
Organizing shell pair data                  ... done (  0.1 sec)
Shell pair information
Total number of shell pairs                 ...     16653
Shell pairs after pre-screening             ...     14755
Total number of primitive shell pairs       ...     44212
Primitive shell pairs kept                  ...     29307
          la=0 lb=0:   3250 shell pairs
          la=1 lb=0:   4163 shell pairs
          la=1 lb=1:   1368 shell pairs
          la=2 lb=0:   2337 shell pairs
          la=2 lb=1:   1546 shell pairs
          la=2 lb=2:    448 shell pairs
          la=3 lb=0:    781 shell pairs
          la=3 lb=1:    512 shell pairs
          la=3 lb=2:    295 shell pairs
          la=3 lb=3:     55 shell pairs

Calculating one electron integrals          ... done (  0.0 sec)
Calculating RI/C V-Matrix + Cholesky decomp.... done (  0.1 sec)
Calculating Nuclear repulsion               ... done (  0.0 sec) ENN=    548.528853586373 Eh

SHARK setup successfully completed in   0.4 seconds

Maximum memory used throughout the entire GTOINT-calculation: 26.9 MB


           ************************************************************
           *        Program running with 16 parallel MPI-processes    *
           *              working on a common directory               *
           ************************************************************
-------------------------------------------------------------------------------
                                 ORCA SCF
-------------------------------------------------------------------------------

------------
SCF SETTINGS
------------
Hamiltonian:
 Ab initio Hamiltonian  Method          .... Hartree-Fock(GTOs)


General Settings:
 Integral files         IntName         .... /tmp/43003/DATS_14_endo_i_DLPNO
 Hartree-Fock type      HFTyp           .... RHF
 Total Charge           Charge          ....    0
 Multiplicity           Mult            ....    1
 Number of Electrons    NEL             ....   76
 Basis Dimension        Dim             ....  478
 Nuclear Repulsion      ENuc            ....    548.5288535864 Eh

Convergence Acceleration:
 DIIS                   CNVDIIS         .... on
   Start iteration      DIISMaxIt       ....    12
   Startup error        DIISStart       ....  0.200000
   # of expansion vecs  DIISMaxEq       ....     5
   Bias factor          DIISBfac        ....   1.050
   Max. coefficient     DIISMaxC        ....  10.000
 Trust-Rad. Augm. Hess. CNVTRAH         .... auto
   Auto Start mean grad. ratio tolernc. ....  1.125000
   Auto Start start iteration           ....    20
   Auto Start num. interpolation iter.  ....    10
   Max. Number of Micro iterations      ....    16
   Max. Number of Macro iterations      .... Maxiter - #DIIS iter
   Number of Davidson start vectors     ....     2
   Converg. threshold I  (grad. norm)   ....   5.000e-05
   Converg. threshold II (energy diff.) ....   1.000e-06
   Grad. Scal. Fac. for Micro threshold ....   0.100
   Minimum threshold for Micro iter.    ....   0.010
   NR start threshold (gradient norm)   ....   0.001
   Initial trust radius                 ....   0.400
   Minimum AH scaling param. (alpha)    ....   1.000
   Maximum AH scaling param. (alpha)    .... 1000.000
   Orbital update algorithm             .... Taylor
   White noise on init. David. guess    .... on
   Maximum white noise                  ....   0.010
   Quad. conv. algorithm                .... NR
 SOSCF                  CNVSOSCF        .... on
   Start iteration      SOSCFMaxIt      ....   150
   Startup grad/error   SOSCFStart      ....  0.003300
 Level Shifting         CNVShift        .... on
   Level shift para.    LevelShift      ....    0.2500
   Turn off err/grad.   ShiftErr        ....    0.0010
 Zerner damping         CNVZerner       .... off
 Static damping         CNVDamp         .... on
   Fraction old density DampFac         ....    0.7000
   Max. Damping (<1)    DampMax         ....    0.9800
   Min. Damping (>=0)   DampMin         ....    0.0000
   Turn off err/grad.   DampErr         ....    0.1000
 Fernandez-Rico         CNVRico         .... off

SCF Procedure:
 Maximum # iterations   MaxIter         ....   125
 SCF integral mode      SCFMode         .... Direct
   Integral package                     .... SHARK and LIBINT hybrid scheme
 Reset frequency        DirectResetFreq ....    20
 Integral Threshold     Thresh          ....  1.000e-10 Eh
 Primitive CutOff       TCut            ....  1.000e-11 Eh

Convergence Tolerance:
 Convergence Check Mode ConvCheckMode   .... Total+1el-Energy
 Convergence forced     ConvForced      .... 1
 Energy Change          TolE            ....  1.000e-06 Eh
 1-El. energy change                    ....  1.000e-03 Eh
 Orbital Gradient       TolG            ....  5.000e-05
 Orbital Rotation angle TolX            ....  5.000e-05
 DIIS Error             TolErr          ....  1.000e-06


Diagonalization of the overlap matrix:
Smallest eigenvalue                        ... 6.004e-05
Time for diagonalization                   ...    0.027 sec
Threshold for overlap eigenvalues          ... 1.000e-08
Number of eigenvalues below threshold      ... 0
Time for construction of square roots      ...    0.025 sec
Total time needed                          ...    0.085 sec

Time for model grid setup =    0.079 sec

------------------------------
INITIAL GUESS: MODEL POTENTIAL
------------------------------
Loading Hartree-Fock densities                     ... done
Calculating cut-offs                               ... done
Initializing the effective Hamiltonian             ... done
Setting up the integral package (SHARK)            ... done
Starting the Coulomb interaction                   ... done (   0.9 sec)
Reading the grid                                   ... done
Mapping shells                                     ... done
Starting the XC term evaluation                    ... done (   0.1 sec)
Transforming the Hamiltonian                       ... done (   0.1 sec)
Diagonalizing the Hamiltonian                      ... done (   0.0 sec)
Back transforming the eigenvectors                 ... done (   0.0 sec)
Now organizing SCF variables                       ... done
                      ------------------
                      INITIAL GUESS DONE (   1.2 sec)
                      ------------------
--------------
SCF ITERATIONS
--------------
ITER       Energy         Delta-E        Max-DP      RMS-DP      [F,P]     Damp
               ***  Starting incremental Fock matrix formation  ***
  0   -459.2404772606   0.000000000000 0.04847826  0.00067435  0.3019203 0.7000
  1   -459.3924997236  -0.152022463002 0.04638670  0.00055432  0.2206627 0.7000
                               ***Turning on DIIS***
  2   -459.4856670084  -0.093167284850 0.02037106  0.00036056  0.1627127 0.7000
  3   -460.6848947951  -1.199227786686 0.01005776  0.00022607  0.1203237 0.7000
  4   -460.5124608915   0.172433903621 0.03319022  0.00057186  0.0846458 0.0000
  5   -459.7195801362   0.792880755288 0.00968327  0.00010052  0.0042267 0.0000
  6   -459.6914900034   0.028090132818 0.00761188  0.00006668  0.0021402 0.0000
                      *** Initiating the SOSCF procedure ***
                           *** Shutting down DIIS ***
                      *** Re-Reading the Fockian *** 
                      *** Removing any level shift *** 
ITER      Energy       Delta-E        Grad      Rot      Max-DP    RMS-DP
  7   -459.68634570   0.0051443072  0.002995  0.002995  0.003089  0.000041
               *** Restarting incremental Fock matrix formation ***
  8   -459.68440927   0.0019364212  0.001567  0.003953  0.002048  0.000034
  9   -459.68444707  -0.0000377955  0.000850  0.006454  0.002939  0.000051
 10   -459.68446861  -0.0000215397  0.000174  0.000385  0.000828  0.000009
 11   -459.68447088  -0.0000022698  0.000091  0.000184  0.000255  0.000003
                 **** Energy Check signals convergence ****
              ***Rediagonalizing the Fockian in SOSCF/NRSCF***

               *****************************************************
               *                     SUCCESS                       *
               *           SCF CONVERGED AFTER  12 CYCLES          *
               *****************************************************


----------------
TOTAL SCF ENERGY
----------------

Total Energy       :         -459.68447113 Eh          -12508.65039 eV

Components:
Nuclear Repulsion  :          548.52885359 Eh           14926.22894 eV
Electronic Energy  :        -1008.21332472 Eh          -27434.87933 eV
One Electron Energy:        -1714.52900750 Eh          -46654.70617 eV
Two Electron Energy:          706.31568279 Eh           19219.82685 eV

Virial components:
Potential Energy   :         -918.85779641 Eh          -25003.39179 eV
Kinetic Energy     :          459.17332528 Eh           12494.74140 eV
Virial Ratio       :            2.00111319


---------------
SCF CONVERGENCE
---------------

  Last Energy change         ...   -2.5039e-07  Tolerance :   1.0000e-06
  Last MAX-Density change    ...    9.5294e-05  Tolerance :   1.0000e-05
  Last RMS-Density change    ...    1.2107e-06  Tolerance :   1.0000e-06
  Last Orbital Gradient      ...    2.4657e-05  Tolerance :   5.0000e-05
  Last Orbital Rotation      ...    1.0201e-04  Tolerance :   5.0000e-05

             **** THE GBW FILE WAS UPDATED (/tmp/43003/DATS_14_endo_i_DLPNO.gbw) ****
             **** DENSITY /tmp/43003/DATS_14_endo_i_DLPNO.scfp WAS UPDATED ****
             **** ENERGY FILE WAS UPDATED (/tmp/43003/DATS_14_endo_i_DLPNO.en.tmp) ****
             **** THE GBW FILE WAS UPDATED (/tmp/43003/DATS_14_endo_i_DLPNO.gbw) ****
             **** DENSITY /tmp/43003/DATS_14_endo_i_DLPNO.scfp WAS UPDATED ****
----------------
ORBITAL ENERGIES
----------------

  NO   OCC          E(Eh)            E(eV) 
   0   2.0000     -20.591643      -560.3271 
   1   2.0000     -20.503957      -557.9410 
   2   2.0000     -11.323920      -308.1395 
   3   2.0000     -11.295974      -307.3791 
   4   2.0000     -11.272657      -306.7446 
   5   2.0000     -11.259151      -306.3771 
   6   2.0000     -11.256228      -306.2975 
   7   2.0000     -11.243729      -305.9574 
   8   2.0000     -11.231874      -305.6348 
   9   2.0000     -11.202016      -304.8224 
  10   2.0000      -1.422282       -38.7023 
  11   2.0000      -1.342816       -36.5399 
  12   2.0000      -1.108852       -30.1734 
  13   2.0000      -1.045040       -28.4370 
  14   2.0000      -1.014461       -27.6049 
  15   2.0000      -0.933325       -25.3971 
  16   2.0000      -0.875862       -23.8334 
  17   2.0000      -0.864827       -23.5331 
  18   2.0000      -0.745933       -20.2979 
  19   2.0000      -0.724620       -19.7179 
  20   2.0000      -0.704293       -19.1648 
  21   2.0000      -0.685240       -18.6463 
  22   2.0000      -0.663144       -18.0451 
  23   2.0000      -0.658505       -17.9188 
  24   2.0000      -0.605667       -16.4810 
  25   2.0000      -0.603732       -16.4284 
  26   2.0000      -0.582122       -15.8403 
  27   2.0000      -0.569849       -15.5064 
  28   2.0000      -0.560914       -15.2632 
  29   2.0000      -0.546679       -14.8759 
  30   2.0000      -0.531091       -14.4517 
  31   2.0000      -0.520546       -14.1648 
  32   2.0000      -0.504703       -13.7337 
  33   2.0000      -0.485910       -13.2223 
  34   2.0000      -0.425240       -11.5714 
  35   2.0000      -0.396486       -10.7889 
  36   2.0000      -0.370272       -10.0756 
  37   2.0000      -0.275300        -7.4913 
  38   0.0000       0.064891         1.7658 
  39   0.0000       0.121586         3.3085 
  40   0.0000       0.144189         3.9236 
  41   0.0000       0.154950         4.2164 
  42   0.0000       0.162888         4.4324 
  43   0.0000       0.187135         5.0922 
  44   0.0000       0.191132         5.2010 
  45   0.0000       0.203603         5.5403 
  46   0.0000       0.209607         5.7037 
  47   0.0000       0.219491         5.9727 
  48   0.0000       0.220430         5.9982 
  49   0.0000       0.226099         6.1525 
  50   0.0000       0.227204         6.1825 
  51   0.0000       0.245461         6.6793 
  52   0.0000       0.262342         7.1387 
  53   0.0000       0.270704         7.3662 
  54   0.0000       0.288361         7.8467 
  55   0.0000       0.296580         8.0704 
  56   0.0000       0.310443         8.4476 
  57   0.0000       0.313761         8.5379 
  58   0.0000       0.322603         8.7785 
  59   0.0000       0.335050         9.1172 
  60   0.0000       0.345816         9.4101 
  61   0.0000       0.347359         9.4521 
  62   0.0000       0.358667         9.7598 
  63   0.0000       0.385293        10.4843 
  64   0.0000       0.393197        10.6994 
  65   0.0000       0.401095        10.9144 
  66   0.0000       0.411136        11.1876 
  67   0.0000       0.427748        11.6396 
  68   0.0000       0.444955        12.1078 
  69   0.0000       0.452198        12.3049 
  70   0.0000       0.466893        12.7048 
  71   0.0000       0.471451        12.8288 
  72   0.0000       0.489474        13.3193 
  73   0.0000       0.498414        13.5625 
  74   0.0000       0.511924        13.9301 
  75   0.0000       0.523528        14.2459 
  76   0.0000       0.533327        14.5126 
  77   0.0000       0.540987        14.7210 
  78   0.0000       0.548360        14.9216 
  79   0.0000       0.556450        15.1418 
  80   0.0000       0.563581        15.3358 
  81   0.0000       0.567979        15.4555 
  82   0.0000       0.574872        15.6431 
  83   0.0000       0.584015        15.8919 
  84   0.0000       0.588069        16.0022 
  85   0.0000       0.599605        16.3161 
  86   0.0000       0.612271        16.6607 
  87   0.0000       0.620619        16.8879 
  88   0.0000       0.621181        16.9032 
  89   0.0000       0.628114        17.0919 
  90   0.0000       0.641548        17.4574 
  91   0.0000       0.650729        17.7072 
  92   0.0000       0.661880        18.0107 
  93   0.0000       0.671740        18.2790 
  94   0.0000       0.681304        18.5392 
  95   0.0000       0.686961        18.6932 
  96   0.0000       0.703135        19.1333 
  97   0.0000       0.719319        19.5737 
  98   0.0000       0.731474        19.9044 
  99   0.0000       0.746745        20.3200 
 100   0.0000       0.751651        20.4535 
 101   0.0000       0.763853        20.7855 
 102   0.0000       0.771771        21.0010 
 103   0.0000       0.780073        21.2269 
 104   0.0000       0.795276        21.6406 
 105   0.0000       0.824776        22.4433 
 106   0.0000       0.847667        23.0662 
 107   0.0000       0.852152        23.1882 
 108   0.0000       0.868195        23.6248 
 109   0.0000       0.873707        23.7748 
 110   0.0000       0.891880        24.2693 
 111   0.0000       0.898631        24.4530 
 112   0.0000       0.915278        24.9060 
 113   0.0000       0.921077        25.0638 
 114   0.0000       0.951087        25.8804 
 115   0.0000       0.978846        26.6357 
 116   0.0000       0.987004        26.8577 
 117   0.0000       0.998648        27.1746 
 118   0.0000       1.006791        27.3962 
 119   0.0000       1.017463        27.6866 
 120   0.0000       1.035408        28.1749 
 121   0.0000       1.039761        28.2933 
 122   0.0000       1.056793        28.7568 
 123   0.0000       1.071024        29.1440 
 124   0.0000       1.082621        29.4596 
 125   0.0000       1.087448        29.5910 
 126   0.0000       1.099569        29.9208 
 127   0.0000       1.112480        30.2721 
 128   0.0000       1.133573        30.8461 
 129   0.0000       1.146612        31.2009 
 130   0.0000       1.152307        31.3559 
 131   0.0000       1.169569        31.8256 
 132   0.0000       1.174547        31.9611 
 133   0.0000       1.187008        32.3001 
 134   0.0000       1.198135        32.6029 
 135   0.0000       1.206673        32.8352 
 136   0.0000       1.223620        33.2964 
 137   0.0000       1.227677        33.4068 
 138   0.0000       1.246999        33.9326 
 139   0.0000       1.250690        34.0330 
 140   0.0000       1.259258        34.2661 
 141   0.0000       1.276861        34.7452 
 142   0.0000       1.280126        34.8340 
 143   0.0000       1.290040        35.1038 
 144   0.0000       1.304921        35.5087 
 145   0.0000       1.315670        35.8012 
 146   0.0000       1.325596        36.0713 
 147   0.0000       1.345912        36.6241 
 148   0.0000       1.361670        37.0529 
 149   0.0000       1.368323        37.2340 
 150   0.0000       1.372202        37.3395 
 151   0.0000       1.375721        37.4353 
 152   0.0000       1.388342        37.7787 
 153   0.0000       1.421943        38.6930 
 154   0.0000       1.441014        39.2120 
 155   0.0000       1.454245        39.5720 
 156   0.0000       1.460845        39.7516 
 157   0.0000       1.478187        40.2235 
 158   0.0000       1.481070        40.3020 
 159   0.0000       1.494978        40.6804 
 160   0.0000       1.511328        41.1253 
 161   0.0000       1.528266        41.5862 
 162   0.0000       1.531458        41.6731 
 163   0.0000       1.550030        42.1785 
 164   0.0000       1.563884        42.5554 
 165   0.0000       1.569243        42.7013 
 166   0.0000       1.586429        43.1689 
 167   0.0000       1.594905        43.3996 
 168   0.0000       1.615180        43.9513 
 169   0.0000       1.633088        44.4386 
 170   0.0000       1.638854        44.5955 
 171   0.0000       1.646702        44.8090 
 172   0.0000       1.661239        45.2046 
 173   0.0000       1.670945        45.4687 
 174   0.0000       1.688905        45.9574 
 175   0.0000       1.705211        46.4012 
 176   0.0000       1.712220        46.5919 
 177   0.0000       1.717042        46.7231 
 178   0.0000       1.727656        47.0119 
 179   0.0000       1.750198        47.6253 
 180   0.0000       1.758456        47.8500 
 181   0.0000       1.771875        48.2152 
 182   0.0000       1.783308        48.5263 
 183   0.0000       1.789942        48.7068 
 184   0.0000       1.804069        49.0912 
 185   0.0000       1.816222        49.4219 
 186   0.0000       1.840478        50.0819 
 187   0.0000       1.842169        50.1280 
 188   0.0000       1.867547        50.8185 
 189   0.0000       1.881492        51.1980 
 190   0.0000       1.885160        51.2978 
 191   0.0000       1.899058        51.6760 
 192   0.0000       1.906600        51.8812 
 193   0.0000       1.938779        52.7569 
 194   0.0000       1.950450        53.0744 
 195   0.0000       1.968702        53.5711 
 196   0.0000       1.969970        53.6056 
 197   0.0000       2.005136        54.5625 
 198   0.0000       2.024467        55.0885 
 199   0.0000       2.035121        55.3785 
 200   0.0000       2.056781        55.9679 
 201   0.0000       2.104245        57.2594 
 202   0.0000       2.109079        57.3910 
 203   0.0000       2.146093        58.3982 
 204   0.0000       2.162574        58.8466 
 205   0.0000       2.184861        59.4531 
 206   0.0000       2.193172        59.6792 
 207   0.0000       2.233967        60.7893 
 208   0.0000       2.241123        60.9841 
 209   0.0000       2.271417        61.8084 
 210   0.0000       2.291584        62.3572 
 211   0.0000       2.310195        62.8636 
 212   0.0000       2.325404        63.2775 
 213   0.0000       2.342787        63.7505 
 214   0.0000       2.405832        65.4660 
 215   0.0000       2.409113        65.5553 
 216   0.0000       2.420655        65.8694 
 217   0.0000       2.454605        66.7932 
 218   0.0000       2.470385        67.2226 
 219   0.0000       2.499188        68.0064 
 220   0.0000       2.510466        68.3132 
 221   0.0000       2.531764        68.8928 
 222   0.0000       2.571996        69.9876 
 223   0.0000       2.592233        70.5383 
 224   0.0000       2.620498        71.3074 
 225   0.0000       2.685740        73.0827 
 226   0.0000       2.698941        73.4419 
 227   0.0000       2.720627        74.0320 
 228   0.0000       2.763189        75.1902 
 229   0.0000       2.783841        75.7522 
 230   0.0000       2.798611        76.1541 
 231   0.0000       2.825598        76.8884 
 232   0.0000       2.840179        77.2852 
 233   0.0000       2.845643        77.4339 
 234   0.0000       2.866084        77.9901 
 235   0.0000       2.888277        78.5940 
 236   0.0000       2.903823        79.0170 
 237   0.0000       2.916658        79.3663 
 238   0.0000       2.940709        80.0208 
 239   0.0000       2.967428        80.7478 
 240   0.0000       2.972329        80.8812 
 241   0.0000       3.005057        81.7718 
 242   0.0000       3.026886        82.3657 
 243   0.0000       3.031463        82.4903 
 244   0.0000       3.038265        82.6754 
 245   0.0000       3.063103        83.3513 
 246   0.0000       3.066446        83.4422 
 247   0.0000       3.075868        83.6986 
 248   0.0000       3.092127        84.1410 
 249   0.0000       3.100446        84.3674 
 250   0.0000       3.106108        84.5215 
 251   0.0000       3.116754        84.8112 
 252   0.0000       3.141882        85.4950 
 253   0.0000       3.146240        85.6136 
 254   0.0000       3.150350        85.7254 
 255   0.0000       3.168661        86.2236 
 256   0.0000       3.179111        86.5080 
 257   0.0000       3.189781        86.7983 
 258   0.0000       3.204456        87.1977 
 259   0.0000       3.215291        87.4925 
 260   0.0000       3.222888        87.6992 
 261   0.0000       3.237514        88.0972 
 262   0.0000       3.245048        88.3022 
 263   0.0000       3.254097        88.5485 
 264   0.0000       3.269433        88.9658 
 265   0.0000       3.277288        89.1795 
 266   0.0000       3.294701        89.6534 
 267   0.0000       3.301055        89.8263 
 268   0.0000       3.318718        90.3069 
 269   0.0000       3.324648        90.4683 
 270   0.0000       3.344509        91.0087 
 271   0.0000       3.361714        91.4769 
 272   0.0000       3.371187        91.7347 
 273   0.0000       3.398535        92.4788 
 274   0.0000       3.406760        92.7027 
 275   0.0000       3.414297        92.9077 
 276   0.0000       3.422538        93.1320 
 277   0.0000       3.451064        93.9082 
 278   0.0000       3.453098        93.9636 
 279   0.0000       3.457315        94.0783 
 280   0.0000       3.479129        94.6719 
 281   0.0000       3.493258        95.0564 
 282   0.0000       3.499032        95.2135 
 283   0.0000       3.529913        96.0538 
 284   0.0000       3.532237        96.1170 
 285   0.0000       3.537764        96.2674 
 286   0.0000       3.552040        96.6559 
 287   0.0000       3.567276        97.0705 
 288   0.0000       3.572789        97.2205 
 289   0.0000       3.581623        97.4609 
 290   0.0000       3.592423        97.7548 
 291   0.0000       3.600642        97.9785 
 292   0.0000       3.611680        98.2788 
 293   0.0000       3.623546        98.6017 
 294   0.0000       3.644577        99.1740 
 295   0.0000       3.650739        99.3416 
 296   0.0000       3.653719        99.4227 
 297   0.0000       3.667746        99.8044 
 298   0.0000       3.677351       100.0658 
 299   0.0000       3.693222       100.4977 
 300   0.0000       3.698517       100.6418 
 301   0.0000       3.719803       101.2210 
 302   0.0000       3.730716       101.5179 
 303   0.0000       3.739954       101.7693 
 304   0.0000       3.750063       102.0444 
 305   0.0000       3.762425       102.3808 
 306   0.0000       3.778263       102.8118 
 307   0.0000       3.784561       102.9831 
 308   0.0000       3.798913       103.3737 
 309   0.0000       3.805761       103.5600 
 310   0.0000       3.818513       103.9070 
 311   0.0000       3.832390       104.2846 
 312   0.0000       3.841492       104.5323 
 313   0.0000       3.854007       104.8729 
 314   0.0000       3.874877       105.4408 
 315   0.0000       3.886282       105.7511 
 316   0.0000       3.897008       106.0430 
 317   0.0000       3.910734       106.4165 
 318   0.0000       3.923300       106.7584 
 319   0.0000       3.924500       106.7911 
 320   0.0000       3.952157       107.5436 
 321   0.0000       3.960178       107.7619 
 322   0.0000       3.969686       108.0206 
 323   0.0000       3.974910       108.1628 
 324   0.0000       4.006813       109.0309 
 325   0.0000       4.013460       109.2118 
 326   0.0000       4.023407       109.4825 
 327   0.0000       4.037426       109.8640 
 328   0.0000       4.042360       109.9982 
 329   0.0000       4.061254       110.5124 
 330   0.0000       4.079000       110.9952 
 331   0.0000       4.081503       111.0633 
 332   0.0000       4.102821       111.6434 
 333   0.0000       4.109380       111.8219 
 334   0.0000       4.130306       112.3913 
 335   0.0000       4.134289       112.4997 
 336   0.0000       4.149012       112.9004 
 337   0.0000       4.165440       113.3474 
 338   0.0000       4.180722       113.7632 
 339   0.0000       4.182673       113.8163 
 340   0.0000       4.198034       114.2343 
 341   0.0000       4.220057       114.8336 
 342   0.0000       4.233867       115.2094 
 343   0.0000       4.243630       115.4750 
 344   0.0000       4.256007       115.8118 
 345   0.0000       4.276821       116.3782 
 346   0.0000       4.290573       116.7524 
 347   0.0000       4.297498       116.9409 
 348   0.0000       4.319178       117.5308 
 349   0.0000       4.325251       117.6961 
 350   0.0000       4.331323       117.8613 
 351   0.0000       4.344721       118.2259 
 352   0.0000       4.352779       118.4451 
 353   0.0000       4.365740       118.7978 
 354   0.0000       4.371271       118.9483 
 355   0.0000       4.398562       119.6910 
 356   0.0000       4.407203       119.9261 
 357   0.0000       4.416707       120.1847 
 358   0.0000       4.431487       120.5869 
 359   0.0000       4.442633       120.8902 
 360   0.0000       4.455491       121.2401 
 361   0.0000       4.474531       121.7582 
 362   0.0000       4.475943       121.7966 
 363   0.0000       4.487978       122.1241 
 364   0.0000       4.514435       122.8440 
 365   0.0000       4.516547       122.9015 
 366   0.0000       4.541780       123.5881 
 367   0.0000       4.546846       123.7260 
 368   0.0000       4.561793       124.1327 
 369   0.0000       4.575611       124.5087 
 370   0.0000       4.584534       124.7515 
 371   0.0000       4.615564       125.5959 
 372   0.0000       4.627468       125.9198 
 373   0.0000       4.647651       126.4690 
 374   0.0000       4.663394       126.8974 
 375   0.0000       4.686164       127.5170 
 376   0.0000       4.716316       128.3375 
 377   0.0000       4.718952       128.4092 
 378   0.0000       4.735998       128.8731 
 379   0.0000       4.751714       129.3007 
 380   0.0000       4.769395       129.7818 
 381   0.0000       4.783973       130.1785 
 382   0.0000       4.833528       131.5270 
 383   0.0000       4.846768       131.8873 
 384   0.0000       4.851195       132.0077 
 385   0.0000       4.886644       132.9724 
 386   0.0000       4.900515       133.3498 
 387   0.0000       4.941694       134.4703 
 388   0.0000       4.952239       134.7573 
 389   0.0000       4.962443       135.0349 
 390   0.0000       4.972495       135.3085 
 391   0.0000       4.979669       135.5037 
 392   0.0000       4.999971       136.0561 
 393   0.0000       5.045327       137.2903 
 394   0.0000       5.056375       137.5910 
 395   0.0000       5.068158       137.9116 
 396   0.0000       5.088358       138.4613 
 397   0.0000       5.092266       138.5676 
 398   0.0000       5.114948       139.1848 
 399   0.0000       5.127054       139.5142 
 400   0.0000       5.135411       139.7416 
 401   0.0000       5.157683       140.3477 
 402   0.0000       5.180280       140.9626 
 403   0.0000       5.220225       142.0495 
 404   0.0000       5.256763       143.0438 
 405   0.0000       5.274209       143.5185 
 406   0.0000       5.299473       144.2060 
 407   0.0000       5.330974       145.0632 
 408   0.0000       5.341302       145.3442 
 409   0.0000       5.376927       146.3136 
 410   0.0000       5.383776       146.5000 
 411   0.0000       5.393419       146.7624 
 412   0.0000       5.408593       147.1753 
 413   0.0000       5.415766       147.3705 
 414   0.0000       5.460296       148.5822 
 415   0.0000       5.480217       149.1243 
 416   0.0000       5.504352       149.7810 
 417   0.0000       5.508642       149.8978 
 418   0.0000       5.529482       150.4649 
 419   0.0000       5.547025       150.9422 
 420   0.0000       5.560404       151.3063 
 421   0.0000       5.585276       151.9831 
 422   0.0000       5.612581       152.7261 
 423   0.0000       5.632327       153.2634 
 424   0.0000       5.666028       154.1805 
 425   0.0000       5.686173       154.7286 
 426   0.0000       5.705875       155.2648 
 427   0.0000       5.729364       155.9039 
 428   0.0000       5.742245       156.2544 
 429   0.0000       5.754244       156.5809 
 430   0.0000       5.769004       156.9826 
 431   0.0000       5.813630       158.1969 
 432   0.0000       5.836979       158.8323 
 433   0.0000       5.866906       159.6466 
 434   0.0000       5.879159       159.9801 
 435   0.0000       5.901710       160.5937 
 436   0.0000       5.932252       161.4248 
 437   0.0000       5.956253       162.0779 
 438   0.0000       5.969519       162.4389 
 439   0.0000       5.974954       162.5868 
 440   0.0000       5.990353       163.0058 
 441   0.0000       6.025235       163.9550 
 442   0.0000       6.072420       165.2389 
 443   0.0000       6.085742       165.6014 
 444   0.0000       6.112048       166.3173 
 445   0.0000       6.184615       168.2919 
 446   0.0000       6.217401       169.1841 
 447   0.0000       6.295018       171.2962 
 448   0.0000       6.391467       173.9207 
 449   0.0000       6.441528       175.2829 
 450   0.0000       6.519760       177.4117 
 451   0.0000       6.556773       178.4189 
 452   0.0000       6.643959       180.7913 
 453   0.0000       6.647859       180.8974 
 454   0.0000       6.890332       187.4955 
 455   0.0000       6.925337       188.4480 
 456   0.0000       7.057311       192.0392 
 457   0.0000       7.147863       194.5032 
 458   0.0000       7.206915       196.1101 
 459   0.0000       7.265256       197.6977 
 460   0.0000       7.348252       199.9561 
 461   0.0000       7.381108       200.8501 
 462   0.0000       7.414809       201.7672 
 463   0.0000       7.511953       204.4106 
 464   0.0000       7.661255       208.4733 
 465   0.0000       7.684929       209.1176 
 466   0.0000       7.832937       213.1450 
 467   0.0000       7.995045       217.5562 
 468   0.0000      24.122139       656.3968 
 469   0.0000      24.188521       658.2031 
 470   0.0000      24.201375       658.5529 
 471   0.0000      24.463353       665.6817 
 472   0.0000      24.575092       668.7223 
 473   0.0000      24.703104       672.2056 
 474   0.0000      24.739495       673.1959 
 475   0.0000      24.863715       676.5761 
 476   0.0000      45.618579      1241.3446 
 477   0.0000      45.951060      1250.3919 

                    ********************************
                    * MULLIKEN POPULATION ANALYSIS *
                    ********************************

-----------------------
MULLIKEN ATOMIC CHARGES
-----------------------
   0 C :   -0.054635
   1 C :   -0.233579
   2 C :   -0.146163
   3 C :   -0.273322
   4 H :    0.129913
   5 H :    0.115451
   6 H :    0.082737
   7 C :    0.363738
   8 C :   -0.135712
   9 H :    0.114715
  10 H :    0.099410
  11 H :    0.085425
  12 H :    0.101775
  13 H :    0.082328
  14 O :   -0.370356
  15 C :   -0.023370
  16 H :    0.061416
  17 H :    0.085473
  18 H :    0.115798
  19 C :    0.330224
  20 O :   -0.572189
  21 H :    0.040924
Sum of atomic charges:    0.0000000

--------------------------------
MULLIKEN REDUCED ORBITAL CHARGES
--------------------------------
  0 C s       :     3.107597  s :     3.107597
      pz      :     0.946743  p :     2.824927
      px      :     0.902032
      py      :     0.976152
      dz2     :     0.025251  d :     0.116310
      dxz     :     0.023182
      dyz     :     0.023599
      dx2y2   :     0.011981
      dxy     :     0.032296
      f0      :     0.001150  f :     0.005802
      f+1     :     0.000621
      f-1     :     0.000791
      f+2     :     0.000877
      f-2     :     0.001254
      f+3     :     0.000640
      f-3     :     0.000466
  1 C s       :     3.113476  s :     3.113476
      pz      :     1.032786  p :     3.031485
      px      :     1.010540
      py      :     0.988160
      dz2     :     0.012900  d :     0.083137
      dxz     :     0.021937
      dyz     :     0.018525
      dx2y2   :     0.011873
      dxy     :     0.017903
      f0      :     0.000421  f :     0.005479
      f+1     :     0.000753
      f-1     :     0.000888
      f+2     :     0.000601
      f-2     :     0.001160
      f+3     :     0.000827
      f-3     :     0.000828
  2 C s       :     3.149174  s :     3.149174
      pz      :     0.989174  p :     2.905147
      px      :     0.940896
      py      :     0.975077
      dz2     :     0.017590  d :     0.086076
      dxz     :     0.020658
      dyz     :     0.012706
      dx2y2   :     0.013233
      dxy     :     0.021889
      f0      :     0.000362  f :     0.005766
      f+1     :     0.001349
      f-1     :     0.000496
      f+2     :     0.000651
      f-2     :     0.001111
      f+3     :     0.001076
      f-3     :     0.000719
  3 C s       :     3.137760  s :     3.137760
      pz      :     1.097729  p :     3.033463
      px      :     1.002798
      py      :     0.932936
      dz2     :     0.015153  d :     0.093904
      dxz     :     0.019251
      dyz     :     0.016848
      dx2y2   :     0.023952
      dxy     :     0.018699
      f0      :     0.000980  f :     0.008197
      f+1     :     0.000828
      f-1     :     0.001321
      f+2     :     0.001451
      f-2     :     0.001487
      f+3     :     0.001007
      f-3     :     0.001121
  4 H s       :     0.827416  s :     0.827416
      pz      :     0.012307  p :     0.040456
      px      :     0.014198
      py      :     0.013951
      dz2     :     0.000423  d :     0.002215
      dxz     :     0.000522
      dyz     :     0.000423
      dx2y2   :     0.000405
      dxy     :     0.000442
  5 H s       :     0.844440  s :     0.844440
      pz      :     0.010515  p :     0.038069
      px      :     0.012243
      py      :     0.015312
      dz2     :     0.000309  d :     0.002040
      dxz     :     0.000241
      dyz     :     0.000492
      dx2y2   :     0.000439
      dxy     :     0.000559
  6 H s       :     0.872181  s :     0.872181
      pz      :     0.013884  p :     0.042814
      px      :     0.017909
      py      :     0.011020
      dz2     :     0.000412  d :     0.002268
      dxz     :     0.000603
      dyz     :     0.000211
      dx2y2   :     0.000475
      dxy     :     0.000567
  7 C s       :     3.076573  s :     3.076573
      pz      :     0.811825  p :     2.341435
      px      :     0.660532
      py      :     0.869079
      dz2     :     0.049572  d :     0.200739
      dxz     :     0.039157
      dyz     :     0.033905
      dx2y2   :     0.047331
      dxy     :     0.030774
      f0      :     0.001816  f :     0.017515
      f+1     :     0.003533
      f-1     :     0.002299
      f+2     :     0.002975
      f-2     :     0.002647
      f+3     :     0.002441
      f-3     :     0.001804
  8 C s       :     3.162990  s :     3.162990
      pz      :     0.916453  p :     2.863612
      px      :     0.960396
      py      :     0.986763
      dz2     :     0.025505  d :     0.100557
      dxz     :     0.019345
      dyz     :     0.018465
      dx2y2   :     0.016228
      dxy     :     0.021015
      f0      :     0.001277  f :     0.008552
      f+1     :     0.001816
      f-1     :     0.000933
      f+2     :     0.001085
      f-2     :     0.001565
      f+3     :     0.001110
      f-3     :     0.000766
  9 H s       :     0.843705  s :     0.843705
      pz      :     0.017529  p :     0.039362
      px      :     0.011599
      py      :     0.010233
      dz2     :     0.000700  d :     0.002219
      dxz     :     0.000625
      dyz     :     0.000577
      dx2y2   :     0.000138
      dxy     :     0.000180
 10 H s       :     0.859781  s :     0.859781
      pz      :     0.020132  p :     0.038758
      px      :     0.008526
      py      :     0.010100
      dz2     :     0.000643  d :     0.002051
      dxz     :     0.000525
      dyz     :     0.000565
      dx2y2   :     0.000152
      dxy     :     0.000167
 11 H s       :     0.869897  s :     0.869897
      pz      :     0.012188  p :     0.042361
      px      :     0.013239
      py      :     0.016934
      dz2     :     0.000365  d :     0.002317
      dxz     :     0.000328
      dyz     :     0.000544
      dx2y2   :     0.000552
      dxy     :     0.000528
 12 H s       :     0.851094  s :     0.851094
      pz      :     0.012442  p :     0.044849
      px      :     0.014623
      py      :     0.017784
      dz2     :     0.000404  d :     0.002282
      dxz     :     0.000351
      dyz     :     0.000429
      dx2y2   :     0.000584
      dxy     :     0.000514
 13 H s       :     0.869427  s :     0.869427
      pz      :     0.011175  p :     0.046028
      px      :     0.017626
      py      :     0.017227
      dz2     :     0.000306  d :     0.002217
      dxz     :     0.000282
      dyz     :     0.000455
      dx2y2   :     0.000540
      dxy     :     0.000635
 14 O s       :     3.768574  s :     3.768574
      pz      :     1.651002  p :     4.555935
      px      :     1.467184
      py      :     1.437749
      dz2     :     0.004740  d :     0.043539
      dxz     :     0.011228
      dyz     :     0.009320
      dx2y2   :     0.010858
      dxy     :     0.007393
      f0      :     0.000228  f :     0.002308
      f+1     :     0.000249
      f-1     :     0.000141
      f+2     :     0.000347
      f-2     :     0.000444
      f+3     :     0.000500
      f-3     :     0.000399
 15 C s       :     3.131326  s :     3.131326
      pz      :     1.015162  p :     2.764158
      px      :     1.001882
      py      :     0.747114
      dz2     :     0.020920  d :     0.118547
      dxz     :     0.028290
      dyz     :     0.017594
      dx2y2   :     0.023438
      dxy     :     0.028306
      f0      :     0.000669  f :     0.009339
      f+1     :     0.001054
      f-1     :     0.001387
      f+2     :     0.000925
      f-2     :     0.001436
      f+3     :     0.001665
      f-3     :     0.002203
 16 H s       :     0.903891  s :     0.903891
      pz      :     0.015187  p :     0.032581
      px      :     0.011450
      py      :     0.005945
      dz2     :     0.000588  d :     0.002111
      dxz     :     0.000649
      dyz     :     0.000478
      dx2y2   :     0.000123
      dxy     :     0.000274
 17 H s       :     0.879752  s :     0.879752
      pz      :     0.014169  p :     0.032657
      px      :     0.012353
      py      :     0.006134
      dz2     :     0.000521  d :     0.002118
      dxz     :     0.000561
      dyz     :     0.000323
      dx2y2   :     0.000289
      dxy     :     0.000422
 18 H s       :     0.844938  s :     0.844938
      pz      :     0.006110  p :     0.037072
      px      :     0.018634
      py      :     0.012329
      dz2     :     0.000221  d :     0.002192
      dxz     :     0.000344
      dyz     :     0.000305
      dx2y2   :     0.000701
      dxy     :     0.000621
 19 C s       :     3.085406  s :     3.085406
      pz      :     0.756808  p :     2.356811
      px      :     0.745962
      py      :     0.854041
      dz2     :     0.022267  d :     0.210035
      dxz     :     0.053576
      dyz     :     0.028486
      dx2y2   :     0.044531
      dxy     :     0.061176
      f0      :     0.001013  f :     0.017524
      f+1     :     0.003052
      f-1     :     0.001398
      f+2     :     0.002391
      f-2     :     0.002434
      f+3     :     0.003980
      f-3     :     0.003256
 20 O s       :     3.869189  s :     3.869189
      pz      :     1.578881  p :     4.667553
      px      :     1.363084
      py      :     1.725588
      dz2     :     0.004577  d :     0.033437
      dxz     :     0.008450
      dyz     :     0.003064
      dx2y2   :     0.009434
      dxy     :     0.007912
      f0      :     0.000171  f :     0.002011
      f+1     :     0.000345
      f-1     :     0.000073
      f+2     :     0.000272
      f-2     :     0.000295
      f+3     :     0.000448
      f-3     :     0.000407
 21 H s       :     0.922581  s :     0.922581
      pz      :     0.013297  p :     0.034254
      px      :     0.009350
      py      :     0.011607
      dz2     :     0.000297  d :     0.002241
      dxz     :     0.000630
      dyz     :     0.000481
      dx2y2   :     0.000499
      dxy     :     0.000335


                     *******************************
                     * LOEWDIN POPULATION ANALYSIS *
                     *******************************

----------------------
LOEWDIN ATOMIC CHARGES
----------------------
   0 C :    0.089761
   1 C :    0.034955
   2 C :    0.093358
   3 C :   -0.120828
   4 H :    0.024397
   5 H :    0.014036
   6 H :   -0.009125
   7 C :   -0.162789
   8 C :   -0.038459
   9 H :    0.010464
  10 H :    0.005594
  11 H :    0.021607
  12 H :    0.003944
  13 H :    0.001888
  14 O :    0.254744
  15 C :   -0.019201
  16 H :   -0.004930
  17 H :    0.005922
  18 H :    0.005285
  19 C :   -0.197813
  20 O :   -0.015000
  21 H :    0.002189

-------------------------------
LOEWDIN REDUCED ORBITAL CHARGES
-------------------------------
  0 C s       :     2.743026  s :     2.743026
      pz      :     0.952879  p :     2.767602
      px      :     0.871656
      py      :     0.943067
      dz2     :     0.068939  d :     0.367336
      dxz     :     0.076750
      dyz     :     0.080611
      dx2y2   :     0.043727
      dxy     :     0.097308
      f0      :     0.006676  f :     0.032275
      f+1     :     0.003286
      f-1     :     0.003727
      f+2     :     0.005157
      f-2     :     0.005713
      f+3     :     0.003906
      f-3     :     0.003811
  1 C s       :     2.736706  s :     2.736706
      pz      :     0.991085  p :     2.896725
      px      :     0.937799
      py      :     0.967841
      dz2     :     0.054518  d :     0.302043
      dxz     :     0.064999
      dyz     :     0.074533
      dx2y2   :     0.035379
      dxy     :     0.072614
      f0      :     0.003348  f :     0.029571
      f+1     :     0.004470
      f-1     :     0.004483
      f+2     :     0.003481
      f-2     :     0.005705
      f+3     :     0.003908
      f-3     :     0.004176
  2 C s       :     2.757246  s :     2.757246
      pz      :     0.946789  p :     2.833512
      px      :     0.979288
      py      :     0.907435
      dz2     :     0.064069  d :     0.287797
      dxz     :     0.068955
      dyz     :     0.033507
      dx2y2   :     0.042043
      dxy     :     0.079224
      f0      :     0.002179  f :     0.028086
      f+1     :     0.007053
      f-1     :     0.002327
      f+2     :     0.004361
      f-2     :     0.003793
      f+3     :     0.003978
      f-3     :     0.004397
  3 C s       :     2.739148  s :     2.739148
      pz      :     1.008319  p :     2.979946
      px      :     0.983489
      py      :     0.988138
      dz2     :     0.053271  d :     0.363465
      dxz     :     0.067011
      dyz     :     0.080673
      dx2y2   :     0.088565
      dxy     :     0.073945
      f0      :     0.004095  f :     0.038270
      f+1     :     0.004317
      f-1     :     0.005199
      f+2     :     0.007822
      f-2     :     0.005341
      f+3     :     0.005453
      f-3     :     0.006042
  4 H s       :     0.796678  s :     0.796678
      pz      :     0.046458  p :     0.151064
      px      :     0.053696
      py      :     0.050909
      dz2     :     0.005459  d :     0.027861
      dxz     :     0.006539
      dyz     :     0.005225
      dx2y2   :     0.004740
      dxy     :     0.005898
  5 H s       :     0.813614  s :     0.813614
      pz      :     0.042028  p :     0.145521
      px      :     0.044858
      py      :     0.058635
      dz2     :     0.004163  d :     0.026829
      dxz     :     0.003181
      dyz     :     0.006804
      dx2y2   :     0.005421
      dxy     :     0.007260
  6 H s       :     0.819877  s :     0.819877
      pz      :     0.053702  p :     0.161174
      px      :     0.066939
      py      :     0.040532
      dz2     :     0.004824  d :     0.028074
      dxz     :     0.007249
      dyz     :     0.002599
      dx2y2   :     0.006791
      dxy     :     0.006611
  7 C s       :     2.716931  s :     2.716931
      pz      :     0.958186  p :     2.650159
      px      :     0.810348
      py      :     0.881624
      dz2     :     0.150344  d :     0.694557
      dxz     :     0.172565
      dyz     :     0.126459
      dx2y2   :     0.142755
      dxy     :     0.102435
      f0      :     0.009291  f :     0.101142
      f+1     :     0.022500
      f-1     :     0.013542
      f+2     :     0.018824
      f-2     :     0.013468
      f+3     :     0.012629
      f-3     :     0.010888
  8 C s       :     2.721819  s :     2.721819
      pz      :     0.962328  p :     2.884141
      px      :     0.994229
      py      :     0.927584
      dz2     :     0.096297  d :     0.390998
      dxz     :     0.100579
      dyz     :     0.067923
      dx2y2   :     0.048394
      dxy     :     0.077804
      f0      :     0.006505  f :     0.041500
      f+1     :     0.010510
      f-1     :     0.004708
      f+2     :     0.006334
      f-2     :     0.004669
      f+3     :     0.004133
      f-3     :     0.004642
  9 H s       :     0.809427  s :     0.809427
      pz      :     0.065143  p :     0.151523
      px      :     0.045814
      py      :     0.040566
      dz2     :     0.008686  d :     0.028586
      dxz     :     0.007956
      dyz     :     0.007761
      dx2y2   :     0.001841
      dxy     :     0.002341
 10 H s       :     0.820212  s :     0.820212
      pz      :     0.066976  p :     0.147761
      px      :     0.035730
      py      :     0.045055
      dz2     :     0.008180  d :     0.026433
      dxz     :     0.006795
      dyz     :     0.007475
      dx2y2   :     0.002081
      dxy     :     0.001903
 11 H s       :     0.799108  s :     0.799108
      pz      :     0.041570  p :     0.151226
      px      :     0.048561
      py      :     0.061094
      dz2     :     0.004395  d :     0.028059
      dxz     :     0.004328
      dyz     :     0.005889
      dx2y2   :     0.007162
      dxy     :     0.006286
 12 H s       :     0.809185  s :     0.809185
      pz      :     0.049682  p :     0.157945
      px      :     0.054540
      py      :     0.053724
      dz2     :     0.005254  d :     0.028925
      dxz     :     0.004768
      dyz     :     0.006029
      dx2y2   :     0.006818
      dxy     :     0.006056
 13 H s       :     0.815015  s :     0.815015
      pz      :     0.045592  p :     0.155808
      px      :     0.050791
      py      :     0.059424
      dz2     :     0.003916  d :     0.027289
      dxz     :     0.003649
      dyz     :     0.005647
      dx2y2   :     0.007012
      dxy     :     0.007065
 14 O s       :     3.226915  s :     3.226915
      pz      :     1.574533  p :     4.404908
      px      :     1.426100
      py      :     1.404275
      dz2     :     0.014573  d :     0.107199
      dxz     :     0.021819
      dyz     :     0.018960
      dx2y2   :     0.025882
      dxy     :     0.025965
      f0      :     0.000416  f :     0.006235
      f+1     :     0.000922
      f-1     :     0.000626
      f+2     :     0.001231
      f-2     :     0.000962
      f+3     :     0.000946
      f-3     :     0.001132
 15 C s       :     2.721551  s :     2.721551
      pz      :     1.009390  p :     2.798110
      px      :     0.980337
      py      :     0.808383
      dz2     :     0.066927  d :     0.435581
      dxz     :     0.102063
      dyz     :     0.074825
      dx2y2   :     0.081967
      dxy     :     0.109799
      f0      :     0.005723  f :     0.063959
      f+1     :     0.005531
      f-1     :     0.010375
      f+2     :     0.008998
      f-2     :     0.008559
      f+3     :     0.010809
      f-3     :     0.013965
 16 H s       :     0.840008  s :     0.840008
      pz      :     0.063545  p :     0.137961
      px      :     0.046639
      py      :     0.027776
      dz2     :     0.009389  d :     0.026962
      dxz     :     0.008064
      dyz     :     0.004814
      dx2y2   :     0.002022
      dxy     :     0.002672
 17 H s       :     0.830480  s :     0.830480
      pz      :     0.054484  p :     0.136165
      px      :     0.050879
      py      :     0.030802
      dz2     :     0.007078  d :     0.027432
      dxz     :     0.007270
      dyz     :     0.004822
      dx2y2   :     0.004142
      dxy     :     0.004120
 18 H s       :     0.814456  s :     0.814456
      pz      :     0.036418  p :     0.152563
      px      :     0.066136
      py      :     0.050009
      dz2     :     0.002632  d :     0.027696
      dxz     :     0.005658
      dyz     :     0.004319
      dx2y2   :     0.007267
      dxy     :     0.007820
 19 C s       :     2.766780  s :     2.766780
      pz      :     0.789532  p :     2.614753
      px      :     0.889405
      py      :     0.935816
      dz2     :     0.075090  d :     0.713630
      dxz     :     0.161926
      dyz     :     0.098929
      dx2y2   :     0.174224
      dxy     :     0.203460
      f0      :     0.006184  f :     0.102651
      f+1     :     0.017022
      f-1     :     0.007690
      f+2     :     0.017628
      f-2     :     0.010203
      f+3     :     0.022576
      f-3     :     0.021347
 20 O s       :     3.403302  s :     3.403302
      pz      :     1.491823  p :     4.540337
      px      :     1.453867
      py      :     1.594648
      dz2     :     0.008313  d :     0.066060
      dxz     :     0.017331
      dyz     :     0.003936
      dx2y2   :     0.017138
      dxy     :     0.019341
      f0      :     0.000477  f :     0.005301
      f+1     :     0.000758
      f-1     :     0.000173
      f+2     :     0.000898
      f-2     :     0.000650
      f+3     :     0.001098
      f-3     :     0.001247
 21 H s       :     0.848561  s :     0.848561
      pz      :     0.047883  p :     0.125696
      px      :     0.036384
      py      :     0.041428
      dz2     :     0.003931  d :     0.023554
      dxz     :     0.005604
      dyz     :     0.005721
      dx2y2   :     0.004395
      dxy     :     0.003903


                      *****************************
                      * MAYER POPULATION ANALYSIS *
                      *****************************

  NA   - Mulliken gross atomic population
  ZA   - Total nuclear charge
  QA   - Mulliken gross atomic charge
  VA   - Mayer's total valence
  BVA  - Mayer's bonded valence
  FA   - Mayer's free valence

  ATOM       NA         ZA         QA         VA         BVA        FA
  0 C      6.0546     6.0000    -0.0546     3.8813     3.8813     0.0000
  1 C      6.2336     6.0000    -0.2336     3.8543     3.8543     0.0000
  2 C      6.1462     6.0000    -0.1462     3.9618     3.9618    -0.0000
  3 C      6.2733     6.0000    -0.2733     3.6363     3.6363    -0.0000
  4 H      0.8701     1.0000     0.1299     1.0035     1.0035     0.0000
  5 H      0.8845     1.0000     0.1155     0.9958     0.9958     0.0000
  6 H      0.9173     1.0000     0.0827     1.0178     1.0178     0.0000
  7 C      5.6363     6.0000     0.3637     3.8229     3.8229    -0.0000
  8 C      6.1357     6.0000    -0.1357     3.8463     3.8463     0.0000
  9 H      0.8853     1.0000     0.1147     1.0186     1.0186     0.0000
 10 H      0.9006     1.0000     0.0994     1.0062     1.0062    -0.0000
 11 H      0.9146     1.0000     0.0854     1.0165     1.0165     0.0000
 12 H      0.8982     1.0000     0.1018     1.0123     1.0123    -0.0000
 13 H      0.9177     1.0000     0.0823     1.0110     1.0110    -0.0000
 14 O      8.3704     8.0000    -0.3704     1.9701     1.9701    -0.0000
 15 C      6.0234     6.0000    -0.0234     3.8428     3.8428     0.0000
 16 H      0.9386     1.0000     0.0614     0.9870     0.9870     0.0000
 17 H      0.9145     1.0000     0.0855     1.0010     1.0010     0.0000
 18 H      0.8842     1.0000     0.1158     1.0008     1.0008     0.0000
 19 C      5.6698     6.0000     0.3302     4.0363     4.0363     0.0000
 20 O      8.5722     8.0000    -0.5722     1.8652     1.8652     0.0000
 21 H      0.9591     1.0000     0.0409     1.0032     1.0032     0.0000

  Mayer bond orders larger than 0.100000
B(  0-C ,  1-C ) :   0.3744 B(  0-C ,  3-C ) :   1.4320 B(  0-C ,  4-H ) :   0.9883 
B(  0-C ,  5-H ) :   1.0026 B(  1-C ,  7-C ) :   1.4240 B(  1-C ,  9-H ) :   0.9973 
B(  1-C , 12-H ) :   1.0215 B(  2-C ,  3-C ) :   0.1092 B(  2-C ,  8-C ) :   1.7285 
B(  2-C , 10-H ) :   1.0037 B(  2-C , 13-H ) :   1.0190 B(  3-C ,  6-H ) :   1.0134 
B(  3-C , 19-C ) :   1.1667 B(  7-C ,  8-C ) :   1.1476 B(  7-C , 14-O ) :   1.1102 
B(  8-C , 11-H ) :   1.0040 B( 14-O , 15-C ) :   0.8611 B( 15-C , 16-H ) :   1.0033 
B( 15-C , 17-H ) :   1.0042 B( 15-C , 18-H ) :   0.9831 B( 19-C , 20-O ) :   1.7718 
B( 19-C , 21-H ) :   1.0507 

-------
TIMINGS
-------

Total SCF time: 0 days 0 hours 1 min 10 sec 

Total time                  ....      70.989 sec
Sum of individual times     ....      70.261 sec  ( 99.0%)

Fock matrix formation       ....      67.344 sec  ( 94.9%)
Diagonalization             ....       0.449 sec  (  0.6%)
Density matrix formation    ....       0.070 sec  (  0.1%)
Population analysis         ....       0.040 sec  (  0.1%)
Initial guess               ....       1.135 sec  (  1.6%)
Orbital Transformation      ....       0.000 sec  (  0.0%)
Orbital Orthonormalization  ....       0.000 sec  (  0.0%)
DIIS solution               ....       0.794 sec  (  1.1%)
SOSCF solution              ....       0.350 sec  (  0.5%)

Maximum memory used throughout the entire SCF-calculation: 247.2 MB


           ************************************************************
           *        Program running with 16 parallel MPI-processes    *
           *              working on a common directory               *
           ************************************************************


--------------------------------------------------------------------------------
                             ORCA-MATRIX DRIVEN CI
--------------------------------------------------------------------------------


Wavefunction type
-----------------
Correlation treatment                      ...      CCSD     
Single excitations                         ... ON
Orbital optimization                       ... OFF
Calculation of Z vector                    ... OFF
Calculation of Brueckner orbitals          ... OFF
Perturbative triple excitations            ... ON
Calculation of F12 correction              ... OFF
Frozen core treatment                      ... chemical core (20 el)
Reference Wavefunction                     ... RHF
  Internal Orbitals:    10 ...   37 ( 28 MO's/ 56 electrons)
  Virtual  Orbitals:    38 ...  477 (440 MO's              )
Number of AO's                             ...    478
Number of electrons                        ...     76
Number of correlated electrons             ...     56

Algorithmic settings
--------------------
Integral transformation                    ... All integrals via the RI transformation
K(C) Formation                             ... RI-DLPNO
   PNO-Integral Storage                    ... ON DISK
   PNO occupation number cut-off           ... 3.330e-07
   Singles PNO occupation number cut-off   ... 9.990e-09
   PNO Mulliken prescreening cut-off       ... 1.000e-03
   Domain cut-off (Mulliken population)    ... 1.000e-03
   PNO Normalization                       ...    1
Maximum number of iterations               ...        50
Convergence tolerance (max. residuum)      ... 2.500e-05
Level shift for amplitude update           ... 2.000e-01
Maximum number of DIIS vectors             ...         7
DIIS turned on at iteration                ...         0
Damping before turning on DIIS             ...     0.500
[...]
Spin component scaling                      .... not used

   .... Finished loop over pairs
Making pair pair interaction lists          ... done

                       ===========================
                        292 OF  406 PAIRS ARE KEPT CCSD PAIRS
                        109 OF  406 PAIRS ARE KEPT MP2 PAIRS FOR (T)
                          5 OF  406 PAIRS ARE SKIPPED
                       ===========================

Total time spent in the initial guess                 ...     2.215 sec
SL-MP2 correlation energy (all non-screened pairs)    ...      -1.741666346890 Eh

Initial PNO correlation energy                        ...      -1.731222909138 Eh
sum of pair energies prescreened and skipped MP2 pairs...      -0.000039932162 Eh
sum of pair energies of crude MP2 skipped pairs only  ...      -0.000039932162 Eh
sum of MP2 pair energies for pairs that were not kept ...      -0.005212767404 Eh
sum of PNO error estimates for the kept pairs         ...      -0.005230670348 Eh
                                                          --------------------
sum of all corrections                                         -0.010443437751
Initial total correlation energy                               -1.741666346890
Thresholds for map construction and integral transformation for fine MP2 and CCSD(T) calculation:
   TCutMKN   ...     1.0e-03
   TCutDO    ...     1.0e-02
   TCutPairs ...     1.0e-04
   TCutCMO   ...     1.0e-03
   TCutCPAO  ...     1.0e-03

Thresholds for map construction and integral transformation for strong Triples:
   TCutMKN   ...     1.0e-02
   TCutDO    ...     2.0e-02
   TCutCMO   ...     1.0e-03
   TCutCPAO  ...     1.0e-03

Thresholds for map construction and integral transformation for weak Triples:
   TCutMKN   ...     1.0e-01
   TCutDO    ...     4.0e-02
   TCutCMO   ...     1.0e-03
   TCutCPAO  ...     1.0e-03

--------------------------------
LOCAL RI TRANSFORMATION (IAVPAO)
--------------------------------

Orbital window:      10 to 37
Number of PAOs:     478
Basis functions:    478 (182 shells)
Aux. functions:    1120 (340 shells)
Use SHARK:           on

Processing maps (0.0 sec)
Average map sizes:
   Aux shells -> MOs              28.0
   Aux shells -> PAOs            478.0
   MOs        -> AO shells       179.2
   PAOs       -> AO shells       182.0

Calculating integrals (0.5 sec, 114.378 MB)
Sorting integrals (0.1 sec, 114.366 MB)
Total time for the integral transformation: 0.6 sec
--------------------------------
INITIAL GUESS AND PNO GENERATION
--------------------------------

PNO truncation parameters                   .... 
    PAOOverlapThresh   =        1.000e-08

    TCutPairs          =        1.000e-04
    TCutPNO            =        3.330e-07
    TCutPNOSingles     =        9.990e-09
    TCutMP2Pairs       =        1.000e-05
    TCutMKN            =        1.000e-03
    TCutDO             =        1.000e-02

Pair selection                          .... not used
Type of local MP2 treatment                 .... semi-local MP2
Strategy for PNO selection                  .... occupation number selection
Pair density normalization                  .... MP2 norm
Spin component scaling                      .... not used

   .... Finished loop over pairs

 PNO Occupation Number Statistics: 
  | Av. % of trace(Dij) retained        ...  97.852189112198
  | sigma^2 in % of trace(Dij) retained ...   4.65e+00
  | Av. % of trace(Di) retained         ...  99.999019101902
  | sigma^2 in % of trace(Di) retained  ...   1.62e-07
 Distributions of % trace(Dij) recovered:
  |       >= 99.9  ...    79 ( 19.7 % of all pairs)
  |   [80.0, 90.0) ...     1 (  0.2 % of all pairs)
  |   [90.0, 99.0) ...   231 ( 57.6 % of all pairs)
  |   [99.0, 99.9) ...    90 ( 22.4 % of all pairs)
 Distributions of % trace(Di) recovered :
  |       >= 99.9  ...    28 (100.0 % of all I-pairs )

Making pair pair interaction lists          ... done

                       ===========================
                        292 OF  401 PAIRS ARE KEPT
                       ===========================

Total time spent in the initial guess                 ...     4.061 sec
SL-MP2 correlation energy (all non-screened pairs)    ...      -1.742862529359 Eh

Initial PNO correlation energy                        ...      -1.732396570181 Eh
sum of pair energies estimated for screened out pairs ...      -0.000039932162 Eh
sum of MP2 pair energies for pairs that were not kept ...      -0.005179154029 Eh
sum of PNO error estimates for the kept pairs         ...      -0.005286805148 Eh
                                                          --------------------
sum of all corrections                                         -0.010505891340
Initial total correlation energy                               -1.742902461521
Thresholds for map construction and integral transformation for fine MP2 and CCSD(T) calculation:
   TCutMKN   ...     1.0e-03
   TCutDO    ...     1.0e-02
   TCutPairs ...     1.0e-04
   TCutCMO   ...     1.0e-03
   TCutCPAO  ...     1.0e-03

Time for aux screen maps:            0.003
Time for maps after fine MP2:            0.013
-----------------------------
LOCAL RI TRANSFORMATION (IJV)
-----------------------------

Orbital window:      10 to 37
Basis functions:    478 (182 shells)
Aux. functions:    1120 (340 shells)
Use SHARK:           on

Processing maps (0.0 sec)
Average map sizes:
   Aux shells -> MOs(i)           27.9
   Aux shells -> MOs(j)           28.0
   MOs        -> AO shells       179.2

Calculating integrals (0.4 sec, 6.680 MB)
Sorting integrals (0.0 sec, 6.667 MB)
Total time for the integral transformation: 0.4 sec
--------------------------------
LOCAL RI TRANSFORMATION (VABPAO)
--------------------------------

Number of PAOs:     478
Basis functions:    478 (182 shells)
Aux. functions:    1120 (340 shells)
Use SHARK:           on

Processing maps (0.0 sec)
Average map sizes:
   Aux shells -> PAOs            478.0
   PAOs       -> AO shells       182.0

Calculating integrals (1.4 sec, 1952.391 MB)
Finished


-------------------------------------
Pair Pair Term precalculation with     
RI-(ij|mn) and (im|jn) transformation  
ON THE FLY                             
-------------------------------------

   IBatch   1 (of   2)              ... done (   34.413 sec)
   IBatch   2 (of   2)              ... done (   26.586 sec)
Total EXT                           ...          60.999 sec

---------------------
RI-PNO TRANSFORMATION
---------------------

Total Number of PNOs                   ...  9521
Average number of PNOs per pair        ...    32
Maximal number of PNOs per pair        ...    79
   #pairs with  1 -  5 PNOs   :    0
   #pairs with  6 - 10 PNOs   :    7
   #pairs with 11 - 15 PNOs   :   32
   #pairs with 16 - 20 PNOs   :   42
   #pairs with 21 - 25 PNOs   :   27
   #pairs with 26 - 30 PNOs   :   32
   #pairs with 31 - 35 PNOs   :   33
   #pairs with 36 - 40 PNOs   :   26
   #pairs with 41 - 45 PNOs   :   27
   #pairs with 46 - 50 PNOs   :   26
   #pairs with 51 - 55 PNOs   :   21
   #pairs with 56 - 60 PNOs   :    9
   #pairs with 61 - 65 PNOs   :    4
   #pairs with 66 - 70 PNOs   :    2
   #pairs with 71 - 75 PNOs   :    3
   #pairs with 76 - 80 PNOs   :    1

Generation of (ij|ab)[P] integrals            ... on
Generation of (ia|bc)[P],(ja|bc)[P] integrals ... on
Storage of 3 and 4 external integrals         ... on
Generation of ALL (ka|bc)[P] integrals        ... on
Keep RI integrals in memory                   ... off

Ibatch:  1 (of  1)
Starting 2-4 index PNO integral generation ... done

Timings:
Total PNO integral transformation time     ...         21.842 sec
Size of the 3-external file                ...       131 MB
Size of the 4-external file                ...       826 MB
Size of the IKJL file                      ...         0 MB
Size of the all 3-external file            ...      1839 MB
Size of the 1-external file                ...         6 MB

Making pair/pair overlap matrices          ... done (    2.397 sec)
Size of the pair overlap file              ... 526 MB
Redoing the guess amplitudes               ... done (    0.003 sec)

-------------------------
FINAL STARTUP INFORMATION
-------------------------

E(0)                                       ...   -459.684471203
E(SL-MP2)                                  ...     -1.742862529
E(SL-MP2) including corrections            ...     -1.742902462
Initial E(tot)                             ...   -461.427373664
<T|T>                                      ...      0.500187613
Number of pairs included                   ... 292
Total number of pairs                      ... 406

------------------------------------------------
                  RHF COUPLED CLUSTER ITERATIONS
------------------------------------------------

Number of PNO amplitudes to be optimized   ...       374877
Number of non-PNO amplitudes               ...     56531200
Untruncated number of regular amplitudes   ...     78601600

Iter       E(tot)           E(Corr)          Delta-E          Residual     Time
  0   -461.427453895     -1.732476801      0.010385728      0.019686998    5.10
                           *** Turning on DIIS ***
  1   -461.484167911     -1.789190817     -0.056714016      0.011411408    5.11
  2   -461.530115241     -1.835138147     -0.045947330      0.005562943    5.10
  3   -461.539178178     -1.844201084     -0.009062937      0.003753684    5.14
  4   -461.542198262     -1.847221168     -0.003020084      0.001957126    5.13
  5   -461.543374391     -1.848397297     -0.001176129      0.001249653    5.34
  6   -461.543737889     -1.848760795     -0.000363498      0.000730827    5.20
  7   -461.543815719     -1.848838625     -0.000077830      0.000438334    5.13
  8   -461.543869267     -1.848892173     -0.000053549      0.000210212    5.20
  9   -461.543856889     -1.848879795      0.000012378      0.000098594    5.18
 10   -461.543874039     -1.848896945     -0.000017150      0.000044934    5.17
 11   -461.543871671     -1.848894577      0.000002368      0.000020023    5.30
               --- The Coupled-Cluster iterations have converged ---

----------------------
COUPLED CLUSTER ENERGY
----------------------

E(0)                                       ...   -459.684471203
E(CORR)(strong-pairs)                      ...     -1.848894577
E(CORR)(weak-pairs)                        ...     -0.010505891
E(CORR)(corrected)                         ...     -1.859400468
E(TOT)                                     ...   -461.543871671
Singles Norm <S|S>**1/2                    ...      0.108059577  
T1 diagnostic                              ...      0.014440068  

------------------
LARGEST AMPLITUDES
------------------
  30-> 38  30-> 38       0.049776
  36-> 38  36-> 38       0.048580
  35-> 38  35-> 38       0.048187
  14-> 38  14-> 38       0.047177
  18-> 38  18-> 38       0.046975
  29-> 39  29-> 39       0.040268
  20-> 38  20-> 38       0.039683
  36-> 38  35-> 38       0.037533
  21-> 38  21-> 38       0.036372
  18-> 39  18-> 39       0.035729
  14-> 38  -1-> -1       0.034880
  32-> 41  32-> 41       0.034170
  35-> 38  -1-> -1       0.032354
  22-> 42  22-> 42       0.032350
  21-> 38  20-> 38       0.032101
  37-> 42  37-> 42       0.031914


-------------------------------------------
DLPNO BASED TRIPLES CORRECTION
-------------------------------------------

Singles multiplier          ...  1.000000
TCutTNO                     ... 1.000e-09
TCutMP2Pairs                ... 1.000e-05
TCutDOStrong                ... 2.000e-02
TCutMKNStrong               ... 1.000e-02
TCutDOWeak                  ... 4.000e-02
TCutMKNWeak                 ... 1.000e-01

Fragment selection                          .... not used
Number of Triples that are to be computed   ...      2870

 . . . . . . . . .
10% done  
20% done  
30% done  
40% done  
50% done  
60% done  
70% done  
80% done  
90% done               (    110.753 sec)
Triples timings:
Total time for T0               ...   120.661 sec
Total time for Iterative (T)    ...     0.000 sec
Total time of overall (T)       ...   124.995 sec

Triples List generation         ...     0.000 sec
TNO generation                  ...     9.897 sec
Pair density generation         ...     0.005 sec
Look up tables                  ...     0.000 sec
Generating 3-index integrals    ...    76.720 sec
  Make 4-ind.int. from 3-ind.int...     7.970 sec
  Projecting amplitudes (D + S) ...    14.795 sec
  Downprojecting integrals      ...     0.001 sec
  Energy contr. (sum over a,b,c)...     3.290 sec
Fitting ET(->0)                 ...     0.000 sec

Everything after 3-index        ...    34.033 sec

Timing details:
 TNO integrals                  ...    84.133 sec
   Reading 3-index integrals    ...     0.362 sec
   Sorting integrals            ...     9.134 sec
       Sorting integrals 1      ...     0.001 sec
       Sorting integrals 2      ...     7.149 sec
       Sorting integrals 3      ...     0.318 sec
       Sorting integrals 4      ...     0.026 sec
       Sorting integrals 5      ...     0.091 sec
       Sorting integrals 6      ...     1.549 sec
   Calculating local VM**-1/2   ...     0.365 sec
   Orthogonal. integrals        ...     0.747 sec
   Multipl. 3-index integrals   ...    73.526 sec
   All concerning IRIab (w/TNO) ...     4.971 sec

 Calculate W0/W1                ...     7.966 sec
 W 3-ext contribution           ...     4.752 sec
 W 3-int contribution           ...     1.465 sec
 Sorting W                      ...     1.598 sec

 V exchange contribution        ...     1.492 sec

 Timings for Triples without generation
     of 3-index integrals       ...    34.030 sec
       0 weak pairs             ...    27.547 sec
       1 weak pair              ...     6.484 sec
       2 weak pairs             ...     0.000 sec
       3 weak pairs             ...     0.000 sec
  Extra time for extrapolation  ...     0.000 sec

Number of Triples   (0, 1, 2, 3 weak pairs; overall):   1836    1034       0       0  (  2870)
Number of Atoms     (0, 1, 2, 3 weak pairs; overall):   16.1    13.0     0.0     0.0  (    22)
Number of PAOs      (0, 1, 2, 3 weak pairs; overall):  377.0   311.7     0.0     0.0  (   478)
Number of AuxFcns   (0, 1, 2, 3 weak pairs; overall):  440.9   347.8     0.0     0.0  (  1120)
Number of TNOs      (0, 1, 2, 3 weak pairs         ):   88.3    62.2     0.0     0.0
Aver. Number of NTNO, Atoms, PAOs, AuxFcns / Triples:   2870    78.9    15.0   353.5   407.4

Triples Correction (T)                     ...     -0.085026877
Final correlation energy                   ...     -1.944427346
E(CCSD)                                    ...   -461.543871671
E(CCSD(T))                                 ...   -461.628898548



--------------------------------------------------------------------------------
                                    TIMINGS
--------------------------------------------------------------------------------


Total execution time                   ...      292.465 sec

Localization of occupied MO's          ...        0.493 sec (  0.2%)
Fock Matrix Formation                  ...        8.508 sec (  2.9%)
Global overlap, Fock, MKN matrices     ...        0.437 sec (  0.1%)
Differential overlap integrals         ...        0.576 sec (  0.2%)
Organizing maps                        ...        0.042 sec (  0.0%)
RI 3-index integral generations        ...        3.033 sec (  1.0%)
RI-PNO integral transformation         ...       85.407 sec ( 29.2%)
Initial Guess                          ...        6.329 sec (  2.2%)
DIIS Solver                            ...        0.284 sec (  0.1%)
State Vector Update                    ...        0.018 sec (  0.0%)
Sigma-vector construction              ...       61.800 sec ( 21.1%)
  <D|H|D>(0-ext)                       ...        2.017 sec (  3.3% of sigma)
  <D|H|D>(2-ext Fock)                  ...        0.010 sec (  0.0% of sigma)
  <D|H|D>(2-ext)                       ...       11.759 sec ( 19.0% of sigma)
  <D|H|D>(4-ext)                       ...        6.715 sec ( 10.9% of sigma)
  <D|H|D>(4-ext-corr)                  ...       28.500 sec ( 46.1% of sigma)
  CCSD doubles correction              ...        0.110 sec (  0.2% of sigma)
  <S|H|S>                              ...        0.396 sec (  0.6% of sigma)
  <S|H|D>(1-ext)                       ...        0.289 sec (  0.5% of sigma)
  <D|H|S>(1-ext)                       ...        0.006 sec (  0.0% of sigma)
  <S|H|D>(3-ext)                       ...        0.108 sec (  0.2% of sigma)
  Fock-dressing                        ...        6.097 sec (  9.9% of sigma)
  Singles amplitudes                   ...        0.684 sec (  1.1% of sigma)
  (ik|jl)-dressing                     ...        1.569 sec (  2.5% of sigma)
  (ij|ab),(ia|jb)-dressing             ...        1.536 sec (  2.5% of sigma)
  Pair energies                        ...        0.048 sec (  0.1% of sigma)
Total Time for computing (T)           ...      125.106 sec ( 42.8% of ALL)


Maximum memory used throughout the entire MDCI-calculation: 3956.2 MB

-------------------------   --------------------
FINAL SINGLE POINT ENERGY      -461.628898548266
-------------------------   --------------------


                            ***************************************
                            *     ORCA property calculations      *
                            ***************************************


  WARNING: The energy has been calculated at the MDCI level but the densities
           used in the property calculations are still SCF densities
           MDCI response densities have not been calculated 
           use %mdci Density linearized end
           or  %mdci Density unrelaxed end
           or  %mdci Density orbopt end

                                    ---------------------
                                    Active property flags
                                    ---------------------
   (+) Dipole Moment


------------------------------------------------------------------------------
                       ORCA ELECTRIC PROPERTIES CALCULATION
------------------------------------------------------------------------------

Dipole Moment Calculation                       ... on
Quadrupole Moment Calculation                   ... off
Polarizability Calculation                      ... off
GBWName                                         ... /tmp/43003/DATS_14_endo_i_DLPNO.gbw
Electron density                                ... /tmp/43003/DATS_14_endo_i_DLPNO.scfp
The origin for moment calculation is the CENTER OF MASS  = ( 0.013683,  0.024141 -0.022169)

-------------
DIPOLE MOMENT
-------------
                                X             Y             Z
Electronic contribution:      0.88957       1.00764      -1.02197
Nuclear contribution   :     -1.03993      -1.83472       1.68482
                        -----------------------------------------
Total Dipole Moment    :     -0.15036      -0.82708       0.66285
                        -----------------------------------------
Magnitude (a.u.)       :      1.07053
Magnitude (Debye)      :      2.72108



--------------------
Rotational spectrum 
--------------------
 
Rotational constants in cm-1:     0.056811     0.038433     0.035482 
Rotational constants in MHz :  1703.165159  1152.184516  1063.716395 

 Dipole components along the rotational axes: 
x,y,z [a.u.] :    -0.080109    -0.913002     0.553221 
x,y,z [Debye]:    -0.203620    -2.320668     1.406175 

 

Timings for individual modules:

Sum of individual times         ...      365.836 sec (=   6.097 min)
GTO integral calculation        ...        0.740 sec (=   0.012 min)   0.2 %
SCF iterations                  ...       71.413 sec (=   1.190 min)  19.5 %
MDCI module                     ...      293.683 sec (=   4.895 min)  80.3 %
                             ****ORCA TERMINATED NORMALLY****
TOTAL RUN TIME: 0 days 0 hours 6 minutes 6 seconds 380 msec
