Job Start Time: Fri Jun 24 12:50:20 MDT 2022
SLURM Job ID: 42997
SLURM Job Name: DATS_13_endo_iii_DLPNO
SLURM Job Nodes: node10
SLURM Memory / CPU: 8000

                                 *****************
                                 * O   R   C   A *
                                 *****************

                                            #,                                       
                                            ###                                      
                                            ####                                     
                                            #####                                    
                                            ######                                   
                                           ########,                                 
                                     ,,################,,,,,                         
                               ,,#################################,,                 
                          ,,##########################################,,             
                       ,#########################################, ''#####,          
                    ,#############################################,,   '####,        
                  ,##################################################,,,,####,       
                ,###########''''           ''''###############################       
              ,#####''   ,,,,##########,,,,          '''####'''          '####       
            ,##' ,,,,###########################,,,                        '##       
           ' ,,###''''                  '''############,,,                           
         ,,##''                                '''############,,,,        ,,,,,,###''
      ,#''                                            '''#######################'''  
     '                                                          ''''####''''         
             ,#######,   #######,   ,#######,      ##                                
            ,#'     '#,  ##    ##  ,#'     '#,    #''#        ######   ,####,        
            ##       ##  ##   ,#'  ##            #'  '#       #        #'  '#        
            ##       ##  #######   ##           ,######,      #####,   #    #        
            '#,     ,#'  ##    ##  '#,     ,#' ,#      #,         ##   #,  ,#        
             '#######'   ##     ##  '#######'  #'      '#     #####' # '####'        



                  #######################################################
                  #                        -***-                        #
                  #          Department of theory and spectroscopy      #
                  #    Directorship and core code : Frank Neese         #
                  #        Max Planck Institute fuer Kohlenforschung    #
                  #                Kaiser Wilhelm Platz 1               #
                  #                 D-45470 Muelheim/Ruhr               #
                  #                      Germany                        #
                  #                                                     #
                  #                  All rights reserved                #
                  #                        -***-                        #
                  #######################################################


                         Program Version 5.0.3 -  RELEASE  -


 With contributions from (in alphabetic order):
   Daniel Aravena         : Magnetic Suceptibility
   Michael Atanasov       : Ab Initio Ligand Field Theory (pilot matlab implementation)
   Alexander A. Auer      : GIAO ZORA, VPT2 properties, NMR spectrum
   Ute Becker             : Parallelization
   Giovanni Bistoni       : ED, misc. LED, open-shell LED, HFLD
   Martin Brehm           : Molecular dynamics
   Dmytro Bykov           : SCF Hessian
   Vijay G. Chilkuri      : MRCI spin determinant printing, contributions to CSF-ICE
   Dipayan Datta          : RHF DLPNO-CCSD density
   Achintya Kumar Dutta   : EOM-CC, STEOM-CC
   Dmitry Ganyushin       : Spin-Orbit,Spin-Spin,Magnetic field MRCI
   Miquel Garcia          : C-PCM and meta-GGA Hessian, CC/C-PCM, Gaussian charge scheme
   Yang Guo               : DLPNO-NEVPT2, F12-NEVPT2, CIM, IAO-localization
   Andreas Hansen         : Spin unrestricted coupled pair/coupled cluster methods
   Benjamin Helmich-Paris : MC-RPA, TRAH-SCF, COSX integrals
   Lee Huntington         : MR-EOM, pCC
   Robert Izsak           : Overlap fitted RIJCOSX, COSX-SCS-MP3, EOM
   Marcus Kettner         : VPT2
   Christian Kollmar      : KDIIS, OOCD, Brueckner-CCSD(T), CCSD density, CASPT2, CASPT2-K
   Simone Kossmann        : Meta GGA functionals, TD-DFT gradient, OOMP2, MP2 Hessian
   Martin Krupicka        : Initial AUTO-CI
   Lucas Lang             : DCDCAS
   Marvin Lechner         : AUTO-CI (C++ implementation), FIC-MRCC
   Dagmar Lenk            : GEPOL surface, SMD
   Dimitrios Liakos       : Extrapolation schemes; Compound Job, initial MDCI parallelization
   Dimitrios Manganas     : Further ROCIS development; embedding schemes
   Dimitrios Pantazis     : SARC Basis sets
   Anastasios Papadopoulos: AUTO-CI, single reference methods and gradients
   Taras Petrenko         : DFT Hessian,TD-DFT gradient, ASA, ECA, R-Raman, ABS, FL, XAS/XES, NRVS
   Peter Pinski           : DLPNO-MP2, DLPNO-MP2 Gradient
   Christoph Reimann      : Effective Core Potentials
   Marius Retegan         : Local ZFS, SOC
   Christoph Riplinger    : Optimizer, TS searches, QM/MM, DLPNO-CCSD(T), (RO)-DLPNO pert. Triples
   Tobias Risthaus        : Range-separated hybrids, TD-DFT gradient, RPA, STAB
   Michael Roemelt        : Original ROCIS implementation
   Masaaki Saitow         : Open-shell DLPNO-CCSD energy and density
   Barbara Sandhoefer     : DKH picture change effects
   Avijit Sen             : IP-ROCIS
   Kantharuban Sivalingam : CASSCF convergence, NEVPT2, FIC-MRCI
   Bernardo de Souza      : ESD, SOC TD-DFT
   Georgi Stoychev        : AutoAux, RI-MP2 NMR, DLPNO-MP2 response
   Willem Van den Heuvel  : Paramagnetic NMR
   Boris Wezisla          : Elementary symmetry handling
   Frank Wennmohs         : Technical directorship


 We gratefully acknowledge several colleagues who have allowed us to
 interface, adapt or use parts of their codes:
   Stefan Grimme, W. Hujo, H. Kruse, P. Pracht,  : VdW corrections, initial TS optimization,
                  C. Bannwarth, S. Ehlert          DFT functionals, gCP, sTDA/sTD-DF
   Ed Valeev, F. Pavosevic, A. Kumar             : LibInt (2-el integral package), F12 methods
   Garnet Chan, S. Sharma, J. Yang, R. Olivares  : DMRG
   Ulf Ekstrom                                   : XCFun DFT Library
   Mihaly Kallay                                 : mrcc  (arbitrary order and MRCC methods)
   Jiri Pittner, Ondrej Demel                    : Mk-CCSD
   Frank Weinhold                                : gennbo (NPA and NBO analysis)
   Christopher J. Cramer and Donald G. Truhlar   : smd solvation model
   Lars Goerigk                                  : TD-DFT with DH, B97 family of functionals
   V. Asgeirsson, H. Jonsson                     : NEB implementation
   FAccTs GmbH                                   : IRC, NEB, NEB-TS, DLPNO-Multilevel, CI-OPT
                                                   MM, QMMM, 2- and 3-layer-ONIOM, Crystal-QMMM,
                                                   LR-CPCM, SF, NACMEs, symmetry and pop. for TD-DFT,
                                                   nearIR, NL-DFT gradient (VV10), updates on ESD,
                                                   ML-optimized integration grids
   S Lehtola, MJT Oliveira, MAL Marques          : LibXC Library
   Liviu Ungur et al                             : ANISO software


 Your calculation uses the libint2 library for the computation of 2-el integrals
 For citations please refer to: http://libint.valeyev.net

 Your ORCA version has been built with support for libXC version: 5.1.0
 For citations please refer to: https://tddft.org/programs/libxc/

 This ORCA versions uses:
   CBLAS   interface :  Fast vector & matrix operations
   LAPACKE interface :  Fast linear algebra routines
   SCALAPACK package :  Parallel linear algebra routines
   Shared memory     :  Shared parallel matrices
   BLAS/LAPACK       :  OpenBLAS 0.3.15  USE64BITINT DYNAMIC_ARCH NO_AFFINITY Zen SINGLE_THREADED
        Core in use  :  Zen
   Copyright (c) 2011-2014, The OpenBLAS Project


================================================================================

----- Orbital basis set information -----
Your calculation utilizes the basis: def2-TZVPP
   F. Weigend and R. Ahlrichs, Phys. Chem. Chem. Phys. 7, 3297 (2005).

----- AuxC basis set information -----
Your calculation utilizes the auxiliary basis: def2-TZVPP/C
  H-La, Hf-Rn : A. Hellweg, C. Hattig, S. Hofener and W. Klopper, Theor. Chem. Acc. 117, 587 (2007).
        Ce-Lu : J. Chmela and M. E. Harding, Mol. Phys. (2018).

================================================================================
                                        WARNINGS
                       Please study these warnings very carefully!
================================================================================


WARNING: Post HF methods need fully converged wavefunctions
  ===> : Setting SCFConvForced true
         You can overwrite this default with %scf ConvForced false 


WARNING: MDCI localization with Augmented Hessian Foster-Boys
  ===> : Switching off randomization!

INFO   : the flag for use of the SHARK integral package has been found!

================================================================================
                                       INPUT FILE
================================================================================
NAME = /tmp/42997/DATS_13_endo_iii_DLPNO.inp
|  1> # DATS_13_endo_iii_DLPNO
|  2> %maxcore 4000
|  3> %pal nprocs 16 end
|  4> ! pal16 DLPNO-CCSD(T) def2-tzvpp def2-tzvpp/C
|  5> 
|  6> * xyz 0 1
|  7>  C   1.59241900   1.38589700  -0.72605400
|  8>  C  -0.25736100   2.30720600   0.02492900
|  9>  C   0.02382800  -0.10437100   1.50130400
| 10>  C   1.87377400   0.26925000   0.03470700
| 11>  H   1.19423500   1.25507000  -1.72792600
| 12>  H   2.13947100   2.30805100  -0.55959100
| 13>  H   2.55628200   0.32003700   0.87846000
| 14>  C  -1.17243700   1.28583500  -0.09280400
| 15>  C  -1.02252400   0.07651600   0.62918100
| 16>  H  -0.35997200   3.18421500  -0.60727700
| 17>  H   0.19458500  -1.08863200   1.92401900
| 18>  H   0.27920700   2.47636500   0.95116200
| 19>  H   0.46760300   0.73843600   2.01103900
| 20>  C   1.61082100  -1.07561600  -0.50449200
| 21>  O   2.13019700  -2.09794700  -0.11888800
| 22>  H   0.87324900  -1.08458700  -1.34097300
| 23>  O  -1.76309700  -1.03814300   0.35628500
| 24>  C  -2.62266800  -1.01811400  -0.76035400
| 25>  H  -3.06759500  -2.01166200  -0.81338200
| 26>  H  -3.42011100  -0.27389800  -0.64524000
| 27>  H  -2.07354000  -0.81796000  -1.68945300
| 28>  H  -1.87532100   1.32366700  -0.91851900
| 29> **                         ****END OF INPUT****
================================================================================

                       ****************************
                       * Single Point Calculation *
                       ****************************

---------------------------------
CARTESIAN COORDINATES (ANGSTROEM)
---------------------------------
  C      1.592419    1.385897   -0.726054
  C     -0.257361    2.307206    0.024929
  C      0.023828   -0.104371    1.501304
  C      1.873774    0.269250    0.034707
  H      1.194235    1.255070   -1.727926
  H      2.139471    2.308051   -0.559591
  H      2.556282    0.320037    0.878460
  C     -1.172437    1.285835   -0.092804
  C     -1.022524    0.076516    0.629181
  H     -0.359972    3.184215   -0.607277
  H      0.194585   -1.088632    1.924019
  H      0.279207    2.476365    0.951162
  H      0.467603    0.738436    2.011039
  C      1.610821   -1.075616   -0.504492
  O      2.130197   -2.097947   -0.118888
  H      0.873249   -1.084587   -1.340973
  O     -1.763097   -1.038143    0.356285
  C     -2.622668   -1.018114   -0.760354
  H     -3.067595   -2.011662   -0.813382
  H     -3.420111   -0.273898   -0.645240
  H     -2.073540   -0.817960   -1.689453
  H     -1.875321    1.323667   -0.918519

----------------------------
CARTESIAN COORDINATES (A.U.)
----------------------------
  NO LB      ZA    FRAG     MASS         X           Y           Z
   0 C     6.0000    0    12.011    3.009236    2.618966   -1.372043
   1 C     6.0000    0    12.011   -0.486342    4.359987    0.047109
   2 C     6.0000    0    12.011    0.045028   -0.197233    2.837053
   3 C     6.0000    0    12.011    3.540920    0.508809    0.065587
   4 H     1.0000    0     1.008    2.256777    2.371739   -3.265307
   5 H     1.0000    0     1.008    4.043014    4.361584   -1.057474
   6 H     1.0000    0     1.008    4.830673    0.604782    1.660049
   7 C     6.0000    0    12.011   -2.215585    2.429876   -0.175374
   8 C     6.0000    0    12.011   -1.932290    0.144594    1.188980
   9 H     1.0000    0     1.008   -0.680248    6.017294   -1.147587
  10 H     1.0000    0     1.008    0.367712   -2.057216    3.635869
  11 H     1.0000    0     1.008    0.527625    4.679652    1.797436
  12 H     1.0000    0     1.008    0.883642    1.395442    3.800313
  13 C     6.0000    0    12.011    3.044011   -2.032620   -0.953352
  14 O     8.0000    0    15.999    4.025489   -3.964545   -0.224666
  15 H     1.0000    0     1.008    1.650201   -2.049572   -2.534072
  16 O     8.0000    0    15.999   -3.331770   -1.961806    0.673281
  17 C     6.0000    0    12.011   -4.956124   -1.923957   -1.436861
  18 H     1.0000    0     1.008   -5.796914   -3.801490   -1.537069
  19 H     1.0000    0     1.008   -6.463073   -0.517592   -1.219327
  20 H     1.0000    0     1.008   -3.918423   -1.545720   -3.192603
  21 H     1.0000    0     1.008   -3.543843    2.501368   -1.735749

--------------------------------
INTERNAL COORDINATES (ANGSTROEM)
--------------------------------
 C      0   0   0     0.000000000000     0.00000000     0.00000000
 C      1   0   0     2.198743229249     0.00000000     0.00000000
 C      2   1   0     2.841558379002    74.84663233     0.00000000
 C      1   2   3     1.380151606801   108.79912338   354.14689866
 H      1   2   3     1.086008151981    93.27389150   116.38751615
 H      1   2   3     1.085054754742    90.89645356   231.88117509
 H      4   1   2     1.086423312729   121.22080226   264.56853420
 C      2   1   3     1.376380712124   102.66028066   307.77133705
 C      3   2   1     1.374107398205    58.88000138   245.40590319
 H      2   1   3     1.085982610283   102.65277844   183.60274610
 H      3   2   1     1.084719152774   171.16517374   324.86924561
 H      2   1   3     1.083710088628    86.60518928    69.01219513
 H      3   2   1     1.080319239900    67.89557287    92.82653107
 C      4   1   2     1.472597840473   120.04401177   103.85028823
 O     14   4   1     1.209794423757   125.33675781   158.56993652
 H     14   4   1     1.115254857594   113.58246175   339.28218841
 O      9   3   2     1.365791082643   115.61210014   169.31172796
 C     17   9   3     1.409306964860   118.51801076   195.68904345
 H     18  17   9     1.089912671922   105.93694448   177.28590304
 H     18  17   9     1.096824519192   111.71130426   295.94232388
 H     18  17   9     1.097646635262   111.60011711    58.51213618
 H      8   2   1     1.085026469219   118.02835096   256.79868455

---------------------------
INTERNAL COORDINATES (A.U.)
---------------------------
 C      0   0   0     0.000000000000     0.00000000     0.00000000
 C      1   0   0     4.155022542095     0.00000000     0.00000000
 C      2   1   0     5.369767129862    74.84663233     0.00000000
 C      1   2   3     2.608108560145   108.79912338   354.14689866
 H      1   2   3     2.052257986450    93.27389150   116.38751615
 H      1   2   3     2.050456326772    90.89645356   231.88117509
 H      4   1   2     2.053042526566   121.22080226   264.56853420
 C      2   1   3     2.600982601925   102.66028066   307.77133705
 C      3   2   1     2.596686661203    58.88000138   245.40590319
 H      2   1   3     2.052209719637   102.65277844   183.60274610
 H      3   2   1     2.049822130962   171.16517374   324.86924561
 H      2   1   3     2.047915276074    86.60518928    69.01219513
 H      3   2   1     2.041507500618    67.89557287    92.82653107
 C      4   1   2     2.782806623898   120.04401177   103.85028823
 O     14   4   1     2.286180139245   125.33675781   158.56993652
 H     14   4   1     2.107526250377   113.58246175   339.28218841
 O      9   3   2     2.580971102346   115.61210014   169.31172796
 C     17   9   3     2.663204202213   118.51801076   195.68904345
 H     18  17   9     2.059636459824   105.93694448   177.28590304
 H     18  17   9     2.072697958243   111.71130426   295.94232388
 H     18  17   9     2.074251532464   111.60011711    58.51213618
 H      8   2   1     2.050402874879   118.02835096   256.79868455

---------------------
BASIS SET INFORMATION
---------------------
There are 3 groups of distinct atoms

 Group   1 Type C   : 11s6p2d1f contracted to 5s3p2d1f pattern {62111/411/11/1}
 Group   2 Type H   : 5s2p1d contracted to 3s2p1d pattern {311/11/1}
 Group   3 Type O   : 11s6p2d1f contracted to 5s3p2d1f pattern {62111/411/11/1}

Atom   0C    basis set group =>   1
Atom   1C    basis set group =>   1
Atom   2C    basis set group =>   1
Atom   3C    basis set group =>   1
Atom   4H    basis set group =>   2
Atom   5H    basis set group =>   2
Atom   6H    basis set group =>   2
Atom   7C    basis set group =>   1
Atom   8C    basis set group =>   1
Atom   9H    basis set group =>   2
Atom  10H    basis set group =>   2
Atom  11H    basis set group =>   2
Atom  12H    basis set group =>   2
Atom  13C    basis set group =>   1
Atom  14O    basis set group =>   3
Atom  15H    basis set group =>   2
Atom  16O    basis set group =>   3
Atom  17C    basis set group =>   1
Atom  18H    basis set group =>   2
Atom  19H    basis set group =>   2
Atom  20H    basis set group =>   2
Atom  21H    basis set group =>   2
---------------------------------
AUXILIARY/C BASIS SET INFORMATION
---------------------------------
There are 3 groups of distinct atoms

 Group   1 Type C   : 8s6p5d3f1g contracted to 8s6p4d3f1g pattern {11111111/111111/2111/111/1}
 Group   2 Type H   : 4s3p2d1f contracted to 4s3p2d1f pattern {1111/111/11/1}
 Group   3 Type O   : 8s6p5d3f1g contracted to 8s6p4d3f1g pattern {11111111/111111/2111/111/1}

Atom   0C    basis set group =>   1
Atom   1C    basis set group =>   1
Atom   2C    basis set group =>   1
Atom   3C    basis set group =>   1
Atom   4H    basis set group =>   2
Atom   5H    basis set group =>   2
Atom   6H    basis set group =>   2
Atom   7C    basis set group =>   1
Atom   8C    basis set group =>   1
Atom   9H    basis set group =>   2
Atom  10H    basis set group =>   2
Atom  11H    basis set group =>   2
Atom  12H    basis set group =>   2
Atom  13C    basis set group =>   1
Atom  14O    basis set group =>   3
Atom  15H    basis set group =>   2
Atom  16O    basis set group =>   3
Atom  17C    basis set group =>   1
Atom  18H    basis set group =>   2
Atom  19H    basis set group =>   2
Atom  20H    basis set group =>   2
Atom  21H    basis set group =>   2


           ************************************************************
           *        Program running with 16 parallel MPI-processes    *
           *              working on a common directory               *
           ************************************************************
------------------------------------------------------------------------------
                           ORCA GTO INTEGRAL CALCULATION
------------------------------------------------------------------------------
------------------------------------------------------------------------------
                   ___                                                        
                  /   \      - P O W E R E D   B Y -                         
                 /     \                                                     
                 |  |  |   _    _      __       _____    __    __             
                 |  |  |  | |  | |    /  \     |  _  \  |  |  /  |          
                  \  \/   | |  | |   /    \    | | | |  |  | /  /          
                 / \  \   | |__| |  /  /\  \   | |_| |  |  |/  /          
                |  |  |   |  __  | /  /__\  \  |    /   |      \           
                |  |  |   | |  | | |   __   |  |    \   |  |\   \          
                \     /   | |  | | |  |  |  |  | |\  \  |  | \   \       
                 \___/    |_|  |_| |__|  |__|  |_| \__\ |__|  \__/        
                                                                              
                      - O R C A' S   B I G   F R I E N D -                    
                                      &                                       
                       - I N T E G R A L  F E E D E R -                       
                                                                              
 v1 FN, 2020, v2 2021                                                         
------------------------------------------------------------------------------


Reading SHARK input file /tmp/42997/DATS_13_endo_iii_DLPNO.SHARKINP.tmp ... ok
----------------------
SHARK INTEGRAL PACKAGE
----------------------

Number of atoms                             ...     22
Number of basis functions                   ...    478
Number of shells                            ...    182
Maximum angular momentum                    ...      3
Integral batch strategy                     ... SHARK/LIBINT Hybrid
RI-J (if used) integral strategy            ... SPLIT-RIJ (Revised 2003 algorithm where possible)
Printlevel                                  ...      1
Contraction scheme used                     ... SEGMENTED contraction
Coulomb Range Separation                    ... NOT USED
Exchange Range Separation                   ... NOT USED
Finite Nucleus Model                        ... NOT USED
Auxiliary Coulomb fitting basis             ... NOT available
Auxiliary J/K fitting basis                 ... NOT available
Auxiliary Correlation fitting basis         ... AVAILABLE
   # of basis functions in Aux-C            ...   1120
   # of shells in Aux-C                     ...    340
   Maximum angular momentum in Aux-C        ...      4
Auxiliary 'external' fitting basis          ... NOT available
Integral threshold                          ...     1.000000e-10
Primitive cut-off                           ...     1.000000e-11
Primitive pair pre-selection threshold      ...     1.000000e-11

Calculating pre-screening integrals         ... done (  0.0 sec) Dimension = 182
Organizing shell pair data                  ... done (  0.1 sec)
Shell pair information
Total number of shell pairs                 ...     16653
Shell pairs after pre-screening             ...     14485
Total number of primitive shell pairs       ...     44212
Primitive shell pairs kept                  ...     28678
          la=0 lb=0:   3203 shell pairs
          la=1 lb=0:   4096 shell pairs
          la=1 lb=1:   1357 shell pairs
          la=2 lb=0:   2301 shell pairs
          la=2 lb=1:   1512 shell pairs
          la=2 lb=2:    441 shell pairs
          la=3 lb=0:    753 shell pairs
          la=3 lb=1:    492 shell pairs
          la=3 lb=2:    279 shell pairs
          la=3 lb=3:     51 shell pairs

Calculating one electron integrals          ... done (  0.0 sec)
Calculating RI/C V-Matrix + Cholesky decomp.... done (  0.0 sec)
Calculating Nuclear repulsion               ... done (  0.0 sec) ENN=    531.728191679374 Eh

SHARK setup successfully completed in   0.4 seconds

Maximum memory used throughout the entire GTOINT-calculation: 26.7 MB


           ************************************************************
           *        Program running with 16 parallel MPI-processes    *
           *              working on a common directory               *
           ************************************************************
-------------------------------------------------------------------------------
                                 ORCA SCF
-------------------------------------------------------------------------------

------------
SCF SETTINGS
------------
Hamiltonian:
 Ab initio Hamiltonian  Method          .... Hartree-Fock(GTOs)


General Settings:
 Integral files         IntName         .... /tmp/42997/DATS_13_endo_iii_DLPNO
 Hartree-Fock type      HFTyp           .... RHF
 Total Charge           Charge          ....    0
 Multiplicity           Mult            ....    1
 Number of Electrons    NEL             ....   76
 Basis Dimension        Dim             ....  478
 Nuclear Repulsion      ENuc            ....    531.7281916794 Eh

Convergence Acceleration:
 DIIS                   CNVDIIS         .... on
   Start iteration      DIISMaxIt       ....    12
   Startup error        DIISStart       ....  0.200000
   # of expansion vecs  DIISMaxEq       ....     5
   Bias factor          DIISBfac        ....   1.050
   Max. coefficient     DIISMaxC        ....  10.000
 Trust-Rad. Augm. Hess. CNVTRAH         .... auto
   Auto Start mean grad. ratio tolernc. ....  1.125000
   Auto Start start iteration           ....    20
   Auto Start num. interpolation iter.  ....    10
   Max. Number of Micro iterations      ....    16
   Max. Number of Macro iterations      .... Maxiter - #DIIS iter
   Number of Davidson start vectors     ....     2
   Converg. threshold I  (grad. norm)   ....   5.000e-05
   Converg. threshold II (energy diff.) ....   1.000e-06
   Grad. Scal. Fac. for Micro threshold ....   0.100
   Minimum threshold for Micro iter.    ....   0.010
   NR start threshold (gradient norm)   ....   0.001
   Initial trust radius                 ....   0.400
   Minimum AH scaling param. (alpha)    ....   1.000
   Maximum AH scaling param. (alpha)    .... 1000.000
   Orbital update algorithm             .... Taylor
   White noise on init. David. guess    .... on
   Maximum white noise                  ....   0.010
   Quad. conv. algorithm                .... NR
 SOSCF                  CNVSOSCF        .... on
   Start iteration      SOSCFMaxIt      ....   150
   Startup grad/error   SOSCFStart      ....  0.003300
 Level Shifting         CNVShift        .... on
   Level shift para.    LevelShift      ....    0.2500
   Turn off err/grad.   ShiftErr        ....    0.0010
 Zerner damping         CNVZerner       .... off
 Static damping         CNVDamp         .... on
   Fraction old density DampFac         ....    0.7000
   Max. Damping (<1)    DampMax         ....    0.9800
   Min. Damping (>=0)   DampMin         ....    0.0000
   Turn off err/grad.   DampErr         ....    0.1000
 Fernandez-Rico         CNVRico         .... off

SCF Procedure:
 Maximum # iterations   MaxIter         ....   125
 SCF integral mode      SCFMode         .... Direct
   Integral package                     .... SHARK and LIBINT hybrid scheme
 Reset frequency        DirectResetFreq ....    20
 Integral Threshold     Thresh          ....  1.000e-10 Eh
 Primitive CutOff       TCut            ....  1.000e-11 Eh

Convergence Tolerance:
 Convergence Check Mode ConvCheckMode   .... Total+1el-Energy
 Convergence forced     ConvForced      .... 1
 Energy Change          TolE            ....  1.000e-06 Eh
 1-El. energy change                    ....  1.000e-03 Eh
 Orbital Gradient       TolG            ....  5.000e-05
 Orbital Rotation angle TolX            ....  5.000e-05
 DIIS Error             TolErr          ....  1.000e-06


Diagonalization of the overlap matrix:
Smallest eigenvalue                        ... 4.877e-05
Time for diagonalization                   ...    0.029 sec
Threshold for overlap eigenvalues          ... 1.000e-08
Number of eigenvalues below threshold      ... 0
Time for construction of square roots      ...    0.025 sec
Total time needed                          ...    0.055 sec

Time for model grid setup =    0.078 sec

------------------------------
INITIAL GUESS: MODEL POTENTIAL
------------------------------
Loading Hartree-Fock densities                     ... done
Calculating cut-offs                               ... done
Initializing the effective Hamiltonian             ... done
Setting up the integral package (SHARK)            ... done
Starting the Coulomb interaction                   ... done (   0.1 sec)
Reading the grid                                   ... done
Mapping shells                                     ... done
Starting the XC term evaluation                    ... done (   0.0 sec)
Transforming the Hamiltonian                       ... done (   0.0 sec)
Diagonalizing the Hamiltonian                      ... done (   0.0 sec)
Back transforming the eigenvectors                 ... done (   0.0 sec)
Now organizing SCF variables                       ... done
                      ------------------
                      INITIAL GUESS DONE (   0.2 sec)
                      ------------------
--------------
SCF ITERATIONS
--------------
ITER       Energy         Delta-E        Max-DP      RMS-DP      [F,P]     Damp
               ***  Starting incremental Fock matrix formation  ***
  0   -459.2414048740   0.000000000000 0.07806972  0.00068347  0.2993423 0.7000
  1   -459.3885793962  -0.147174522174 0.07498803  0.00057372  0.2200098 0.7000
                               ***Turning on DIIS***
  2   -459.4796025351  -0.091023138931 0.03917935  0.00037090  0.1627783 0.7000
  3   -460.6497717478  -1.170169212645 0.00966780  0.00021440  0.1203409 0.7000
  4   -460.4893810909   0.160390656891 0.02683718  0.00051533  0.0846112 0.0000
  5   -459.7033752558   0.786005835123 0.01346781  0.00009648  0.0040474 0.0000
                      *** Initiating the SOSCF procedure ***
                           *** Shutting down DIIS ***
                      *** Re-Reading the Fockian *** 
                      *** Removing any level shift *** 
ITER      Energy       Delta-E        Grad      Rot      Max-DP    RMS-DP
  6   -459.67814308   0.0252321760  0.002110  0.002110  0.011255  0.000066
               *** Restarting incremental Fock matrix formation ***
  7   -459.67365310   0.0044899783  0.001265  0.002919  0.004858  0.000036
  8   -459.67371020  -0.0000571023  0.000708  0.004367  0.010842  0.000060
  9   -459.67374120  -0.0000309920  0.000229  0.000409  0.001911  0.000014
 10   -459.67374423  -0.0000030324  0.000075  0.000285  0.000821  0.000007
 11   -459.67374485  -0.0000006206  0.000061  0.000257  0.000165  0.000002
                 **** Energy Check signals convergence ****
              ***Rediagonalizing the Fockian in SOSCF/NRSCF***

               *****************************************************
               *                     SUCCESS                       *
               *           SCF CONVERGED AFTER  12 CYCLES          *
               *****************************************************


----------------
TOTAL SCF ENERGY
----------------

Total Energy       :         -459.67374495 Eh          -12508.35851 eV

Components:
Nuclear Repulsion  :          531.72819168 Eh           14469.05969 eV
Electronic Energy  :         -991.40193663 Eh          -26977.41820 eV
One Electron Energy:        -1680.35430024 Eh          -45724.76511 eV
Two Electron Energy:          688.95236361 Eh           18747.34691 eV

Virial components:
Potential Energy   :         -918.81555737 Eh          -25002.24241 eV
Kinetic Energy     :          459.14181242 Eh           12493.88389 eV
Virial Ratio       :            2.00115854


---------------
SCF CONVERGENCE
---------------

  Last Energy change         ...   -1.0106e-07  Tolerance :   1.0000e-06
  Last MAX-Density change    ...    7.4790e-05  Tolerance :   1.0000e-05
  Last RMS-Density change    ...    9.2679e-07  Tolerance :   1.0000e-06
  Last Orbital Gradient      ...    1.5634e-05  Tolerance :   5.0000e-05
  Last Orbital Rotation      ...    3.5090e-05  Tolerance :   5.0000e-05

             **** THE GBW FILE WAS UPDATED (/tmp/42997/DATS_13_endo_iii_DLPNO.gbw) ****
             **** DENSITY /tmp/42997/DATS_13_endo_iii_DLPNO.scfp WAS UPDATED ****
             **** ENERGY FILE WAS UPDATED (/tmp/42997/DATS_13_endo_iii_DLPNO.en.tmp) ****
             **** THE GBW FILE WAS UPDATED (/tmp/42997/DATS_13_endo_iii_DLPNO.gbw) ****
             **** DENSITY /tmp/42997/DATS_13_endo_iii_DLPNO.scfp WAS UPDATED ****
----------------
ORBITAL ENERGIES
----------------

  NO   OCC          E(Eh)            E(eV) 
   0   2.0000     -20.583932      -560.1173 
   1   2.0000     -20.529115      -558.6256 
   2   2.0000     -11.318447      -307.9906 
   3   2.0000     -11.300539      -307.5033 
   4   2.0000     -11.287557      -307.1501 
   5   2.0000     -11.261429      -306.4391 
   6   2.0000     -11.251535      -306.1698 
   7   2.0000     -11.244586      -305.9808 
   8   2.0000     -11.244137      -305.9685 
   9   2.0000     -11.238303      -305.8098 
  10   2.0000      -1.413290       -38.4576 
  11   2.0000      -1.370449       -37.2918 
  12   2.0000      -1.113828       -30.3088 
  13   2.0000      -1.058025       -28.7903 
  14   2.0000      -1.014980       -27.6190 
  15   2.0000      -0.933996       -25.4153 
  16   2.0000      -0.882013       -24.0008 
  17   2.0000      -0.861719       -23.4486 
  18   2.0000      -0.773303       -21.0427 
  19   2.0000      -0.737232       -20.0611 
  20   2.0000      -0.710014       -19.3205 
  21   2.0000      -0.675297       -18.3758 
  22   2.0000      -0.660080       -17.9617 
  23   2.0000      -0.648638       -17.6503 
  24   2.0000      -0.643586       -17.5129 
  25   2.0000      -0.603526       -16.4228 
  26   2.0000      -0.587592       -15.9892 
  27   2.0000      -0.577816       -15.7232 
  28   2.0000      -0.570061       -15.5122 
  29   2.0000      -0.554409       -15.0862 
  30   2.0000      -0.541649       -14.7390 
  31   2.0000      -0.529175       -14.3996 
  32   2.0000      -0.509069       -13.8525 
  33   2.0000      -0.492788       -13.4094 
  34   2.0000      -0.457319       -12.4443 
  35   2.0000      -0.410189       -11.1618 
  36   2.0000      -0.322126        -8.7655 
  37   2.0000      -0.313055        -8.5187 
  38   0.0000       0.069979         1.9042 
  39   0.0000       0.120716         3.2849 
  40   0.0000       0.126272         3.4360 
  41   0.0000       0.141634         3.8541 
  42   0.0000       0.161472         4.3939 
  43   0.0000       0.170086         4.6283 
  44   0.0000       0.188439         5.1277 
  45   0.0000       0.190295         5.1782 
  46   0.0000       0.199637         5.4324 
  47   0.0000       0.202731         5.5166 
  48   0.0000       0.215338         5.8597 
  49   0.0000       0.220855         6.0098 
  50   0.0000       0.229623         6.2484 
  51   0.0000       0.239011         6.5038 
  52   0.0000       0.252245         6.8639 
  53   0.0000       0.254980         6.9384 
  54   0.0000       0.279933         7.6174 
  55   0.0000       0.288236         7.8433 
  56   0.0000       0.296249         8.0614 
  57   0.0000       0.305039         8.3005 
  58   0.0000       0.320681         8.7262 
  59   0.0000       0.329474         8.9654 
  60   0.0000       0.330746         9.0001 
  61   0.0000       0.344177         9.3655 
  62   0.0000       0.360310         9.8045 
  63   0.0000       0.382907        10.4194 
  64   0.0000       0.393704        10.7132 
  65   0.0000       0.402183        10.9440 
  66   0.0000       0.408383        11.1127 
  67   0.0000       0.419771        11.4226 
  68   0.0000       0.432252        11.7622 
  69   0.0000       0.442946        12.0532 
  70   0.0000       0.458246        12.4695 
  71   0.0000       0.466304        12.6888 
  72   0.0000       0.476346        12.9620 
  73   0.0000       0.486326        13.2336 
  74   0.0000       0.500780        13.6269 
  75   0.0000       0.506188        13.7741 
  76   0.0000       0.521926        14.2023 
  77   0.0000       0.533511        14.5176 
  78   0.0000       0.542588        14.7646 
  79   0.0000       0.552170        15.0253 
  80   0.0000       0.557881        15.1807 
  81   0.0000       0.563322        15.3288 
  82   0.0000       0.569267        15.4905 
  83   0.0000       0.572654        15.5827 
  84   0.0000       0.583725        15.8840 
  85   0.0000       0.596151        16.2221 
  86   0.0000       0.613090        16.6830 
  87   0.0000       0.617442        16.8014 
  88   0.0000       0.621273        16.9057 
  89   0.0000       0.624217        16.9858 
  90   0.0000       0.634806        17.2739 
  91   0.0000       0.642857        17.4930 
  92   0.0000       0.656185        17.8557 
  93   0.0000       0.662194        18.0192 
  94   0.0000       0.680041        18.5049 
  95   0.0000       0.691216        18.8089 
  96   0.0000       0.699251        19.0276 
  97   0.0000       0.702694        19.1213 
  98   0.0000       0.720240        19.5987 
  99   0.0000       0.725364        19.7382 
 100   0.0000       0.736554        20.0427 
 101   0.0000       0.747762        20.3476 
 102   0.0000       0.756331        20.5808 
 103   0.0000       0.771884        21.0040 
 104   0.0000       0.789102        21.4726 
 105   0.0000       0.802948        21.8493 
 106   0.0000       0.821148        22.3446 
 107   0.0000       0.825020        22.4499 
 108   0.0000       0.842336        22.9211 
 109   0.0000       0.860113        23.4049 
 110   0.0000       0.876261        23.8443 
 111   0.0000       0.884042        24.0560 
 112   0.0000       0.900794        24.5118 
 113   0.0000       0.927158        25.2292 
 114   0.0000       0.936071        25.4718 
 115   0.0000       0.950106        25.8537 
 116   0.0000       0.961130        26.1537 
 117   0.0000       0.964405        26.2428 
 118   0.0000       1.001843        27.2615 
 119   0.0000       1.009583        27.4722 
 120   0.0000       1.019505        27.7422 
 121   0.0000       1.033978        28.1360 
 122   0.0000       1.036795        28.2126 
 123   0.0000       1.062582        28.9143 
 124   0.0000       1.075397        29.2630 
 125   0.0000       1.081195        29.4208 
 126   0.0000       1.104474        30.0543 
 127   0.0000       1.117760        30.4158 
 128   0.0000       1.122280        30.5388 
 129   0.0000       1.132754        30.8238 
 130   0.0000       1.139882        31.0178 
 131   0.0000       1.160790        31.5867 
 132   0.0000       1.166134        31.7321 
 133   0.0000       1.178672        32.0733 
 134   0.0000       1.193251        32.4700 
 135   0.0000       1.200765        32.6745 
 136   0.0000       1.211733        32.9729 
 137   0.0000       1.216034        33.0900 
 138   0.0000       1.226370        33.3712 
 139   0.0000       1.232315        33.5330 
 140   0.0000       1.246844        33.9284 
 141   0.0000       1.261314        34.3221 
 142   0.0000       1.269423        34.5428 
 143   0.0000       1.281835        34.8805 
 144   0.0000       1.288546        35.0631 
 145   0.0000       1.303793        35.4780 
 146   0.0000       1.322569        35.9889 
 147   0.0000       1.330720        36.2107 
 148   0.0000       1.332584        36.2615 
 149   0.0000       1.350423        36.7469 
 150   0.0000       1.359369        36.9903 
 151   0.0000       1.373728        37.3810 
 152   0.0000       1.384910        37.6853 
 153   0.0000       1.423753        38.7423 
 154   0.0000       1.431213        38.9453 
 155   0.0000       1.443098        39.2687 
 156   0.0000       1.450302        39.4647 
 157   0.0000       1.452441        39.5229 
 158   0.0000       1.475949        40.1626 
 159   0.0000       1.486106        40.4390 
 160   0.0000       1.499513        40.8038 
 161   0.0000       1.508688        41.0535 
 162   0.0000       1.521911        41.4133 
 163   0.0000       1.533908        41.7398 
 164   0.0000       1.541074        41.9348 
 165   0.0000       1.565657        42.6037 
 166   0.0000       1.581622        43.0381 
 167   0.0000       1.586838        43.1801 
 168   0.0000       1.600789        43.5597 
 169   0.0000       1.607314        43.7372 
 170   0.0000       1.617112        44.0039 
 171   0.0000       1.644596        44.7517 
 172   0.0000       1.651281        44.9337 
 173   0.0000       1.657172        45.0939 
 174   0.0000       1.663831        45.2751 
 175   0.0000       1.686200        45.8838 
 176   0.0000       1.697979        46.2043 
 177   0.0000       1.702453        46.3261 
 178   0.0000       1.709881        46.5282 
 179   0.0000       1.724921        46.9375 
 180   0.0000       1.737786        47.2876 
 181   0.0000       1.750388        47.6305 
 182   0.0000       1.772416        48.2299 
 183   0.0000       1.783316        48.5265 
 184   0.0000       1.792677        48.7812 
 185   0.0000       1.813781        49.3555 
 186   0.0000       1.821156        49.5562 
 187   0.0000       1.835973        49.9594 
 188   0.0000       1.841902        50.1207 
 189   0.0000       1.858427        50.5704 
 190   0.0000       1.867579        50.8194 
 191   0.0000       1.870650        50.9030 
 192   0.0000       1.896940        51.6184 
 193   0.0000       1.930399        52.5288 
 194   0.0000       1.963731        53.4358 
 195   0.0000       1.969490        53.5925 
 196   0.0000       1.977865        53.8204 
 197   0.0000       2.011208        54.7278 
 198   0.0000       2.022949        55.0472 
 199   0.0000       2.064106        56.1672 
 200   0.0000       2.073886        56.4333 
 201   0.0000       2.091579        56.9148 
 202   0.0000       2.108759        57.3823 
 203   0.0000       2.133818        58.0641 
 204   0.0000       2.145220        58.3744 
 205   0.0000       2.184574        59.4453 
 206   0.0000       2.199553        59.8529 
 207   0.0000       2.216620        60.3173 
 208   0.0000       2.228195        60.6323 
 209   0.0000       2.247582        61.1598 
 210   0.0000       2.295176        62.4549 
 211   0.0000       2.303234        62.6742 
 212   0.0000       2.331859        63.4531 
 213   0.0000       2.341370        63.7119 
 214   0.0000       2.367347        64.4188 
 215   0.0000       2.392420        65.1011 
 216   0.0000       2.434206        66.2381 
 217   0.0000       2.441793        66.4446 
 218   0.0000       2.458963        66.9118 
 219   0.0000       2.492179        67.8156 
 220   0.0000       2.497355        67.9565 
 221   0.0000       2.511179        68.3327 
 222   0.0000       2.562198        69.7209 
 223   0.0000       2.569455        69.9184 
 224   0.0000       2.611243        71.0555 
 225   0.0000       2.664808        72.5131 
 226   0.0000       2.673444        72.7481 
 227   0.0000       2.682409        72.9921 
 228   0.0000       2.722155        74.0736 
 229   0.0000       2.769558        75.3635 
 230   0.0000       2.794481        76.0417 
 231   0.0000       2.807228        76.3886 
 232   0.0000       2.826117        76.9026 
 233   0.0000       2.850687        77.5711 
 234   0.0000       2.866158        77.9921 
 235   0.0000       2.873589        78.1943 
 236   0.0000       2.908136        79.1344 
 237   0.0000       2.917676        79.3940 
 238   0.0000       2.934960        79.8643 
 239   0.0000       2.957659        80.4820 
 240   0.0000       2.980660        81.1079 
 241   0.0000       2.998429        81.5914 
 242   0.0000       3.017213        82.1025 
 243   0.0000       3.027619        82.3857 
 244   0.0000       3.032222        82.5110 
 245   0.0000       3.049126        82.9709 
 246   0.0000       3.050225        83.0008 
 247   0.0000       3.063067        83.3503 
 248   0.0000       3.089437        84.0678 
 249   0.0000       3.092754        84.1581 
 250   0.0000       3.106200        84.5240 
 251   0.0000       3.109262        84.6073 
 252   0.0000       3.121513        84.9407 
 253   0.0000       3.127336        85.0991 
 254   0.0000       3.143829        85.5479 
 255   0.0000       3.156500        85.8927 
 256   0.0000       3.177442        86.4626 
 257   0.0000       3.184303        86.6493 
 258   0.0000       3.197312        87.0033 
 259   0.0000       3.220288        87.6285 
 260   0.0000       3.221858        87.6712 
 261   0.0000       3.226758        87.8046 
 262   0.0000       3.235478        88.0418 
 263   0.0000       3.262238        88.7700 
 264   0.0000       3.267436        88.9114 
 265   0.0000       3.272976        89.0622 
 266   0.0000       3.289645        89.5158 
 267   0.0000       3.308729        90.0351 
 268   0.0000       3.320854        90.3650 
 269   0.0000       3.323031        90.4243 
 270   0.0000       3.338374        90.8418 
 271   0.0000       3.356681        91.3399 
 272   0.0000       3.359241        91.4096 
 273   0.0000       3.371379        91.7399 
 274   0.0000       3.381388        92.0122 
 275   0.0000       3.413887        92.8966 
 276   0.0000       3.420844        93.0859 
 277   0.0000       3.422814        93.1395 
 278   0.0000       3.438690        93.5715 
 279   0.0000       3.454244        93.9947 
 280   0.0000       3.463949        94.2588 
 281   0.0000       3.472825        94.5004 
 282   0.0000       3.479816        94.6906 
 283   0.0000       3.494185        95.0816 
 284   0.0000       3.505987        95.4028 
 285   0.0000       3.518984        95.7564 
 286   0.0000       3.525217        95.9260 
 287   0.0000       3.541039        96.3566 
 288   0.0000       3.548925        96.5712 
 289   0.0000       3.565875        97.0324 
 290   0.0000       3.572199        97.2045 
 291   0.0000       3.588594        97.6506 
 292   0.0000       3.604238        98.0763 
 293   0.0000       3.610562        98.2484 
 294   0.0000       3.623000        98.5868 
 295   0.0000       3.632399        98.8426 
 296   0.0000       3.637232        98.9741 
 297   0.0000       3.649235        99.3007 
 298   0.0000       3.675669       100.0200 
 299   0.0000       3.691619       100.4541 
 300   0.0000       3.694848       100.5419 
 301   0.0000       3.717924       101.1698 
 302   0.0000       3.719222       101.2052 
 303   0.0000       3.720674       101.2447 
 304   0.0000       3.725181       101.3673 
 305   0.0000       3.728888       101.4682 
 306   0.0000       3.768222       102.5385 
 307   0.0000       3.783791       102.9622 
 308   0.0000       3.793917       103.2377 
 309   0.0000       3.796600       103.3107 
 310   0.0000       3.810491       103.6887 
 311   0.0000       3.826220       104.1167 
 312   0.0000       3.847816       104.7044 
 313   0.0000       3.866173       105.2039 
 314   0.0000       3.868631       105.2708 
 315   0.0000       3.876286       105.4791 
 316   0.0000       3.883192       105.6670 
 317   0.0000       3.902946       106.2045 
 318   0.0000       3.915510       106.5465 
 319   0.0000       3.926338       106.8411 
 320   0.0000       3.934698       107.0686 
 321   0.0000       3.954580       107.6096 
 322   0.0000       3.967803       107.9694 
 323   0.0000       3.976056       108.1940 
 324   0.0000       3.985414       108.4486 
 325   0.0000       4.001282       108.8804 
 326   0.0000       4.029493       109.6481 
 327   0.0000       4.036075       109.8272 
 328   0.0000       4.054288       110.3228 
 329   0.0000       4.058054       110.4253 
 330   0.0000       4.076275       110.9211 
 331   0.0000       4.100838       111.5895 
 332   0.0000       4.107764       111.7779 
 333   0.0000       4.122600       112.1817 
 334   0.0000       4.132780       112.4587 
 335   0.0000       4.136121       112.5496 
 336   0.0000       4.146222       112.8244 
 337   0.0000       4.150557       112.9424 
 338   0.0000       4.173216       113.5590 
 339   0.0000       4.177942       113.6876 
 340   0.0000       4.205090       114.4263 
 341   0.0000       4.214787       114.6902 
 342   0.0000       4.221157       114.8635 
 343   0.0000       4.230153       115.1083 
 344   0.0000       4.246742       115.5597 
 345   0.0000       4.250551       115.6634 
 346   0.0000       4.273719       116.2938 
 347   0.0000       4.289670       116.7278 
 348   0.0000       4.294955       116.8717 
 349   0.0000       4.308036       117.2276 
 350   0.0000       4.320523       117.5674 
 351   0.0000       4.330243       117.8319 
 352   0.0000       4.337144       118.0197 
 353   0.0000       4.355025       118.5063 
 354   0.0000       4.383808       119.2895 
 355   0.0000       4.389368       119.4408 
 356   0.0000       4.400816       119.7523 
 357   0.0000       4.413232       120.0902 
 358   0.0000       4.420104       120.2771 
 359   0.0000       4.423255       120.3629 
 360   0.0000       4.443772       120.9212 
 361   0.0000       4.458972       121.3348 
 362   0.0000       4.472593       121.7054 
 363   0.0000       4.483847       122.0117 
 364   0.0000       4.494562       122.3032 
 365   0.0000       4.508219       122.6749 
 366   0.0000       4.521785       123.0440 
 367   0.0000       4.534640       123.3938 
 368   0.0000       4.549042       123.7857 
 369   0.0000       4.553755       123.9140 
 370   0.0000       4.575493       124.5055 
 371   0.0000       4.591428       124.9391 
 372   0.0000       4.599124       125.1485 
 373   0.0000       4.617647       125.6526 
 374   0.0000       4.657200       126.7288 
 375   0.0000       4.662933       126.8849 
 376   0.0000       4.699241       127.8729 
 377   0.0000       4.703815       127.9973 
 378   0.0000       4.711912       128.2177 
 379   0.0000       4.748520       129.2138 
 380   0.0000       4.758910       129.4965 
 381   0.0000       4.791416       130.3810 
 382   0.0000       4.813841       130.9913 
 383   0.0000       4.825827       131.3174 
 384   0.0000       4.862424       132.3133 
 385   0.0000       4.881250       132.8256 
 386   0.0000       4.901610       133.3796 
 387   0.0000       4.908786       133.5749 
 388   0.0000       4.928793       134.1193 
 389   0.0000       4.936938       134.3409 
 390   0.0000       4.961067       134.9975 
 391   0.0000       4.970056       135.2421 
 392   0.0000       4.996494       135.9615 
 393   0.0000       5.003164       136.1430 
 394   0.0000       5.045520       137.2956 
 395   0.0000       5.061886       137.7409 
 396   0.0000       5.066327       137.8618 
 397   0.0000       5.076160       138.1293 
 398   0.0000       5.091141       138.5370 
 399   0.0000       5.131473       139.6345 
 400   0.0000       5.154028       140.2482 
 401   0.0000       5.181651       140.9999 
 402   0.0000       5.189512       141.2138 
 403   0.0000       5.229708       142.3076 
 404   0.0000       5.271011       143.4315 
 405   0.0000       5.284965       143.8112 
 406   0.0000       5.293883       144.0539 
 407   0.0000       5.306913       144.4085 
 408   0.0000       5.317288       144.6908 
 409   0.0000       5.333865       145.1418 
 410   0.0000       5.372696       146.1985 
 411   0.0000       5.383760       146.4996 
 412   0.0000       5.413955       147.3212 
 413   0.0000       5.428867       147.7270 
 414   0.0000       5.448968       148.2740 
 415   0.0000       5.468486       148.8051 
 416   0.0000       5.473787       148.9493 
 417   0.0000       5.489269       149.3706 
 418   0.0000       5.517443       150.1372 
 419   0.0000       5.537715       150.6889 
 420   0.0000       5.557761       151.2344 
 421   0.0000       5.569991       151.5671 
 422   0.0000       5.620999       152.9551 
 423   0.0000       5.627346       153.1279 
 424   0.0000       5.641488       153.5127 
 425   0.0000       5.662481       154.0839 
 426   0.0000       5.694596       154.9578 
 427   0.0000       5.721580       155.6921 
 428   0.0000       5.734767       156.0509 
 429   0.0000       5.757214       156.6617 
 430   0.0000       5.769572       156.9980 
 431   0.0000       5.810046       158.0994 
 432   0.0000       5.833787       158.7454 
 433   0.0000       5.845913       159.0754 
 434   0.0000       5.865497       159.6083 
 435   0.0000       5.877301       159.9295 
 436   0.0000       5.918503       161.0507 
 437   0.0000       5.942580       161.7058 
 438   0.0000       5.961935       162.2325 
 439   0.0000       5.973164       162.5381 
 440   0.0000       5.999019       163.2416 
 441   0.0000       6.021898       163.8642 
 442   0.0000       6.057373       164.8295 
 443   0.0000       6.088166       165.6674 
 444   0.0000       6.132450       166.8724 
 445   0.0000       6.164203       167.7365 
 446   0.0000       6.234095       169.6383 
 447   0.0000       6.311883       171.7551 
 448   0.0000       6.366316       173.2363 
 449   0.0000       6.405986       174.3158 
 450   0.0000       6.492322       176.6651 
 451   0.0000       6.547404       178.1639 
 452   0.0000       6.592282       179.3851 
 453   0.0000       6.663906       181.3341 
 454   0.0000       6.901538       187.8004 
 455   0.0000       6.922214       188.3630 
 456   0.0000       6.946598       189.0265 
 457   0.0000       7.092879       193.0071 
 458   0.0000       7.176916       195.2938 
 459   0.0000       7.266890       197.7421 
 460   0.0000       7.344597       199.8566 
 461   0.0000       7.356177       200.1718 
 462   0.0000       7.370484       200.5611 
 463   0.0000       7.497815       204.0259 
 464   0.0000       7.607330       207.0060 
 465   0.0000       7.636063       207.7878 
 466   0.0000       7.831974       213.1189 
 467   0.0000       7.983403       217.2394 
 468   0.0000      24.028922       653.8602 
 469   0.0000      24.167624       657.6345 
 470   0.0000      24.226833       659.2456 
 471   0.0000      24.468962       665.8343 
 472   0.0000      24.571492       668.6243 
 473   0.0000      24.680413       671.5882 
 474   0.0000      24.731535       672.9793 
 475   0.0000      24.825376       675.5328 
 476   0.0000      45.519883      1238.6590 
 477   0.0000      45.967099      1250.8284 

                    ********************************
                    * MULLIKEN POPULATION ANALYSIS *
                    ********************************

-----------------------
MULLIKEN ATOMIC CHARGES
-----------------------
   0 C :   -0.218485
   1 C :   -0.127463
   2 C :   -0.184877
   3 C :   -0.063968
   4 H :    0.097728
   5 H :    0.117880
   6 H :    0.112031
   7 C :   -0.179214
   8 C :    0.228897
   9 H :    0.106650
  10 H :    0.129122
  11 H :    0.095552
  12 H :    0.097224
  13 C :    0.312340
  14 O :   -0.455134
  15 H :    0.014544
  16 O :   -0.377166
  17 C :   -0.005676
  18 H :    0.093741
  19 H :    0.067694
  20 H :    0.055134
  21 H :    0.083446
Sum of atomic charges:    0.0000000

--------------------------------
MULLIKEN REDUCED ORBITAL CHARGES
--------------------------------
  0 C s       :     3.145442  s :     3.145442
      pz      :     0.986056  p :     2.967647
      px      :     0.962869
      py      :     1.018722
      dz2     :     0.029318  d :     0.099835
      dxz     :     0.012146
      dyz     :     0.018827
      dx2y2   :     0.015154
      dxy     :     0.024391
      f0      :     0.000476  f :     0.005561
      f+1     :     0.000620
      f-1     :     0.001228
      f+2     :     0.000762
      f-2     :     0.000827
      f+3     :     0.001135
      f-3     :     0.000513
  1 C s       :     3.110308  s :     3.110308
      pz      :     1.031927  p :     2.912096
      px      :     0.914483
      py      :     0.965686
      dz2     :     0.012468  d :     0.099330
      dxz     :     0.019593
      dyz     :     0.023569
      dx2y2   :     0.027464
      dxy     :     0.016236
      f0      :     0.000564  f :     0.005730
      f+1     :     0.000837
      f-1     :     0.000424
      f+2     :     0.000511
      f-2     :     0.001007
      f+3     :     0.000943
      f-3     :     0.001444
  2 C s       :     3.127873  s :     3.127873
      pz      :     0.951616  p :     2.972579
      px      :     0.934769
      py      :     1.086194
      dz2     :     0.016286  d :     0.078646
      dxz     :     0.014677
      dyz     :     0.014689
      dx2y2   :     0.019514
      dxy     :     0.013479
      f0      :     0.000843  f :     0.005779
      f+1     :     0.001338
      f-1     :     0.000198
      f+2     :     0.001010
      f-2     :     0.001228
      f+3     :     0.000530
      f-3     :     0.000633
  3 C s       :     3.071077  s :     3.071077
      pz      :     1.008421  p :     2.867162
      px      :     0.958780
      py      :     0.899962
      dz2     :     0.018721  d :     0.117849
      dxz     :     0.023451
      dyz     :     0.029692
      dx2y2   :     0.023826
      dxy     :     0.022160
      f0      :     0.000682  f :     0.007880
      f+1     :     0.000709
      f-1     :     0.001254
      f+2     :     0.001573
      f-2     :     0.000941
      f+3     :     0.001465
      f-3     :     0.001255
  4 H s       :     0.856847  s :     0.856847
      pz      :     0.023443  p :     0.043171
      px      :     0.011521
      py      :     0.008207
      dz2     :     0.000772  d :     0.002253
      dxz     :     0.000657
      dyz     :     0.000611
      dx2y2   :     0.000091
      dxy     :     0.000123
  5 H s       :     0.840879  s :     0.840879
      pz      :     0.007575  p :     0.039164
      px      :     0.012837
      py      :     0.018752
      dz2     :     0.000203  d :     0.002077
      dxz     :     0.000162
      dyz     :     0.000442
      dx2y2   :     0.000669
      dxy     :     0.000603
  6 H s       :     0.846518  s :     0.846518
      pz      :     0.017125  p :     0.039245
      px      :     0.014227
      py      :     0.007893
      dz2     :     0.000601  d :     0.002207
      dxz     :     0.000574
      dyz     :     0.000493
      dx2y2   :     0.000226
      dxy     :     0.000313
  7 C s       :     3.178176  s :     3.178176
      pz      :     0.968900  p :     2.892683
      px      :     0.982916
      py      :     0.940868
      dz2     :     0.013444  d :     0.099931
      dxz     :     0.018023
      dyz     :     0.021945
      dx2y2   :     0.023739
      dxy     :     0.022781
      f0      :     0.000761  f :     0.008422
      f+1     :     0.000796
      f-1     :     0.001262
      f+2     :     0.001058
      f-2     :     0.001434
      f+3     :     0.001397
      f-3     :     0.001714
  8 C s       :     3.068875  s :     3.068875
      pz      :     0.947467  p :     2.492743
      px      :     0.809996
      py      :     0.735280
      dz2     :     0.031328  d :     0.192504
      dxz     :     0.022629
      dyz     :     0.042035
      dx2y2   :     0.058418
      dxy     :     0.038094
      f0      :     0.001728  f :     0.016981
      f+1     :     0.001833
      f-1     :     0.002283
      f+2     :     0.001936
      f-2     :     0.002908
      f+3     :     0.002555
      f-3     :     0.003737
  9 H s       :     0.852980  s :     0.852980
      pz      :     0.011523  p :     0.038299
      px      :     0.008485
      py      :     0.018291
      dz2     :     0.000386  d :     0.002071
      dxz     :     0.000227
      dyz     :     0.000587
      dx2y2   :     0.000428
      dxy     :     0.000443
 10 H s       :     0.831601  s :     0.831601
      pz      :     0.009786  p :     0.037238
      px      :     0.008235
      py      :     0.019217
      dz2     :     0.000304  d :     0.002040
      dxz     :     0.000127
      dyz     :     0.000569
      dx2y2   :     0.000524
      dxy     :     0.000517
 11 H s       :     0.858759  s :     0.858759
      pz      :     0.020626  p :     0.043505
      px      :     0.013258
      py      :     0.009621
      dz2     :     0.000660  d :     0.002183
      dxz     :     0.000613
      dyz     :     0.000495
      dx2y2   :     0.000198
      dxy     :     0.000217
 12 H s       :     0.853729  s :     0.853729
      pz      :     0.015722  p :     0.046793
      px      :     0.013134
      py      :     0.017937
      dz2     :     0.000379  d :     0.002254
      dxz     :     0.000330
      dyz     :     0.000500
      dx2y2   :     0.000592
      dxy     :     0.000452
 13 C s       :     3.122460  s :     3.122460
      pz      :     0.791360  p :     2.344266
      px      :     0.751672
      py      :     0.801234
      dz2     :     0.026102  d :     0.203623
      dxz     :     0.034822
      dyz     :     0.045602
      dx2y2   :     0.056442
      dxy     :     0.040656
      f0      :     0.001110  f :     0.017311
      f+1     :     0.001035
      f-1     :     0.003442
      f+2     :     0.002283
      f-2     :     0.002396
      f+3     :     0.002487
      f-3     :     0.004559
 14 O s       :     3.841115  s :     3.841115
      pz      :     1.588064  p :     4.576113
      px      :     1.496454
      py      :     1.491595
      dz2     :     0.004691  d :     0.035803
      dxz     :     0.002111
      dyz     :     0.009383
      dx2y2   :     0.008852
      dxy     :     0.010766
      f0      :     0.000192  f :     0.002104
      f+1     :     0.000080
      f-1     :     0.000362
      f+2     :     0.000266
      f-2     :     0.000281
      f+3     :     0.000446
      f-3     :     0.000476
 15 H s       :     0.948252  s :     0.948252
      pz      :     0.017320  p :     0.034926
      px      :     0.012752
      py      :     0.004854
      dz2     :     0.000405  d :     0.002277
      dxz     :     0.000742
      dyz     :     0.000468
      dx2y2   :     0.000246
      dxy     :     0.000417
 16 O s       :     3.774435  s :     3.774435
      pz      :     1.517123  p :     4.557568
      px      :     1.531072
      py      :     1.509372
      dz2     :     0.009939  d :     0.042932
      dxz     :     0.008707
      dyz     :     0.006149
      dx2y2   :     0.007940
      dxy     :     0.010197
      f0      :     0.000236  f :     0.002231
      f+1     :     0.000526
      f-1     :     0.000177
      f+2     :     0.000270
      f-2     :     0.000344
      f+3     :     0.000414
      f-3     :     0.000264
 17 C s       :     3.119701  s :     3.119701
      pz      :     0.779383  p :     2.751452
      px      :     0.889869
      py      :     1.082200
      dz2     :     0.042428  d :     0.124763
      dxz     :     0.024397
      dyz     :     0.013803
      dx2y2   :     0.015221
      dxy     :     0.028914
      f0      :     0.002019  f :     0.009759
      f+1     :     0.002527
      f-1     :     0.000897
      f+2     :     0.001572
      f-2     :     0.001373
      f+3     :     0.000810
      f-3     :     0.000561
 18 H s       :     0.871426  s :     0.871426
      pz      :     0.005725  p :     0.032712
      px      :     0.008398
      py      :     0.018589
      dz2     :     0.000206  d :     0.002122
      dxz     :     0.000201
      dyz     :     0.000486
      dx2y2   :     0.000586
      dxy     :     0.000643
 19 H s       :     0.898009  s :     0.898009
      pz      :     0.006139  p :     0.032176
      px      :     0.013902
      py      :     0.012135
      dz2     :     0.000214  d :     0.002121
      dxz     :     0.000477
      dyz     :     0.000238
      dx2y2   :     0.000596
      dxy     :     0.000597
 20 H s       :     0.910384  s :     0.910384
      pz      :     0.014752  p :     0.032350
      px      :     0.010365
      py      :     0.007233
      dz2     :     0.000779  d :     0.002132
      dxz     :     0.000655
      dyz     :     0.000376
      dx2y2   :     0.000129
      dxy     :     0.000194
 21 H s       :     0.871438  s :     0.871438
      pz      :     0.018190  p :     0.042851
      px      :     0.015261
      py      :     0.009399
      dz2     :     0.000541  d :     0.002266
      dxz     :     0.000594
      dyz     :     0.000481
      dx2y2   :     0.000288
      dxy     :     0.000362


                     *******************************
                     * LOEWDIN POPULATION ANALYSIS *
                     *******************************

----------------------
LOEWDIN ATOMIC CHARGES
----------------------
   0 C :    0.039989
   1 C :    0.067210
   2 C :    0.080968
   3 C :   -0.046198
   4 H :    0.003763
   5 H :    0.005820
   6 H :    0.014980
   7 C :   -0.051760
   8 C :   -0.226535
   9 H :    0.005835
  10 H :    0.013490
  11 H :    0.008504
  12 H :   -0.000284
  13 C :   -0.174418
  14 O :    0.048002
  15 H :    0.007527
  16 O :    0.227770
  17 C :   -0.043755
  18 H :    0.009404
  19 H :   -0.000112
  20 H :   -0.002983
  21 H :    0.012784

-------------------------------
LOEWDIN REDUCED ORBITAL CHARGES
-------------------------------
  0 C s       :     2.749545  s :     2.749545
      pz      :     0.982868  p :     2.859854
      px      :     0.868136
      py      :     1.008850
      dz2     :     0.095847  d :     0.321133
      dxz     :     0.037012
      dyz     :     0.058324
      dx2y2   :     0.053575
      dxy     :     0.076375
      f0      :     0.002696  f :     0.029479
      f+1     :     0.002601
      f-1     :     0.006734
      f+2     :     0.004068
      f-2     :     0.004743
      f+3     :     0.004835
      f-3     :     0.003801
  1 C s       :     2.748023  s :     2.748023
      pz      :     0.964576  p :     2.828755
      px      :     0.884585
      py      :     0.979594
      dz2     :     0.042503  d :     0.325992
      dxz     :     0.065170
      dyz     :     0.075601
      dx2y2   :     0.086048
      dxy     :     0.056670
      f0      :     0.003880  f :     0.030020
      f+1     :     0.003677
      f-1     :     0.002260
      f+2     :     0.002658
      f-2     :     0.005171
      f+3     :     0.004862
      f-3     :     0.007512
  2 C s       :     2.749452  s :     2.749452
      pz      :     0.925922  p :     2.858042
      px      :     0.918367
      py      :     1.013754
      dz2     :     0.038800  d :     0.283356
      dxz     :     0.057705
      dyz     :     0.067659
      dx2y2   :     0.065429
      dxy     :     0.053762
      f0      :     0.004057  f :     0.028182
      f+1     :     0.004976
      f-1     :     0.000829
      f+2     :     0.005161
      f-2     :     0.005325
      f+3     :     0.003881
      f-3     :     0.003953
  3 C s       :     2.746608  s :     2.746608
      pz      :     0.970612  p :     2.865011
      px      :     0.879395
      py      :     1.015004
      dz2     :     0.068086  d :     0.395908
      dxz     :     0.072736
      dyz     :     0.096475
      dx2y2   :     0.090060
      dxy     :     0.068551
      f0      :     0.003526  f :     0.038671
      f+1     :     0.002644
      f-1     :     0.008556
      f+2     :     0.006315
      f-2     :     0.005269
      f+3     :     0.005892
      f-3     :     0.006469
  4 H s       :     0.814448  s :     0.814448
      pz      :     0.070125  p :     0.154034
      px      :     0.047585
      py      :     0.036323
      dz2     :     0.009663  d :     0.027755
      dxz     :     0.007650
      dyz     :     0.007764
      dx2y2   :     0.001080
      dxy     :     0.001598
  5 H s       :     0.813088  s :     0.813088
      pz      :     0.036798  p :     0.153476
      px      :     0.053644
      py      :     0.063033
      dz2     :     0.002908  d :     0.027616
      dxz     :     0.002432
      dyz     :     0.006234
      dx2y2   :     0.007993
      dxy     :     0.008049
  6 H s       :     0.807060  s :     0.807060
      pz      :     0.062307  p :     0.150001
      px      :     0.057181
      py      :     0.030514
      dz2     :     0.007586  d :     0.027959
      dxz     :     0.007890
      dyz     :     0.005623
      dx2y2   :     0.003405
      dxy     :     0.003454
  7 C s       :     2.721950  s :     2.721950
      pz      :     0.943608  p :     2.889246
      px      :     0.944148
      py      :     1.001490
      dz2     :     0.052544  d :     0.398165
      dxz     :     0.076311
      dyz     :     0.083515
      dx2y2   :     0.101070
      dxy     :     0.084725
      f0      :     0.004552  f :     0.042399
      f+1     :     0.003018
      f-1     :     0.006618
      f+2     :     0.004384
      f-2     :     0.007001
      f+3     :     0.008325
      f-3     :     0.008501
  8 C s       :     2.709575  s :     2.709575
      pz      :     0.949979  p :     2.735152
      px      :     0.894643
      py      :     0.890530
      dz2     :     0.113815  d :     0.683889
      dxz     :     0.080941
      dyz     :     0.137991
      dx2y2   :     0.177941
      dxy     :     0.173201
      f0      :     0.009568  f :     0.097919
      f+1     :     0.006881
      f-1     :     0.014491
      f+2     :     0.009052
      f-2     :     0.017553
      f+3     :     0.017910
      f-3     :     0.022463
  9 H s       :     0.818527  s :     0.818527
      pz      :     0.050158  p :     0.148677
      px      :     0.037537
      py      :     0.060982
      dz2     :     0.005598  d :     0.026961
      dxz     :     0.002948
      dyz     :     0.007453
      dx2y2   :     0.005395
      dxy     :     0.005567
 10 H s       :     0.808747  s :     0.808747
      pz      :     0.043100  p :     0.149938
      px      :     0.035903
      py      :     0.070934
      dz2     :     0.004042  d :     0.027825
      dxz     :     0.001521
      dyz     :     0.008323
      dx2y2   :     0.006907
      dxy     :     0.007031
 11 H s       :     0.809272  s :     0.809272
      pz      :     0.069269  p :     0.154086
      px      :     0.049126
      py      :     0.035692
      dz2     :     0.008974  d :     0.028138
      dxz     :     0.007553
      dyz     :     0.006888
      dx2y2   :     0.002078
      dxy     :     0.002645
 12 H s       :     0.811936  s :     0.811936
      pz      :     0.047051  p :     0.159887
      px      :     0.048480
      py      :     0.064356
      dz2     :     0.004811  d :     0.028461
      dxz     :     0.003513
      dyz     :     0.007026
      dx2y2   :     0.007228
      dxy     :     0.005882
 13 C s       :     2.771501  s :     2.771501
      pz      :     0.828451  p :     2.595634
      px      :     0.784796
      py      :     0.982388
      dz2     :     0.088063  d :     0.706208
      dxz     :     0.097513
      dyz     :     0.165312
      dx2y2   :     0.199421
      dxy     :     0.155898
      f0      :     0.006630  f :     0.101075
      f+1     :     0.004050
      f-1     :     0.022340
      f+2     :     0.009726
      f-2     :     0.018046
      f+3     :     0.013958
      f-3     :     0.026325
 14 O s       :     3.406778  s :     3.406778
      pz      :     1.495741  p :     4.472126
      px      :     1.434088
      py      :     1.542297
      dz2     :     0.008767  d :     0.067495
      dxz     :     0.006168
      dyz     :     0.015497
      dx2y2   :     0.018871
      dxy     :     0.018192
      f0      :     0.000542  f :     0.005598
      f+1     :     0.000196
      f-1     :     0.000905
      f+2     :     0.000532
      f-2     :     0.000970
      f+3     :     0.001249
      f-3     :     0.001205
 15 H s       :     0.845592  s :     0.845592
      pz      :     0.054843  p :     0.123388
      px      :     0.046447
      py      :     0.022098
      dz2     :     0.004742  d :     0.023493
      dxz     :     0.007936
      dyz     :     0.004431
      dx2y2   :     0.002999
      dxy     :     0.003385
 16 O s       :     3.233848  s :     3.233848
      pz      :     1.472153  p :     4.425547
      px      :     1.460729
      py      :     1.492666
      dz2     :     0.022316  d :     0.106672
      dxz     :     0.021942
      dyz     :     0.018820
      dx2y2   :     0.019253
      dxy     :     0.024341
      f0      :     0.000980  f :     0.006163
      f+1     :     0.000805
      f-1     :     0.000784
      f+2     :     0.000619
      f-2     :     0.001149
      f+3     :     0.000857
      f-3     :     0.000968
 17 C s       :     2.718795  s :     2.718795
      pz      :     0.848716  p :     2.801611
      px      :     0.916050
      py      :     1.036846
      dz2     :     0.146585  d :     0.457118
      dxz     :     0.115869
      dyz     :     0.043608
      dx2y2   :     0.046677
      dxy     :     0.104379
      f0      :     0.011441  f :     0.066231
      f+1     :     0.016040
      f-1     :     0.008300
      f+2     :     0.012102
      f-2     :     0.009159
      f+3     :     0.005364
      f-3     :     0.003824
 18 H s       :     0.827874  s :     0.827874
      pz      :     0.028761  p :     0.135281
      px      :     0.038818
      py      :     0.067702
      dz2     :     0.002629  d :     0.027442
      dxz     :     0.001821
      dyz     :     0.006425
      dx2y2   :     0.007811
      dxy     :     0.008755
 19 H s       :     0.836476  s :     0.836476
      pz      :     0.028573  p :     0.136674
      px      :     0.053600
      py      :     0.054501
      dz2     :     0.002725  d :     0.026962
      dxz     :     0.004807
      dyz     :     0.002839
      dx2y2   :     0.009271
      dxy     :     0.007321
 20 H s       :     0.839186  s :     0.839186
      pz      :     0.058140  p :     0.136827
      px      :     0.039659
      py      :     0.039028
      dz2     :     0.008229  d :     0.026971
      dxz     :     0.007185
      dyz     :     0.006479
      dx2y2   :     0.001934
      dxy     :     0.003144
 21 H s       :     0.803570  s :     0.803570
      pz      :     0.063615  p :     0.155621
      px      :     0.055240
      py      :     0.036767
      dz2     :     0.007547  d :     0.028025
      dxz     :     0.007373
      dyz     :     0.005320
      dx2y2   :     0.003649
      dxy     :     0.004136


                      *****************************
                      * MAYER POPULATION ANALYSIS *
                      *****************************

  NA   - Mulliken gross atomic population
  ZA   - Total nuclear charge
  QA   - Mulliken gross atomic charge
  VA   - Mayer's total valence
  BVA  - Mayer's bonded valence
  FA   - Mayer's free valence

  ATOM       NA         ZA         QA         VA         BVA        FA
  0 C      6.2185     6.0000    -0.2185     3.9279     3.9279     0.0000
  1 C      6.1275     6.0000    -0.1275     3.9136     3.9136     0.0000
  2 C      6.1849     6.0000    -0.1849     3.8782     3.8782     0.0000
  3 C      6.0640     6.0000    -0.0640     3.5874     3.5874     0.0000
  4 H      0.9023     1.0000     0.0977     1.0110     1.0110     0.0000
  5 H      0.8821     1.0000     0.1179     1.0030     1.0030     0.0000
  6 H      0.8880     1.0000     0.1120     1.0161     1.0161    -0.0000
  7 C      6.1792     6.0000    -0.1792     3.8493     3.8493     0.0000
  8 C      5.7711     6.0000     0.2289     3.8591     3.8591     0.0000
  9 H      0.8933     1.0000     0.1067     1.0043     1.0043    -0.0000
 10 H      0.8709     1.0000     0.1291     1.0225     1.0225    -0.0000
 11 H      0.9044     1.0000     0.0956     1.0062     1.0062     0.0000
 12 H      0.9028     1.0000     0.0972     1.0100     1.0100    -0.0000
 13 C      5.6877     6.0000     0.3123     4.0650     4.0650     0.0000
 14 O      8.4551     8.0000    -0.4551     2.0051     2.0051     0.0000
 15 H      0.9855     1.0000     0.0145     0.9996     0.9996     0.0000
 16 O      8.3772     8.0000    -0.3772     1.9126     1.9126     0.0000
 17 C      6.0057     6.0000    -0.0057     3.8986     3.8986     0.0000
 18 H      0.9063     1.0000     0.0937     1.0004     1.0004     0.0000
 19 H      0.9323     1.0000     0.0677     0.9881     0.9881     0.0000
 20 H      0.9449     1.0000     0.0551     0.9901     0.9901     0.0000
 21 H      0.9166     1.0000     0.0834     1.0174     1.0174     0.0000

  Mayer bond orders larger than 0.100000
B(  0-C ,  1-C ) :   0.2814 B(  0-C ,  3-C ) :   1.5204 B(  0-C ,  4-H ) :   1.0203 
B(  0-C ,  5-H ) :   1.0013 B(  1-C ,  7-C ) :   1.5662 B(  1-C ,  9-H ) :   1.0028 
B(  1-C , 11-H ) :   1.0140 B(  2-C ,  3-C ) :   0.2410 B(  2-C ,  8-C ) :   1.5494 
B(  2-C , 10-H ) :   0.9866 B(  2-C , 12-H ) :   1.0329 B(  3-C ,  6-H ) :   0.9829 
B(  3-C , 13-C ) :   0.9576 B(  3-C , 15-H ) :  -0.1108 B(  7-C ,  8-C ) :   1.2409 
B(  7-C , 21-H ) :   1.0156 B(  8-C , 16-O ) :   1.0360 B( 13-C , 14-O ) :   1.9753 
B( 13-C , 15-H ) :   1.0634 B( 16-O , 17-C ) :   0.9011 B( 17-C , 18-H ) :   1.0035 
B( 17-C , 19-H ) :   1.0016 B( 17-C , 20-H ) :   0.9947 

-------
TIMINGS
-------

Total SCF time: 0 days 0 hours 1 min 3 sec 

Total time                  ....      63.653 sec
Sum of individual times     ....      62.804 sec  ( 98.7%)

Fock matrix formation       ....      61.761 sec  ( 97.0%)
Diagonalization             ....       0.351 sec  (  0.6%)
Density matrix formation    ....       0.024 sec  (  0.0%)
Population analysis         ....       0.041 sec  (  0.1%)
Initial guess               ....       0.146 sec  (  0.2%)
Orbital Transformation      ....       0.000 sec  (  0.0%)
Orbital Orthonormalization  ....       0.000 sec  (  0.0%)
DIIS solution               ....       0.175 sec  (  0.3%)
SOSCF solution              ....       0.228 sec  (  0.4%)

Maximum memory used throughout the entire SCF-calculation: 246.8 MB


           ************************************************************
           *        Program running with 16 parallel MPI-processes    *
           *              working on a common directory               *
           ************************************************************


--------------------------------------------------------------------------------
                             ORCA-MATRIX DRIVEN CI
--------------------------------------------------------------------------------


Wavefunction type
-----------------
Correlation treatment                      ...      CCSD     
Single excitations                         ... ON
Orbital optimization                       ... OFF
Calculation of Z vector                    ... OFF
Calculation of Brueckner orbitals          ... OFF
Perturbative triple excitations            ... ON
Calculation of F12 correction              ... OFF
Frozen core treatment                      ... chemical core (20 el)
Reference Wavefunction                     ... RHF
  Internal Orbitals:    10 ...   37 ( 28 MO's/ 56 electrons)
  Virtual  Orbitals:    38 ...  477 (440 MO's              )
Number of AO's                             ...    478
Number of electrons                        ...     76
Number of correlated electrons             ...     56

Algorithmic settings
--------------------
Integral transformation                    ... All integrals via the RI transformation
K(C) Formation                             ... RI-DLPNO
   PNO-Integral Storage                    ... ON DISK
   PNO occupation number cut-off           ... 3.330e-07
   Singles PNO occupation number cut-off   ... 9.990e-09
   PNO Mulliken prescreening cut-off       ... 1.000e-03
   Domain cut-off (Mulliken population)    ... 1.000e-03
   PNO Normalization                       ...    1
Maximum number of iterations               ...        50
Convergence tolerance (max. residuum)      ... 2.500e-05
Level shift for amplitude update           ... 2.000e-01
Maximum number of DIIS vectors             ...         7
DIIS turned on at iteration                ...         0
Damping before turning on DIIS             ...     0.500
[...]
Pair density normalization                  .... MP2 norm
Spin component scaling                      .... not used

   .... Finished loop over pairs
Making pair pair interaction lists          ... done

                       ===========================
                        274 OF  406 PAIRS ARE KEPT CCSD PAIRS
                        109 OF  406 PAIRS ARE KEPT MP2 PAIRS FOR (T)
                         23 OF  406 PAIRS ARE SKIPPED
                       ===========================

Total time spent in the initial guess                 ...     2.111 sec
SL-MP2 correlation energy (all non-screened pairs)    ...      -1.740932007525 Eh

Initial PNO correlation energy                        ...      -1.731316270928 Eh
sum of pair energies prescreened and skipped MP2 pairs...      -0.000152115169 Eh
sum of pair energies of crude MP2 skipped pairs only  ...      -0.000152115169 Eh
sum of MP2 pair energies for pairs that were not kept ...      -0.004557119806 Eh
sum of PNO error estimates for the kept pairs         ...      -0.005058616791 Eh
                                                          --------------------
sum of all corrections                                         -0.009615736597
Initial total correlation energy                               -1.740932007525
Thresholds for map construction and integral transformation for fine MP2 and CCSD(T) calculation:
   TCutMKN   ...     1.0e-03
   TCutDO    ...     1.0e-02
   TCutPairs ...     1.0e-04
   TCutCMO   ...     1.0e-03
   TCutCPAO  ...     1.0e-03

Thresholds for map construction and integral transformation for strong Triples:
   TCutMKN   ...     1.0e-02
   TCutDO    ...     2.0e-02
   TCutCMO   ...     1.0e-03
   TCutCPAO  ...     1.0e-03

Thresholds for map construction and integral transformation for weak Triples:
   TCutMKN   ...     1.0e-01
   TCutDO    ...     4.0e-02
   TCutCMO   ...     1.0e-03
   TCutCPAO  ...     1.0e-03

--------------------------------
LOCAL RI TRANSFORMATION (IAVPAO)
--------------------------------

Orbital window:      10 to 37
Number of PAOs:     478
Basis functions:    478 (182 shells)
Aux. functions:    1120 (340 shells)
Use SHARK:           on

Processing maps (0.0 sec)
Average map sizes:
   Aux shells -> MOs              28.0
   Aux shells -> PAOs            478.0
   MOs        -> AO shells       175.7
   PAOs       -> AO shells       182.0

Calculating integrals (0.5 sec, 114.378 MB)
Sorting integrals (0.1 sec, 114.366 MB)
Total time for the integral transformation: 0.6 sec
--------------------------------
INITIAL GUESS AND PNO GENERATION
--------------------------------

PNO truncation parameters                   .... 
    PAOOverlapThresh   =        1.000e-08

    TCutPairs          =        1.000e-04
    TCutPNO            =        3.330e-07
    TCutPNOSingles     =        9.990e-09
    TCutMP2Pairs       =        1.000e-05
    TCutMKN            =        1.000e-03
    TCutDO             =        1.000e-02

Pair selection                          .... not used
Type of local MP2 treatment                 .... semi-local MP2
Strategy for PNO selection                  .... occupation number selection
Pair density normalization                  .... MP2 norm
Spin component scaling                      .... not used

   .... Finished loop over pairs

 PNO Occupation Number Statistics: 
  | Av. % of trace(Dij) retained        ...  97.764446483590
  | sigma^2 in % of trace(Dij) retained ...   5.85e+00
  | Av. % of trace(Di) retained         ...  99.999003349680
  | sigma^2 in % of trace(Di) retained  ...   2.25e-07
 Distributions of % trace(Dij) recovered:
  |       >= 99.9  ...    79 ( 20.6 % of all pairs)
  |   [90.0, 99.0) ...   206 ( 53.8 % of all pairs)
  |   [99.0, 99.9) ...    98 ( 25.6 % of all pairs)
 Distributions of % trace(Di) recovered :
  |       >= 99.9  ...    28 (100.0 % of all I-pairs )

Making pair pair interaction lists          ... done

                       ===========================
                        274 OF  383 PAIRS ARE KEPT
                       ===========================

Total time spent in the initial guess                 ...     3.938 sec
SL-MP2 correlation energy (all non-screened pairs)    ...      -1.742194611041 Eh

Initial PNO correlation energy                        ...      -1.732638617135 Eh
sum of pair energies estimated for screened out pairs ...      -0.000152115169 Eh
sum of MP2 pair energies for pairs that were not kept ...      -0.004412846566 Eh
sum of PNO error estimates for the kept pairs         ...      -0.005143147340 Eh
                                                          --------------------
sum of all corrections                                         -0.009708109074
Initial total correlation energy                               -1.742346726210
Thresholds for map construction and integral transformation for fine MP2 and CCSD(T) calculation:
   TCutMKN   ...     1.0e-03
   TCutDO    ...     1.0e-02
   TCutPairs ...     1.0e-04
   TCutCMO   ...     1.0e-03
   TCutCPAO  ...     1.0e-03

Time for aux screen maps:            0.003
Time for maps after fine MP2:            0.014
-----------------------------
LOCAL RI TRANSFORMATION (IJV)
-----------------------------

Orbital window:      10 to 37
Basis functions:    478 (182 shells)
Aux. functions:    1120 (340 shells)
Use SHARK:           on

Processing maps (0.0 sec)
Average map sizes:
   Aux shells -> MOs(i)           27.4
   Aux shells -> MOs(j)           28.0
   MOs        -> AO shells       175.7

Calculating integrals (0.4 sec, 6.583 MB)
Sorting integrals (0.0 sec, 6.571 MB)
Total time for the integral transformation: 0.4 sec
--------------------------------
LOCAL RI TRANSFORMATION (VABPAO)
--------------------------------

Number of PAOs:     478
Basis functions:    478 (182 shells)
Aux. functions:    1120 (340 shells)
Use SHARK:           on

Processing maps (0.0 sec)
Average map sizes:
   Aux shells -> PAOs            478.0
   PAOs       -> AO shells       182.0

Calculating integrals (1.5 sec, 1952.391 MB)
Finished


-------------------------------------
Pair Pair Term precalculation with     
RI-(ij|mn) and (im|jn) transformation  
ON THE FLY                             
-------------------------------------

   IBatch   1 (of   2)              ... done (   33.844 sec)
   IBatch   2 (of   2)              ... done (   17.218 sec)
Total EXT                           ...          51.062 sec

---------------------
RI-PNO TRANSFORMATION
---------------------

Total Number of PNOs                   ...  9407
Average number of PNOs per pair        ...    34
Maximal number of PNOs per pair        ...    76
   #pairs with  1 -  5 PNOs   :    0
   #pairs with  6 - 10 PNOs   :    5
   #pairs with 11 - 15 PNOs   :   20
   #pairs with 16 - 20 PNOs   :   38
   #pairs with 21 - 25 PNOs   :   29
   #pairs with 26 - 30 PNOs   :   24
   #pairs with 31 - 35 PNOs   :   36
   #pairs with 36 - 40 PNOs   :   27
   #pairs with 41 - 45 PNOs   :   36
   #pairs with 46 - 50 PNOs   :   16
   #pairs with 51 - 55 PNOs   :   21
   #pairs with 56 - 60 PNOs   :    8
   #pairs with 61 - 65 PNOs   :    4
   #pairs with 66 - 70 PNOs   :    4
   #pairs with 71 - 75 PNOs   :    4
   #pairs with 76 - 80 PNOs   :    2

Generation of (ij|ab)[P] integrals            ... on
Generation of (ia|bc)[P],(ja|bc)[P] integrals ... on
Storage of 3 and 4 external integrals         ... on
Generation of ALL (ka|bc)[P] integrals        ... on
Keep RI integrals in memory                   ... off

Ibatch:  1 (of  1)
Starting 2-4 index PNO integral generation ... done

Timings:
Total PNO integral transformation time     ...         22.681 sec
Size of the 3-external file                ...       139 MB
Size of the 4-external file                ...       905 MB
Size of the IKJL file                      ...         0 MB
Size of the all 3-external file            ...      1948 MB
Size of the 1-external file                ...         6 MB

Making pair/pair overlap matrices          ... done (    2.203 sec)
Size of the pair overlap file              ... 520 MB
Redoing the guess amplitudes               ... done (    0.004 sec)

-------------------------
FINAL STARTUP INFORMATION
-------------------------

E(0)                                       ...   -459.673744971
E(SL-MP2)                                  ...     -1.742194611
E(SL-MP2) including corrections            ...     -1.742346726
Initial E(tot)                             ...   -461.416091697
<T|T>                                      ...      0.499884967
Number of pairs included                   ... 274
Total number of pairs                      ... 406

------------------------------------------------
                  RHF COUPLED CLUSTER ITERATIONS
------------------------------------------------

Number of PNO amplitudes to be optimized   ...       384541
Number of non-PNO amplitudes               ...     53046400
Untruncated number of regular amplitudes   ...     78601600

Iter       E(tot)           E(Corr)          Delta-E          Residual     Time
  0   -461.416172653     -1.732719573      0.009475038      0.019126749    5.92
                           *** Turning on DIIS ***
  1   -461.474742173     -1.791289093     -0.058569520      0.013769961    6.74
  2   -461.521035665     -1.837582585     -0.046293492      0.006674937    5.69
  3   -461.530394311     -1.846941232     -0.009358646      0.004230933    5.83
  4   -461.533488652     -1.850035572     -0.003094341      0.001930072    5.98
  5   -461.534603544     -1.851150464     -0.001114892      0.000787045    5.97
  6   -461.534885142     -1.851432062     -0.000281598      0.000320882    5.92
  7   -461.534916462     -1.851463383     -0.000031321      0.000158177    5.90
  8   -461.534931511     -1.851478431     -0.000015049      0.000074562    5.88
  9   -461.534920127     -1.851467047      0.000011384      0.000036141    5.97
 10   -461.534924471     -1.851471392     -0.000004344      0.000018130    5.94
               --- The Coupled-Cluster iterations have converged ---

----------------------
COUPLED CLUSTER ENERGY
----------------------

E(0)                                       ...   -459.673744971
E(CORR)(strong-pairs)                      ...     -1.851471392
E(CORR)(weak-pairs)                        ...     -0.009708109
E(CORR)(corrected)                         ...     -1.861179501
E(TOT)                                     ...   -461.534924471
Singles Norm <S|S>**1/2                    ...      0.089782813  
T1 diagnostic                              ...      0.011997733  

------------------
LARGEST AMPLITUDES
------------------
  29-> 38  29-> 38       0.056490
  30-> 38  30-> 38       0.055338
  19-> 38  19-> 38       0.049573
  33-> 38  33-> 38       0.048932
  15-> 38  15-> 38       0.044166
  30-> 38  29-> 38       0.043561
  32-> 39  32-> 39       0.043555
  22-> 38  22-> 38       0.041752
  22-> 39  22-> 39       0.033691
  20-> 38  19-> 38       0.033198
  34-> 41  34-> 41       0.032897
  36-> 38  36-> 38       0.032355
  31-> 42  31-> 42       0.032161
  35-> 38  35-> 38       0.031563
  31-> 38  31-> 38       0.031344
  34-> 38  34-> 38       0.030912


-------------------------------------------
DLPNO BASED TRIPLES CORRECTION
-------------------------------------------

Singles multiplier          ...  1.000000
TCutTNO                     ... 1.000e-09
TCutMP2Pairs                ... 1.000e-05
TCutDOStrong                ... 2.000e-02
TCutMKNStrong               ... 1.000e-02
TCutDOWeak                  ... 4.000e-02
TCutMKNWeak                 ... 1.000e-01

Fragment selection                          .... not used
Fock matrix occ-virt block is zero --> Setting DT_in_Triples to false.
Number of Triples that are to be computed   ...      2524

 . . . . . . . . .
10% done  
20% done  
30% done  
40% done  
50% done  
60% done  
70% done  
80% done  
90% done               (     96.592 sec)
Triples timings:
Total time for T0               ...   105.287 sec
Total time for Iterative (T)    ...     0.000 sec
Total time of overall (T)       ...   108.489 sec

Triples List generation         ...     0.000 sec
TNO generation                  ...     8.685 sec
Pair density generation         ...     0.006 sec
Look up tables                  ...     0.000 sec
Generating 3-index integrals    ...    67.014 sec
  Make 4-ind.int. from 3-ind.int...     7.406 sec
  Projecting amplitudes (D + S) ...    12.585 sec
  Downprojecting integrals      ...     0.001 sec
  Energy contr. (sum over a,b,c)...     1.810 sec
Fitting ET(->0)                 ...     0.000 sec

Everything after 3-index        ...    29.578 sec

Timing details:
 TNO integrals                  ...    73.902 sec
   Reading 3-index integrals    ...     0.368 sec
   Sorting integrals            ...     8.053 sec
       Sorting integrals 1      ...     0.001 sec
       Sorting integrals 2      ...     6.181 sec
       Sorting integrals 3      ...     0.270 sec
       Sorting integrals 4      ...     0.022 sec
       Sorting integrals 5      ...     0.082 sec
       Sorting integrals 6      ...     1.497 sec
   Calculating local VM**-1/2   ...     0.307 sec
   Orthogonal. integrals        ...     0.652 sec
   Multipl. 3-index integrals   ...    64.522 sec
   All concerning IRIab (w/TNO) ...     4.639 sec

 Calculate W0/W1                ...     7.771 sec
 W 3-ext contribution           ...     4.708 sec
 W 3-int contribution           ...     1.394 sec
 Sorting W                      ...     1.525 sec

 V exchange contribution        ...     0.726 sec

 Timings for Triples without generation
     of 3-index integrals       ...    29.576 sec
       0 weak pairs             ...    24.025 sec
       1 weak pair              ...     5.551 sec
       2 weak pairs             ...     0.000 sec
       3 weak pairs             ...     0.000 sec
  Extra time for extrapolation  ...     0.000 sec

Number of Triples   (0, 1, 2, 3 weak pairs; overall):   1625     899       0       0  (  2524)
Number of Atoms     (0, 1, 2, 3 weak pairs; overall):   15.2    12.8     0.0     0.0  (    22)
Number of PAOs      (0, 1, 2, 3 weak pairs; overall):  354.1   309.7     0.0     0.0  (   478)
Number of AuxFcns   (0, 1, 2, 3 weak pairs; overall):  433.9   346.2     0.0     0.0  (  1120)
Number of TNOs      (0, 1, 2, 3 weak pairs         ):   92.2    66.1     0.0     0.0
Aver. Number of NTNO, Atoms, PAOs, AuxFcns / Triples:   2524    82.9    14.3   338.3   402.6

Triples Correction (T)                     ...     -0.084721049
Final correlation energy                   ...     -1.945900549
E(CCSD)                                    ...   -461.534924471
E(CCSD(T))                                 ...   -461.619645520



--------------------------------------------------------------------------------
                                    TIMINGS
--------------------------------------------------------------------------------


Total execution time                   ...      269.861 sec

Localization of occupied MO's          ...        0.482 sec (  0.2%)
Fock Matrix Formation                  ...        8.087 sec (  3.0%)
Global overlap, Fock, MKN matrices     ...        0.399 sec (  0.1%)
Differential overlap integrals         ...        0.574 sec (  0.2%)
Organizing maps                        ...        0.041 sec (  0.0%)
RI 3-index integral generations        ...        3.169 sec (  1.2%)
RI-PNO integral transformation         ...       76.272 sec ( 28.3%)
Initial Guess                          ...        6.098 sec (  2.3%)
DIIS Solver                            ...        0.229 sec (  0.1%)
State Vector Update                    ...        0.016 sec (  0.0%)
Sigma-vector construction              ...       65.500 sec ( 24.3%)
  <D|H|D>(0-ext)                       ...        1.830 sec (  2.8% of sigma)
  <D|H|D>(2-ext Fock)                  ...        0.009 sec (  0.0% of sigma)
  <D|H|D>(2-ext)                       ...       10.279 sec ( 15.7% of sigma)
  <D|H|D>(4-ext)                       ...        5.833 sec (  8.9% of sigma)
  <D|H|D>(4-ext-corr)                  ...       25.922 sec ( 39.6% of sigma)
  CCSD doubles correction              ...        0.100 sec (  0.2% of sigma)
  <S|H|S>                              ...        0.303 sec (  0.5% of sigma)
  <S|H|D>(1-ext)                       ...        0.251 sec (  0.4% of sigma)
  <D|H|S>(1-ext)                       ...        0.005 sec (  0.0% of sigma)
  <S|H|D>(3-ext)                       ...        0.099 sec (  0.2% of sigma)
  Fock-dressing                        ...        6.184 sec (  9.4% of sigma)
  Singles amplitudes                   ...        0.656 sec (  1.0% of sigma)
  (ik|jl)-dressing                     ...        1.486 sec (  2.3% of sigma)
  (ij|ab),(ia|jb)-dressing             ...        1.473 sec (  2.2% of sigma)
  Pair energies                        ...        0.029 sec (  0.0% of sigma)
Total Time for computing (T)           ...      108.494 sec ( 40.2% of ALL)


Maximum memory used throughout the entire MDCI-calculation: 3972.4 MB

-------------------------   --------------------
FINAL SINGLE POINT ENERGY      -461.619645519899
-------------------------   --------------------


                            ***************************************
                            *     ORCA property calculations      *
                            ***************************************


  WARNING: The energy has been calculated at the MDCI level but the densities
           used in the property calculations are still SCF densities
           MDCI response densities have not been calculated 
           use %mdci Density linearized end
           or  %mdci Density unrelaxed end
           or  %mdci Density orbopt end

                                    ---------------------
                                    Active property flags
                                    ---------------------
   (+) Dipole Moment


------------------------------------------------------------------------------
                       ORCA ELECTRIC PROPERTIES CALCULATION
------------------------------------------------------------------------------

Dipole Moment Calculation                       ... on
Quadrupole Moment Calculation                   ... off
Polarizability Calculation                      ... off
GBWName                                         ... /tmp/42997/DATS_13_endo_iii_DLPNO.gbw
Electron density                                ... /tmp/42997/DATS_13_endo_iii_DLPNO.scfp
The origin for moment calculation is the CENTER OF MASS  = ( 0.041346, -0.084131  0.033948)

-------------
DIPOLE MOMENT
-------------
                                X             Y             Z
Electronic contribution:      2.23921      -4.64424       1.99429
Nuclear contribution   :     -3.14229       6.39396      -2.58006
                        -----------------------------------------
Total Dipole Moment    :     -0.90308       1.74972      -0.58577
                        -----------------------------------------
Magnitude (a.u.)       :      2.05431
Magnitude (Debye)      :      5.22165



--------------------
Rotational spectrum 
--------------------
 
Rotational constants in cm-1:     0.052102     0.037211     0.026484 
Rotational constants in MHz :  1561.986182  1115.566293   793.970403 

 Dipole components along the rotational axes: 
x,y,z [a.u.] :     1.044509     1.660417    -0.610103 
x,y,z [Debye]:     2.654930     4.220444    -1.550758 

 

Timings for individual modules:

Sum of individual times         ...      335.822 sec (=   5.597 min)
GTO integral calculation        ...        0.720 sec (=   0.012 min)   0.2 %
SCF iterations                  ...       64.013 sec (=   1.067 min)  19.1 %
MDCI module                     ...      271.089 sec (=   4.518 min)  80.7 %
                             ****ORCA TERMINATED NORMALLY****
TOTAL RUN TIME: 0 days 0 hours 5 minutes 36 seconds 355 msec
