Job Start Time: Fri Jun 24 13:11:46 MDT 2022
SLURM Job ID: 43007
SLURM Job Name: DATS_14_exo_i_DLPNO
SLURM Job Nodes: node09
SLURM Memory / CPU: 8000

                                 *****************
                                 * O   R   C   A *
                                 *****************

                                            #,                                       
                                            ###                                      
                                            ####                                     
                                            #####                                    
                                            ######                                   
                                           ########,                                 
                                     ,,################,,,,,                         
                               ,,#################################,,                 
                          ,,##########################################,,             
                       ,#########################################, ''#####,          
                    ,#############################################,,   '####,        
                  ,##################################################,,,,####,       
                ,###########''''           ''''###############################       
              ,#####''   ,,,,##########,,,,          '''####'''          '####       
            ,##' ,,,,###########################,,,                        '##       
           ' ,,###''''                  '''############,,,                           
         ,,##''                                '''############,,,,        ,,,,,,###''
      ,#''                                            '''#######################'''  
     '                                                          ''''####''''         
             ,#######,   #######,   ,#######,      ##                                
            ,#'     '#,  ##    ##  ,#'     '#,    #''#        ######   ,####,        
            ##       ##  ##   ,#'  ##            #'  '#       #        #'  '#        
            ##       ##  #######   ##           ,######,      #####,   #    #        
            '#,     ,#'  ##    ##  '#,     ,#' ,#      #,         ##   #,  ,#        
             '#######'   ##     ##  '#######'  #'      '#     #####' # '####'        



                  #######################################################
                  #                        -***-                        #
                  #          Department of theory and spectroscopy      #
                  #    Directorship and core code : Frank Neese         #
                  #        Max Planck Institute fuer Kohlenforschung    #
                  #                Kaiser Wilhelm Platz 1               #
                  #                 D-45470 Muelheim/Ruhr               #
                  #                      Germany                        #
                  #                                                     #
                  #                  All rights reserved                #
                  #                        -***-                        #
                  #######################################################


                         Program Version 5.0.3 -  RELEASE  -


 With contributions from (in alphabetic order):
   Daniel Aravena         : Magnetic Suceptibility
   Michael Atanasov       : Ab Initio Ligand Field Theory (pilot matlab implementation)
   Alexander A. Auer      : GIAO ZORA, VPT2 properties, NMR spectrum
   Ute Becker             : Parallelization
   Giovanni Bistoni       : ED, misc. LED, open-shell LED, HFLD
   Martin Brehm           : Molecular dynamics
   Dmytro Bykov           : SCF Hessian
   Vijay G. Chilkuri      : MRCI spin determinant printing, contributions to CSF-ICE
   Dipayan Datta          : RHF DLPNO-CCSD density
   Achintya Kumar Dutta   : EOM-CC, STEOM-CC
   Dmitry Ganyushin       : Spin-Orbit,Spin-Spin,Magnetic field MRCI
   Miquel Garcia          : C-PCM and meta-GGA Hessian, CC/C-PCM, Gaussian charge scheme
   Yang Guo               : DLPNO-NEVPT2, F12-NEVPT2, CIM, IAO-localization
   Andreas Hansen         : Spin unrestricted coupled pair/coupled cluster methods
   Benjamin Helmich-Paris : MC-RPA, TRAH-SCF, COSX integrals
   Lee Huntington         : MR-EOM, pCC
   Robert Izsak           : Overlap fitted RIJCOSX, COSX-SCS-MP3, EOM
   Marcus Kettner         : VPT2
   Christian Kollmar      : KDIIS, OOCD, Brueckner-CCSD(T), CCSD density, CASPT2, CASPT2-K
   Simone Kossmann        : Meta GGA functionals, TD-DFT gradient, OOMP2, MP2 Hessian
   Martin Krupicka        : Initial AUTO-CI
   Lucas Lang             : DCDCAS
   Marvin Lechner         : AUTO-CI (C++ implementation), FIC-MRCC
   Dagmar Lenk            : GEPOL surface, SMD
   Dimitrios Liakos       : Extrapolation schemes; Compound Job, initial MDCI parallelization
   Dimitrios Manganas     : Further ROCIS development; embedding schemes
   Dimitrios Pantazis     : SARC Basis sets
   Anastasios Papadopoulos: AUTO-CI, single reference methods and gradients
   Taras Petrenko         : DFT Hessian,TD-DFT gradient, ASA, ECA, R-Raman, ABS, FL, XAS/XES, NRVS
   Peter Pinski           : DLPNO-MP2, DLPNO-MP2 Gradient
   Christoph Reimann      : Effective Core Potentials
   Marius Retegan         : Local ZFS, SOC
   Christoph Riplinger    : Optimizer, TS searches, QM/MM, DLPNO-CCSD(T), (RO)-DLPNO pert. Triples
   Tobias Risthaus        : Range-separated hybrids, TD-DFT gradient, RPA, STAB
   Michael Roemelt        : Original ROCIS implementation
   Masaaki Saitow         : Open-shell DLPNO-CCSD energy and density
   Barbara Sandhoefer     : DKH picture change effects
   Avijit Sen             : IP-ROCIS
   Kantharuban Sivalingam : CASSCF convergence, NEVPT2, FIC-MRCI
   Bernardo de Souza      : ESD, SOC TD-DFT
   Georgi Stoychev        : AutoAux, RI-MP2 NMR, DLPNO-MP2 response
   Willem Van den Heuvel  : Paramagnetic NMR
   Boris Wezisla          : Elementary symmetry handling
   Frank Wennmohs         : Technical directorship


 We gratefully acknowledge several colleagues who have allowed us to
 interface, adapt or use parts of their codes:
   Stefan Grimme, W. Hujo, H. Kruse, P. Pracht,  : VdW corrections, initial TS optimization,
                  C. Bannwarth, S. Ehlert          DFT functionals, gCP, sTDA/sTD-DF
   Ed Valeev, F. Pavosevic, A. Kumar             : LibInt (2-el integral package), F12 methods
   Garnet Chan, S. Sharma, J. Yang, R. Olivares  : DMRG
   Ulf Ekstrom                                   : XCFun DFT Library
   Mihaly Kallay                                 : mrcc  (arbitrary order and MRCC methods)
   Jiri Pittner, Ondrej Demel                    : Mk-CCSD
   Frank Weinhold                                : gennbo (NPA and NBO analysis)
   Christopher J. Cramer and Donald G. Truhlar   : smd solvation model
   Lars Goerigk                                  : TD-DFT with DH, B97 family of functionals
   V. Asgeirsson, H. Jonsson                     : NEB implementation
   FAccTs GmbH                                   : IRC, NEB, NEB-TS, DLPNO-Multilevel, CI-OPT
                                                   MM, QMMM, 2- and 3-layer-ONIOM, Crystal-QMMM,
                                                   LR-CPCM, SF, NACMEs, symmetry and pop. for TD-DFT,
                                                   nearIR, NL-DFT gradient (VV10), updates on ESD,
                                                   ML-optimized integration grids
   S Lehtola, MJT Oliveira, MAL Marques          : LibXC Library
   Liviu Ungur et al                             : ANISO software


 Your calculation uses the libint2 library for the computation of 2-el integrals
 For citations please refer to: http://libint.valeyev.net

 Your ORCA version has been built with support for libXC version: 5.1.0
 For citations please refer to: https://tddft.org/programs/libxc/

 This ORCA versions uses:
   CBLAS   interface :  Fast vector & matrix operations
   LAPACKE interface :  Fast linear algebra routines
   SCALAPACK package :  Parallel linear algebra routines
   Shared memory     :  Shared parallel matrices
   BLAS/LAPACK       :  OpenBLAS 0.3.15  USE64BITINT DYNAMIC_ARCH NO_AFFINITY Zen SINGLE_THREADED
        Core in use  :  Zen
   Copyright (c) 2011-2014, The OpenBLAS Project


================================================================================

----- Orbital basis set information -----
Your calculation utilizes the basis: def2-TZVPP
   F. Weigend and R. Ahlrichs, Phys. Chem. Chem. Phys. 7, 3297 (2005).

----- AuxC basis set information -----
Your calculation utilizes the auxiliary basis: def2-TZVPP/C
  H-La, Hf-Rn : A. Hellweg, C. Hattig, S. Hofener and W. Klopper, Theor. Chem. Acc. 117, 587 (2007).
        Ce-Lu : J. Chmela and M. E. Harding, Mol. Phys. (2018).

================================================================================
                                        WARNINGS
                       Please study these warnings very carefully!
================================================================================


WARNING: Post HF methods need fully converged wavefunctions
  ===> : Setting SCFConvForced true
         You can overwrite this default with %scf ConvForced false 


WARNING: MDCI localization with Augmented Hessian Foster-Boys
  ===> : Switching off randomization!

INFO   : the flag for use of the SHARK integral package has been found!

================================================================================
                                       INPUT FILE
================================================================================
NAME = /tmp/43007/DATS_14_exo_i_DLPNO.inp
|  1> # DATS_14_exo_i_DLPNO
|  2> %maxcore 4000
|  3> %pal nprocs 16 end
|  4> ! pal16 DLPNO-CCSD(T) def2-tzvpp def2-tzvpp/C
|  5> 
|  6> * xyz 0 1
|  7>  C   0.95383900  -1.27006900   0.75812400
|  8>  C  -0.24861000  -1.00294400  -0.91320600
|  9>  C   0.32640100   1.74852900  -0.33781700
| 10>  C   1.61450900  -0.09990800   1.09669400
| 11>  H   0.20459900  -1.68133900   1.42737600
| 12>  H   1.51389600  -1.99653800   0.17527800
| 13>  H   1.33459700   0.48875500   1.96268300
| 14>  C  -1.22091800  -0.12616600  -0.47317900
| 15>  C  -0.91112800   1.22648100  -0.13850400
| 16>  H  -0.56370800  -2.01760300  -1.13605100
| 17>  H   0.56314400   2.74345200   0.02639400
| 18>  H  -1.63604100   1.80783400   0.42177000
| 19>  H   0.61168800  -0.63662000  -1.46235600
| 20>  H   1.04715500   1.30125400  -1.01069600
| 21>  O  -2.42500200  -0.68409100  -0.18206800
| 22>  C  -3.42274400   0.11378500   0.41944300
| 23>  H  -3.66624200   0.98506400  -0.19923900
| 24>  H  -4.30219100  -0.52408400   0.50458800
| 25>  H  -3.12293100   0.45018300   1.41897100
| 26>  C   2.78505600   0.28439800   0.33285900
| 27>  O   3.09555600  -0.22587800  -0.73581700
| 28>  H   3.39316800   1.11476400   0.74787800
| 29> **                         ****END OF INPUT****
================================================================================

                       ****************************
                       * Single Point Calculation *
                       ****************************

---------------------------------
CARTESIAN COORDINATES (ANGSTROEM)
---------------------------------
  C      0.953839   -1.270069    0.758124
  C     -0.248610   -1.002944   -0.913206
  C      0.326401    1.748529   -0.337817
  C      1.614509   -0.099908    1.096694
  H      0.204599   -1.681339    1.427376
  H      1.513896   -1.996538    0.175278
  H      1.334597    0.488755    1.962683
  C     -1.220918   -0.126166   -0.473179
  C     -0.911128    1.226481   -0.138504
  H     -0.563708   -2.017603   -1.136051
  H      0.563144    2.743452    0.026394
  H     -1.636041    1.807834    0.421770
  H      0.611688   -0.636620   -1.462356
  H      1.047155    1.301254   -1.010696
  O     -2.425002   -0.684091   -0.182068
  C     -3.422744    0.113785    0.419443
  H     -3.666242    0.985064   -0.199239
  H     -4.302191   -0.524084    0.504588
  H     -3.122931    0.450183    1.418971
  C      2.785056    0.284398    0.332859
  O      3.095556   -0.225878   -0.735817
  H      3.393168    1.114764    0.747878

----------------------------
CARTESIAN COORDINATES (A.U.)
----------------------------
  NO LB      ZA    FRAG     MASS         X           Y           Z
   0 C     6.0000    0    12.011    1.802494   -2.400083    1.432647
   1 C     6.0000    0    12.011   -0.469805   -1.895289   -1.725709
   2 C     6.0000    0    12.011    0.616808    3.304241   -0.638382
   3 C     6.0000    0    12.011    3.050980   -0.188799    2.072451
   4 H     1.0000    0     1.008    0.386636   -3.177270    2.697350
   5 H     1.0000    0     1.008    2.860849   -3.772910    0.331227
   6 H     1.0000    0     1.008    2.522023    0.923613    3.708933
   7 C     6.0000    0    12.011   -2.307201   -0.238419   -0.894179
   8 C     6.0000    0    12.011   -1.721782    2.317713   -0.261735
   9 H     1.0000    0     1.008   -1.065254   -3.812717   -2.146825
  10 H     1.0000    0     1.008    1.064188    5.184373    0.049877
  11 H     1.0000    0     1.008   -3.091669    3.416311    0.797030
  12 H     1.0000    0     1.008    1.155923   -1.203037   -2.763452
  13 H     1.0000    0     1.008    1.978836    2.459014   -1.909939
  14 O     8.0000    0    15.999   -4.582590   -1.292745   -0.344059
  15 C     6.0000    0    12.011   -6.468049    0.215022    0.792632
  16 H     1.0000    0     1.008   -6.928193    1.861501   -0.376507
  17 H     1.0000    0     1.008   -8.129963   -0.990375    0.953533
  18 H     1.0000    0     1.008   -5.901484    0.850723    2.681467
  19 C     6.0000    0    12.011    5.262993    0.537434    0.629012
  20 O     8.0000    0    15.999    5.849753   -0.426848   -1.390493
  21 H     1.0000    0     1.008    6.412158    2.106599    1.413285

--------------------------------
INTERNAL COORDINATES (ANGSTROEM)
--------------------------------
 C      0   0   0     0.000000000000     0.00000000     0.00000000
 C      1   0   0     2.076194435048     0.00000000     0.00000000
 C      2   1   0     2.869200902895    81.13420502     0.00000000
 C      1   2   3     1.385781822554   111.35506429   347.43500032
 H      1   2   3     1.085542182508    98.35470082   114.17871792
 H      1   2   3     1.086798284378    87.29138783   229.72564295
 H      4   1   2     1.083887357355   122.05145160   106.97603261
 C      2   1   3     1.381211884135   103.46890956   306.19635537
 C      3   2   1     1.357843073449    58.53972717   250.61237245
 H      2   1   3     1.085577970442   102.30398151   184.15970122
 H      3   2   1     1.085619029171   171.82364830   333.62931450
 H      9   3   2     1.085070100617   118.59971549   168.26921800
 H      2   1   3     1.084376154422    89.52156668    67.37367130
 H      3   2   1     1.082731454601    67.20910450    90.11885826
 O      8   2   1     1.358618489129   115.56055204   257.66182375
 C     15   8   2     1.412059026054   119.04214282   172.72024470
 H     16  15   8     1.095986217509   111.45148166    58.26081004
 H     16  15   8     1.089749309702   105.82918998   176.95218595
 H     16  15   8     1.096406709281   111.62260368   295.65614946
 C      4   1   2     1.449591421080   118.69194346   281.68335656
 O     20   4   1     1.224279477551   123.65963792    13.35571216
 H     20   4   1     1.109751624852   116.34647877   191.10822989

---------------------------
INTERNAL COORDINATES (A.U.)
---------------------------
 C      0   0   0     0.000000000000     0.00000000     0.00000000
 C      1   0   0     3.923438883013     0.00000000     0.00000000
 C      2   1   0     5.422003929670    81.13420502     0.00000000
 C      1   2   3     2.618748125993   111.35506429   347.43500032
 H      1   2   3     2.051377431759    98.35470082   114.17871792
 H      1   2   3     2.053751120289    87.29138783   229.72564295
 H      4   1   2     2.048250265421   122.05145160   106.97603261
 C      2   1   3     2.610112193933   103.46890956   306.19635537
 C      3   2   1     2.565951541661    58.53972717   250.61237245
 H      2   1   3     2.051445061154   102.30398151   184.15970122
 H      3   2   1     2.051522650907   171.82364830   333.62931450
 H      9   3   2     2.050485326273   118.59971549   168.26921800
 H      2   1   3     2.049173958013    89.52156668    67.37367130
 H      3   2   1     2.046065925778    67.20910450    90.11885826
 O      8   2   1     2.567416864935   115.56055204   257.66182375
 C     15   8   2     2.668404844174   119.04214282   172.72024470
 H     16  15   8     2.071113797644   111.45148166    58.26081004
 H     16  15   8     2.059327749966   105.82918998   176.95218595
 H     16  15   8     2.071908411935   111.62260368   295.65614946
 C      4   1   2     2.739330791924   118.69194346   281.68335656
 O     20   4   1     2.313552923951   123.65963792    13.35571216
 H     20   4   1     2.097126647644   116.34647877   191.10822989

---------------------
BASIS SET INFORMATION
---------------------
There are 3 groups of distinct atoms

 Group   1 Type C   : 11s6p2d1f contracted to 5s3p2d1f pattern {62111/411/11/1}
 Group   2 Type H   : 5s2p1d contracted to 3s2p1d pattern {311/11/1}
 Group   3 Type O   : 11s6p2d1f contracted to 5s3p2d1f pattern {62111/411/11/1}

Atom   0C    basis set group =>   1
Atom   1C    basis set group =>   1
Atom   2C    basis set group =>   1
Atom   3C    basis set group =>   1
Atom   4H    basis set group =>   2
Atom   5H    basis set group =>   2
Atom   6H    basis set group =>   2
Atom   7C    basis set group =>   1
Atom   8C    basis set group =>   1
Atom   9H    basis set group =>   2
Atom  10H    basis set group =>   2
Atom  11H    basis set group =>   2
Atom  12H    basis set group =>   2
Atom  13H    basis set group =>   2
Atom  14O    basis set group =>   3
Atom  15C    basis set group =>   1
Atom  16H    basis set group =>   2
Atom  17H    basis set group =>   2
Atom  18H    basis set group =>   2
Atom  19C    basis set group =>   1
Atom  20O    basis set group =>   3
Atom  21H    basis set group =>   2
---------------------------------
AUXILIARY/C BASIS SET INFORMATION
---------------------------------
There are 3 groups of distinct atoms

 Group   1 Type C   : 8s6p5d3f1g contracted to 8s6p4d3f1g pattern {11111111/111111/2111/111/1}
 Group   2 Type H   : 4s3p2d1f contracted to 4s3p2d1f pattern {1111/111/11/1}
 Group   3 Type O   : 8s6p5d3f1g contracted to 8s6p4d3f1g pattern {11111111/111111/2111/111/1}

Atom   0C    basis set group =>   1
Atom   1C    basis set group =>   1
Atom   2C    basis set group =>   1
Atom   3C    basis set group =>   1
Atom   4H    basis set group =>   2
Atom   5H    basis set group =>   2
Atom   6H    basis set group =>   2
Atom   7C    basis set group =>   1
Atom   8C    basis set group =>   1
Atom   9H    basis set group =>   2
Atom  10H    basis set group =>   2
Atom  11H    basis set group =>   2
Atom  12H    basis set group =>   2
Atom  13H    basis set group =>   2
Atom  14O    basis set group =>   3
Atom  15C    basis set group =>   1
Atom  16H    basis set group =>   2
Atom  17H    basis set group =>   2
Atom  18H    basis set group =>   2
Atom  19C    basis set group =>   1
Atom  20O    basis set group =>   3
Atom  21H    basis set group =>   2


           ************************************************************
           *        Program running with 16 parallel MPI-processes    *
           *              working on a common directory               *
           ************************************************************
------------------------------------------------------------------------------
                           ORCA GTO INTEGRAL CALCULATION
------------------------------------------------------------------------------
------------------------------------------------------------------------------
                   ___                                                        
                  /   \      - P O W E R E D   B Y -                         
                 /     \                                                     
                 |  |  |   _    _      __       _____    __    __             
                 |  |  |  | |  | |    /  \     |  _  \  |  |  /  |          
                  \  \/   | |  | |   /    \    | | | |  |  | /  /          
                 / \  \   | |__| |  /  /\  \   | |_| |  |  |/  /          
                |  |  |   |  __  | /  /__\  \  |    /   |      \           
                |  |  |   | |  | | |   __   |  |    \   |  |\   \          
                \     /   | |  | | |  |  |  |  | |\  \  |  | \   \       
                 \___/    |_|  |_| |__|  |__|  |_| \__\ |__|  \__/        
                                                                              
                      - O R C A' S   B I G   F R I E N D -                    
                                      &                                       
                       - I N T E G R A L  F E E D E R -                       
                                                                              
 v1 FN, 2020, v2 2021                                                         
------------------------------------------------------------------------------


Reading SHARK input file /tmp/43007/DATS_14_exo_i_DLPNO.SHARKINP.tmp ... ok
----------------------
SHARK INTEGRAL PACKAGE
----------------------

Number of atoms                             ...     22
Number of basis functions                   ...    478
Number of shells                            ...    182
Maximum angular momentum                    ...      3
Integral batch strategy                     ... SHARK/LIBINT Hybrid
RI-J (if used) integral strategy            ... SPLIT-RIJ (Revised 2003 algorithm where possible)
Printlevel                                  ...      1
Contraction scheme used                     ... SEGMENTED contraction
Coulomb Range Separation                    ... NOT USED
Exchange Range Separation                   ... NOT USED
Finite Nucleus Model                        ... NOT USED
Auxiliary Coulomb fitting basis             ... NOT available
Auxiliary J/K fitting basis                 ... NOT available
Auxiliary Correlation fitting basis         ... AVAILABLE
   # of basis functions in Aux-C            ...   1120
   # of shells in Aux-C                     ...    340
   Maximum angular momentum in Aux-C        ...      4
Auxiliary 'external' fitting basis          ... NOT available
Integral threshold                          ...     1.000000e-10
Primitive cut-off                           ...     1.000000e-11
Primitive pair pre-selection threshold      ...     1.000000e-11

Calculating pre-screening integrals         ... done (  0.1 sec) Dimension = 182
Organizing shell pair data                  ... done (  0.1 sec)
Shell pair information
Total number of shell pairs                 ...     16653
Shell pairs after pre-screening             ...     14195
Total number of primitive shell pairs       ...     44212
Primitive shell pairs kept                  ...     28161
          la=0 lb=0:   3155 shell pairs
          la=1 lb=0:   4027 shell pairs
          la=1 lb=1:   1327 shell pairs
          la=2 lb=0:   2254 shell pairs
          la=2 lb=1:   1476 shell pairs
          la=2 lb=2:    428 shell pairs
          la=3 lb=0:    732 shell pairs
          la=3 lb=1:    476 shell pairs
          la=3 lb=2:    270 shell pairs
          la=3 lb=3:     50 shell pairs

Calculating one electron integrals          ... done (  0.0 sec)
Calculating RI/C V-Matrix + Cholesky decomp.... done (  0.0 sec)
Calculating Nuclear repulsion               ... done (  0.0 sec) ENN=    525.343725777206 Eh

SHARK setup successfully completed in   0.6 seconds

Maximum memory used throughout the entire GTOINT-calculation: 26.4 MB


           ************************************************************
           *        Program running with 16 parallel MPI-processes    *
           *              working on a common directory               *
           ************************************************************
-------------------------------------------------------------------------------
                                 ORCA SCF
-------------------------------------------------------------------------------

------------
SCF SETTINGS
------------
Hamiltonian:
 Ab initio Hamiltonian  Method          .... Hartree-Fock(GTOs)


General Settings:
 Integral files         IntName         .... /tmp/43007/DATS_14_exo_i_DLPNO
 Hartree-Fock type      HFTyp           .... RHF
 Total Charge           Charge          ....    0
 Multiplicity           Mult            ....    1
 Number of Electrons    NEL             ....   76
 Basis Dimension        Dim             ....  478
 Nuclear Repulsion      ENuc            ....    525.3437257772 Eh

Convergence Acceleration:
 DIIS                   CNVDIIS         .... on
   Start iteration      DIISMaxIt       ....    12
   Startup error        DIISStart       ....  0.200000
   # of expansion vecs  DIISMaxEq       ....     5
   Bias factor          DIISBfac        ....   1.050
   Max. coefficient     DIISMaxC        ....  10.000
 Trust-Rad. Augm. Hess. CNVTRAH         .... auto
   Auto Start mean grad. ratio tolernc. ....  1.125000
   Auto Start start iteration           ....    20
   Auto Start num. interpolation iter.  ....    10
   Max. Number of Micro iterations      ....    16
   Max. Number of Macro iterations      .... Maxiter - #DIIS iter
   Number of Davidson start vectors     ....     2
   Converg. threshold I  (grad. norm)   ....   5.000e-05
   Converg. threshold II (energy diff.) ....   1.000e-06
   Grad. Scal. Fac. for Micro threshold ....   0.100
   Minimum threshold for Micro iter.    ....   0.010
   NR start threshold (gradient norm)   ....   0.001
   Initial trust radius                 ....   0.400
   Minimum AH scaling param. (alpha)    ....   1.000
   Maximum AH scaling param. (alpha)    .... 1000.000
   Orbital update algorithm             .... Taylor
   White noise on init. David. guess    .... on
   Maximum white noise                  ....   0.010
   Quad. conv. algorithm                .... NR
 SOSCF                  CNVSOSCF        .... on
   Start iteration      SOSCFMaxIt      ....   150
   Startup grad/error   SOSCFStart      ....  0.003300
 Level Shifting         CNVShift        .... on
   Level shift para.    LevelShift      ....    0.2500
   Turn off err/grad.   ShiftErr        ....    0.0010
 Zerner damping         CNVZerner       .... off
 Static damping         CNVDamp         .... on
   Fraction old density DampFac         ....    0.7000
   Max. Damping (<1)    DampMax         ....    0.9800
   Min. Damping (>=0)   DampMin         ....    0.0000
   Turn off err/grad.   DampErr         ....    0.1000
 Fernandez-Rico         CNVRico         .... off

SCF Procedure:
 Maximum # iterations   MaxIter         ....   125
 SCF integral mode      SCFMode         .... Direct
   Integral package                     .... SHARK and LIBINT hybrid scheme
 Reset frequency        DirectResetFreq ....    20
 Integral Threshold     Thresh          ....  1.000e-10 Eh
 Primitive CutOff       TCut            ....  1.000e-11 Eh

Convergence Tolerance:
 Convergence Check Mode ConvCheckMode   .... Total+1el-Energy
 Convergence forced     ConvForced      .... 1
 Energy Change          TolE            ....  1.000e-06 Eh
 1-El. energy change                    ....  1.000e-03 Eh
 Orbital Gradient       TolG            ....  5.000e-05
 Orbital Rotation angle TolX            ....  5.000e-05
 DIIS Error             TolErr          ....  1.000e-06


Diagonalization of the overlap matrix:
Smallest eigenvalue                        ... 5.830e-05
Time for diagonalization                   ...    0.028 sec
Threshold for overlap eigenvalues          ... 1.000e-08
Number of eigenvalues below threshold      ... 0
Time for construction of square roots      ...    0.027 sec
Total time needed                          ...    0.055 sec

Time for model grid setup =    0.087 sec

------------------------------
INITIAL GUESS: MODEL POTENTIAL
------------------------------
Loading Hartree-Fock densities                     ... done
Calculating cut-offs                               ... done
Initializing the effective Hamiltonian             ... done
Setting up the integral package (SHARK)            ... done
Starting the Coulomb interaction                   ... done (   0.1 sec)
Reading the grid                                   ... done
Mapping shells                                     ... done
Starting the XC term evaluation                    ... done (   0.0 sec)
Transforming the Hamiltonian                       ... done (   0.0 sec)
Diagonalizing the Hamiltonian                      ... done (   0.0 sec)
Back transforming the eigenvectors                 ... done (   0.0 sec)
Now organizing SCF variables                       ... done
                      ------------------
                      INITIAL GUESS DONE (   0.3 sec)
                      ------------------
--------------
SCF ITERATIONS
--------------
ITER       Energy         Delta-E        Max-DP      RMS-DP      [F,P]     Damp
               ***  Starting incremental Fock matrix formation  ***
  0   -459.2365615434   0.000000000000 0.05567146  0.00069354  0.3014099 0.7000
  1   -459.3884745227  -0.151912979336 0.05732453  0.00059029  0.2204375 0.7000
                               ***Turning on DIIS***
  2   -459.4817502944  -0.093275771723 0.02793691  0.00038605  0.1628102 0.7000
  3   -460.6359226157  -1.154172321296 0.00959604  0.00023087  0.1204492 0.7000
  4   -460.4863236376   0.149598978089 0.03209932  0.00056354  0.0847083 0.0000
  5   -459.7146922731   0.771631364528 0.01212456  0.00009845  0.0040864 0.0000
  6   -459.6846403631   0.030051910039 0.00999346  0.00006886  0.0024283 0.0000
                      *** Initiating the SOSCF procedure ***
                           *** Shutting down DIIS ***
                      *** Re-Reading the Fockian *** 
                      *** Removing any level shift *** 
ITER      Energy       Delta-E        Grad      Rot      Max-DP    RMS-DP
  7   -459.68191721   0.0027231578  0.002941  0.002941  0.004895  0.000042
               *** Restarting incremental Fock matrix formation ***
  8   -459.68106016   0.0008570423  0.001540  0.003932  0.002913  0.000032
  9   -459.68109627  -0.0000361062  0.000838  0.006327  0.004008  0.000048
 10   -459.68111735  -0.0000210837  0.000189  0.000323  0.000686  0.000009
 11   -459.68111946  -0.0000021082  0.000100  0.000226  0.000328  0.000003
                 **** Energy Check signals convergence ****
              ***Rediagonalizing the Fockian in SOSCF/NRSCF***

               *****************************************************
               *                     SUCCESS                       *
               *           SCF CONVERGED AFTER  12 CYCLES          *
               *****************************************************


----------------
TOTAL SCF ENERGY
----------------

Total Energy       :         -459.68111982 Eh          -12508.55919 eV

Components:
Nuclear Repulsion  :          525.34372578 Eh           14295.32954 eV
Electronic Energy  :         -985.02484560 Eh          -26803.88873 eV
One Electron Energy:        -1667.74889302 Eh          -45381.75454 eV
Two Electron Energy:          682.72404743 Eh           18577.86581 eV

Virial components:
Potential Energy   :         -918.83289885 Eh          -25002.71429 eV
Kinetic Energy     :          459.15177903 Eh           12494.15510 eV
Virial Ratio       :            2.00115287


---------------
SCF CONVERGENCE
---------------

  Last Energy change         ...   -3.6057e-07  Tolerance :   1.0000e-06
  Last MAX-Density change    ...    7.1296e-05  Tolerance :   1.0000e-05
  Last RMS-Density change    ...    1.5429e-06  Tolerance :   1.0000e-06
  Last Orbital Gradient      ...    3.5208e-05  Tolerance :   5.0000e-05
  Last Orbital Rotation      ...    1.2390e-04  Tolerance :   5.0000e-05

             **** THE GBW FILE WAS UPDATED (/tmp/43007/DATS_14_exo_i_DLPNO.gbw) ****
             **** DENSITY /tmp/43007/DATS_14_exo_i_DLPNO.scfp WAS UPDATED ****
             **** ENERGY FILE WAS UPDATED (/tmp/43007/DATS_14_exo_i_DLPNO.en.tmp) ****
             **** THE GBW FILE WAS UPDATED (/tmp/43007/DATS_14_exo_i_DLPNO.gbw) ****
             **** DENSITY /tmp/43007/DATS_14_exo_i_DLPNO.scfp WAS UPDATED ****
----------------
ORBITAL ENERGIES
----------------

  NO   OCC          E(Eh)            E(eV) 
   0   2.0000     -20.598617      -560.5169 
   1   2.0000     -20.513933      -558.2125 
   2   2.0000     -11.318589      -307.9945 
   3   2.0000     -11.304118      -307.6007 
   4   2.0000     -11.296012      -307.3801 
   5   2.0000     -11.261880      -306.4513 
   6   2.0000     -11.257357      -306.3283 
   7   2.0000     -11.244531      -305.9792 
   8   2.0000     -11.231132      -305.6146 
   9   2.0000     -11.208773      -305.0062 
  10   2.0000      -1.427624       -38.8476 
  11   2.0000      -1.352785       -36.8112 
  12   2.0000      -1.112984       -30.2858 
  13   2.0000      -1.045892       -28.4602 
  14   2.0000      -1.019590       -27.7444 
  15   2.0000      -0.942080       -25.6353 
  16   2.0000      -0.878488       -23.9049 
  17   2.0000      -0.870033       -23.6748 
  18   2.0000      -0.747699       -20.3459 
  19   2.0000      -0.733071       -19.9479 
  20   2.0000      -0.710200       -19.3255 
  21   2.0000      -0.688824       -18.7438 
  22   2.0000      -0.669065       -18.2062 
  23   2.0000      -0.667404       -18.1610 
  24   2.0000      -0.612262       -16.6605 
  25   2.0000      -0.605212       -16.4687 
  26   2.0000      -0.588642       -16.0178 
  27   2.0000      -0.580511       -15.7965 
  28   2.0000      -0.560723       -15.2581 
  29   2.0000      -0.549493       -14.9525 
  30   2.0000      -0.535407       -14.5692 
  31   2.0000      -0.524405       -14.2698 
  32   2.0000      -0.508210       -13.8291 
  33   2.0000      -0.497626       -13.5411 
  34   2.0000      -0.447455       -12.1759 
  35   2.0000      -0.400935       -10.9100 
  36   2.0000      -0.359209        -9.7746 
  37   2.0000      -0.279473        -7.6048 
  38   0.0000       0.065777         1.7899 
  39   0.0000       0.112591         3.0637 
  40   0.0000       0.129808         3.5323 
  41   0.0000       0.158077         4.3015 
  42   0.0000       0.162555         4.4233 
  43   0.0000       0.177316         4.8250 
  44   0.0000       0.191529         5.2118 
  45   0.0000       0.203820         5.5462 
  46   0.0000       0.206038         5.6066 
  47   0.0000       0.214785         5.8446 
  48   0.0000       0.218552         5.9471 
  49   0.0000       0.220639         6.0039 
  50   0.0000       0.230016         6.2590 
  51   0.0000       0.236500         6.4355 
  52   0.0000       0.246436         6.7059 
  53   0.0000       0.260988         7.1018 
  54   0.0000       0.287047         7.8110 
  55   0.0000       0.298422         8.1205 
  56   0.0000       0.306649         8.3443 
  57   0.0000       0.313153         8.5213 
  58   0.0000       0.317803         8.6479 
  59   0.0000       0.333331         9.0704 
  60   0.0000       0.339378         9.2350 
  61   0.0000       0.348394         9.4803 
  62   0.0000       0.360355         9.8058 
  63   0.0000       0.371139        10.0992 
  64   0.0000       0.387132        10.5344 
  65   0.0000       0.394523        10.7355 
  66   0.0000       0.406756        11.0684 
  67   0.0000       0.408439        11.1142 
  68   0.0000       0.437033        11.8923 
  69   0.0000       0.441154        12.0044 
  70   0.0000       0.462430        12.5834 
  71   0.0000       0.473976        12.8975 
  72   0.0000       0.490899        13.3580 
  73   0.0000       0.497337        13.5332 
  74   0.0000       0.500050        13.6071 
  75   0.0000       0.510538        13.8925 
  76   0.0000       0.516219        14.0470 
  77   0.0000       0.523536        14.2461 
  78   0.0000       0.531395        14.4600 
  79   0.0000       0.545449        14.8424 
  80   0.0000       0.553865        15.0714 
  81   0.0000       0.569467        15.4960 
  82   0.0000       0.571109        15.5407 
  83   0.0000       0.580804        15.8045 
  84   0.0000       0.583583        15.8801 
  85   0.0000       0.595983        16.2175 
  86   0.0000       0.600233        16.3332 
  87   0.0000       0.606014        16.4905 
  88   0.0000       0.618959        16.8427 
  89   0.0000       0.624787        17.0013 
  90   0.0000       0.632339        17.2068 
  91   0.0000       0.637339        17.3429 
  92   0.0000       0.652822        17.7642 
  93   0.0000       0.668869        18.2008 
  94   0.0000       0.680539        18.5184 
  95   0.0000       0.691833        18.8257 
  96   0.0000       0.696544        18.9539 
  97   0.0000       0.702881        19.1264 
  98   0.0000       0.733538        19.9606 
  99   0.0000       0.734595        19.9893 
 100   0.0000       0.741692        20.1825 
 101   0.0000       0.753719        20.5097 
 102   0.0000       0.763298        20.7704 
 103   0.0000       0.781349        21.2616 
 104   0.0000       0.790619        21.5138 
 105   0.0000       0.796261        21.6674 
 106   0.0000       0.813323        22.1316 
 107   0.0000       0.832317        22.6485 
 108   0.0000       0.844578        22.9821 
 109   0.0000       0.851353        23.1665 
 110   0.0000       0.858747        23.3677 
 111   0.0000       0.878822        23.9140 
 112   0.0000       0.892443        24.2846 
 113   0.0000       0.902917        24.5696 
 114   0.0000       0.920882        25.0585 
 115   0.0000       0.933377        25.3985 
 116   0.0000       0.956031        26.0149 
 117   0.0000       0.973124        26.4800 
 118   0.0000       0.994920        27.0731 
 119   0.0000       1.005312        27.3559 
 120   0.0000       1.019394        27.7391 
 121   0.0000       1.031595        28.0711 
 122   0.0000       1.050938        28.5975 
 123   0.0000       1.058409        28.8008 
 124   0.0000       1.066087        29.0097 
 125   0.0000       1.084205        29.5027 
 126   0.0000       1.097076        29.8530 
 127   0.0000       1.110629        30.2218 
 128   0.0000       1.121349        30.5135 
 129   0.0000       1.126938        30.6656 
 130   0.0000       1.146449        31.1965 
 131   0.0000       1.157755        31.5041 
 132   0.0000       1.163459        31.6593 
 133   0.0000       1.172059        31.8934 
 134   0.0000       1.180150        32.1135 
 135   0.0000       1.199633        32.6437 
 136   0.0000       1.205506        32.8035 
 137   0.0000       1.223850        33.3027 
 138   0.0000       1.233045        33.5529 
 139   0.0000       1.237082        33.6627 
 140   0.0000       1.248995        33.9869 
 141   0.0000       1.253355        34.1055 
 142   0.0000       1.256713        34.1969 
 143   0.0000       1.270330        34.5674 
 144   0.0000       1.283196        34.9175 
 145   0.0000       1.306052        35.5395 
 146   0.0000       1.313644        35.7461 
 147   0.0000       1.331135        36.2220 
 148   0.0000       1.350540        36.7501 
 149   0.0000       1.353963        36.8432 
 150   0.0000       1.365697        37.1625 
 151   0.0000       1.390398        37.8347 
 152   0.0000       1.395748        37.9802 
 153   0.0000       1.400126        38.0994 
 154   0.0000       1.416614        38.5480 
 155   0.0000       1.425175        38.7810 
 156   0.0000       1.454721        39.5850 
 157   0.0000       1.464045        39.8387 
 158   0.0000       1.483480        40.3675 
 159   0.0000       1.492793        40.6210 
 160   0.0000       1.501195        40.8496 
 161   0.0000       1.512375        41.1538 
 162   0.0000       1.525782        41.5186 
 163   0.0000       1.530016        41.6339 
 164   0.0000       1.558027        42.3961 
 165   0.0000       1.572395        42.7870 
 166   0.0000       1.577237        42.9188 
 167   0.0000       1.584125        43.1062 
 168   0.0000       1.590636        43.2834 
 169   0.0000       1.604331        43.6561 
 170   0.0000       1.620763        44.1032 
 171   0.0000       1.632797        44.4307 
 172   0.0000       1.633952        44.4621 
 173   0.0000       1.653577        44.9961 
 174   0.0000       1.664952        45.3056 
 175   0.0000       1.680757        45.7357 
 176   0.0000       1.686372        45.8885 
 177   0.0000       1.698307        46.2133 
 178   0.0000       1.709026        46.5050 
 179   0.0000       1.738406        47.3044 
 180   0.0000       1.749925        47.6179 
 181   0.0000       1.758205        47.8432 
 182   0.0000       1.766459        48.0678 
 183   0.0000       1.772752        48.2390 
 184   0.0000       1.799191        48.9585 
 185   0.0000       1.804679        49.1078 
 186   0.0000       1.825893        49.6851 
 187   0.0000       1.832901        49.8758 
 188   0.0000       1.848262        50.2938 
 189   0.0000       1.865053        50.7507 
 190   0.0000       1.887442        51.3599 
 191   0.0000       1.904948        51.8363 
 192   0.0000       1.917062        52.1659 
 193   0.0000       1.923182        52.3325 
 194   0.0000       1.942586        52.8605 
 195   0.0000       1.951670        53.1076 
 196   0.0000       1.976114        53.7728 
 197   0.0000       1.993098        54.2350 
 198   0.0000       2.013285        54.7843 
 199   0.0000       2.022490        55.0348 
 200   0.0000       2.042939        55.5912 
 201   0.0000       2.061983        56.1094 
 202   0.0000       2.119983        57.6877 
 203   0.0000       2.138735        58.1979 
 204   0.0000       2.147635        58.4401 
 205   0.0000       2.168319        59.0030 
 206   0.0000       2.196968        59.7825 
 207   0.0000       2.225574        60.5610 
 208   0.0000       2.255154        61.3659 
 209   0.0000       2.265412        61.6450 
 210   0.0000       2.281813        62.0913 
 211   0.0000       2.313953        62.9659 
 212   0.0000       2.320304        63.1387 
 213   0.0000       2.349606        63.9360 
 214   0.0000       2.369386        64.4743 
 215   0.0000       2.378746        64.7290 
 216   0.0000       2.388226        64.9869 
 217   0.0000       2.428780        66.0905 
 218   0.0000       2.457474        66.8713 
 219   0.0000       2.466039        67.1043 
 220   0.0000       2.482311        67.5471 
 221   0.0000       2.510767        68.3214 
 222   0.0000       2.542506        69.1851 
 223   0.0000       2.569989        69.9330 
 224   0.0000       2.630546        71.5808 
 225   0.0000       2.647962        72.0547 
 226   0.0000       2.699936        73.4690 
 227   0.0000       2.719953        74.0137 
 228   0.0000       2.740875        74.5830 
 229   0.0000       2.746708        74.7417 
 230   0.0000       2.774753        75.5049 
 231   0.0000       2.792841        75.9971 
 232   0.0000       2.813716        76.5651 
 233   0.0000       2.831699        77.0544 
 234   0.0000       2.855808        77.7105 
 235   0.0000       2.867576        78.0307 
 236   0.0000       2.895066        78.7788 
 237   0.0000       2.918077        79.4049 
 238   0.0000       2.950416        80.2849 
 239   0.0000       2.975775        80.9750 
 240   0.0000       2.985420        81.2374 
 241   0.0000       2.998541        81.5945 
 242   0.0000       3.014697        82.0341 
 243   0.0000       3.018846        82.1470 
 244   0.0000       3.021827        82.2281 
 245   0.0000       3.038681        82.6867 
 246   0.0000       3.048184        82.9453 
 247   0.0000       3.065858        83.4262 
 248   0.0000       3.073488        83.6339 
 249   0.0000       3.079528        83.7982 
 250   0.0000       3.092448        84.1498 
 251   0.0000       3.108207        84.5786 
 252   0.0000       3.113101        84.7118 
 253   0.0000       3.129819        85.1667 
 254   0.0000       3.135564        85.3230 
 255   0.0000       3.146685        85.6257 
 256   0.0000       3.165619        86.1409 
 257   0.0000       3.190280        86.8119 
 258   0.0000       3.204017        87.1857 
 259   0.0000       3.209504        87.3351 
 260   0.0000       3.212583        87.4188 
 261   0.0000       3.223792        87.7238 
 262   0.0000       3.226611        87.8006 
 263   0.0000       3.238270        88.1178 
 264   0.0000       3.247768        88.3763 
 265   0.0000       3.268662        88.9448 
 266   0.0000       3.293652        89.6248 
 267   0.0000       3.315012        90.2061 
 268   0.0000       3.325226        90.4840 
 269   0.0000       3.327880        90.5562 
 270   0.0000       3.341988        90.9401 
 271   0.0000       3.355940        91.3198 
 272   0.0000       3.369398        91.6860 
 273   0.0000       3.377095        91.8954 
 274   0.0000       3.381998        92.0289 
 275   0.0000       3.396715        92.4293 
 276   0.0000       3.417124        92.9847 
 277   0.0000       3.425020        93.1995 
 278   0.0000       3.440286        93.6149 
 279   0.0000       3.447707        93.8169 
 280   0.0000       3.456477        94.0555 
 281   0.0000       3.477255        94.6209 
 282   0.0000       3.481322        94.7316 
 283   0.0000       3.499155        95.2168 
 284   0.0000       3.516431        95.6870 
 285   0.0000       3.540801        96.3501 
 286   0.0000       3.557058        96.7925 
 287   0.0000       3.561691        96.9185 
 288   0.0000       3.567825        97.0855 
 289   0.0000       3.575529        97.2951 
 290   0.0000       3.579410        97.4007 
 291   0.0000       3.599249        97.9405 
 292   0.0000       3.605937        98.1225 
 293   0.0000       3.614815        98.3641 
 294   0.0000       3.628481        98.7360 
 295   0.0000       3.631207        98.8102 
 296   0.0000       3.636045        98.9418 
 297   0.0000       3.655228        99.4638 
 298   0.0000       3.660195        99.5990 
 299   0.0000       3.666329        99.7659 
 300   0.0000       3.693801       100.5134 
 301   0.0000       3.693955       100.5176 
 302   0.0000       3.715371       101.1004 
 303   0.0000       3.720749       101.2467 
 304   0.0000       3.737842       101.7118 
 305   0.0000       3.742528       101.8394 
 306   0.0000       3.758652       102.2781 
 307   0.0000       3.777947       102.8032 
 308   0.0000       3.787262       103.0566 
 309   0.0000       3.802030       103.4585 
 310   0.0000       3.816813       103.8608 
 311   0.0000       3.821194       103.9800 
 312   0.0000       3.835290       104.3636 
 313   0.0000       3.850886       104.7879 
 314   0.0000       3.856178       104.9319 
 315   0.0000       3.879114       105.5561 
 316   0.0000       3.887443       105.7827 
 317   0.0000       3.898500       106.0836 
 318   0.0000       3.905492       106.2739 
 319   0.0000       3.926791       106.8534 
 320   0.0000       3.931608       106.9845 
 321   0.0000       3.939646       107.2032 
 322   0.0000       3.965986       107.9200 
 323   0.0000       3.981924       108.3536 
 324   0.0000       3.991438       108.6126 
 325   0.0000       4.007087       109.0384 
 326   0.0000       4.014349       109.2360 
 327   0.0000       4.027988       109.6071 
 328   0.0000       4.045752       110.0905 
 329   0.0000       4.061381       110.5158 
 330   0.0000       4.074402       110.8701 
 331   0.0000       4.086913       111.2106 
 332   0.0000       4.099488       111.5527 
 333   0.0000       4.110188       111.8439 
 334   0.0000       4.128513       112.3426 
 335   0.0000       4.135409       112.5302 
 336   0.0000       4.142605       112.7260 
 337   0.0000       4.161235       113.2330 
 338   0.0000       4.167066       113.3916 
 339   0.0000       4.173409       113.5642 
 340   0.0000       4.189326       113.9974 
 341   0.0000       4.205837       114.4467 
 342   0.0000       4.214563       114.6841 
 343   0.0000       4.222257       114.8935 
 344   0.0000       4.233033       115.1867 
 345   0.0000       4.262032       115.9758 
 346   0.0000       4.277727       116.4029 
 347   0.0000       4.291940       116.7896 
 348   0.0000       4.299086       116.9841 
 349   0.0000       4.309366       117.2638 
 350   0.0000       4.324409       117.6732 
 351   0.0000       4.334495       117.9476 
 352   0.0000       4.349535       118.3569 
 353   0.0000       4.360734       118.6616 
 354   0.0000       4.374069       119.0245 
 355   0.0000       4.398957       119.7017 
 356   0.0000       4.405720       119.8857 
 357   0.0000       4.414716       120.1305 
 358   0.0000       4.426030       120.4384 
 359   0.0000       4.436890       120.7339 
 360   0.0000       4.452165       121.1496 
 361   0.0000       4.459088       121.3380 
 362   0.0000       4.463738       121.4645 
 363   0.0000       4.470890       121.6591 
 364   0.0000       4.485916       122.0680 
 365   0.0000       4.512273       122.7852 
 366   0.0000       4.518885       122.9651 
 367   0.0000       4.541602       123.5833 
 368   0.0000       4.564855       124.2160 
 369   0.0000       4.571517       124.3973 
 370   0.0000       4.585025       124.7649 
 371   0.0000       4.594702       125.0282 
 372   0.0000       4.628842       125.9572 
 373   0.0000       4.643441       126.3544 
 374   0.0000       4.658958       126.7767 
 375   0.0000       4.699916       127.8912 
 376   0.0000       4.703488       127.9884 
 377   0.0000       4.724473       128.5595 
 378   0.0000       4.745195       129.1233 
 379   0.0000       4.757223       129.4506 
 380   0.0000       4.764892       129.6593 
 381   0.0000       4.793395       130.4349 
 382   0.0000       4.803618       130.7131 
 383   0.0000       4.831529       131.4726 
 384   0.0000       4.857450       132.1779 
 385   0.0000       4.873104       132.6039 
 386   0.0000       4.901021       133.3635 
 387   0.0000       4.920064       133.8817 
 388   0.0000       4.925756       134.0366 
 389   0.0000       4.941721       134.4711 
 390   0.0000       4.954590       134.8212 
 391   0.0000       4.985916       135.6737 
 392   0.0000       5.005243       136.1996 
 393   0.0000       5.018006       136.5469 
 394   0.0000       5.055225       137.5597 
 395   0.0000       5.067985       137.9069 
 396   0.0000       5.074254       138.0775 
 397   0.0000       5.081040       138.2621 
 398   0.0000       5.123369       139.4140 
 399   0.0000       5.128976       139.5665 
 400   0.0000       5.139651       139.8570 
 401   0.0000       5.149135       140.1151 
 402   0.0000       5.187103       141.1482 
 403   0.0000       5.222699       142.1169 
 404   0.0000       5.253142       142.9453 
 405   0.0000       5.272219       143.4644 
 406   0.0000       5.280671       143.6944 
 407   0.0000       5.303465       144.3146 
 408   0.0000       5.328173       144.9870 
 409   0.0000       5.353533       145.6770 
 410   0.0000       5.377917       146.3406 
 411   0.0000       5.389420       146.6536 
 412   0.0000       5.408468       147.1719 
 413   0.0000       5.420653       147.5035 
 414   0.0000       5.436934       147.9465 
 415   0.0000       5.464025       148.6837 
 416   0.0000       5.482440       149.1848 
 417   0.0000       5.494799       149.5211 
 418   0.0000       5.523994       150.3155 
 419   0.0000       5.530824       150.5014 
 420   0.0000       5.547256       150.9485 
 421   0.0000       5.567996       151.5129 
 422   0.0000       5.597377       152.3124 
 423   0.0000       5.610158       152.6601 
 424   0.0000       5.638965       153.4440 
 425   0.0000       5.667801       154.2287 
 426   0.0000       5.700355       155.1145 
 427   0.0000       5.717641       155.5849 
 428   0.0000       5.721517       155.6904 
 429   0.0000       5.741534       156.2351 
 430   0.0000       5.759422       156.7218 
 431   0.0000       5.826315       158.5421 
 432   0.0000       5.839738       158.9074 
 433   0.0000       5.850899       159.2110 
 434   0.0000       5.871228       159.7642 
 435   0.0000       5.908407       160.7759 
 436   0.0000       5.931968       161.4171 
 437   0.0000       5.944222       161.7505 
 438   0.0000       5.964173       162.2934 
 439   0.0000       5.977109       162.6454 
 440   0.0000       5.997295       163.1947 
 441   0.0000       6.026227       163.9820 
 442   0.0000       6.060262       164.9081 
 443   0.0000       6.084562       165.5693 
 444   0.0000       6.137570       167.0118 
 445   0.0000       6.178404       168.1229 
 446   0.0000       6.243009       169.8809 
 447   0.0000       6.288764       171.1260 
 448   0.0000       6.388335       173.8354 
 449   0.0000       6.399537       174.1403 
 450   0.0000       6.515739       177.3023 
 451   0.0000       6.530283       177.6980 
 452   0.0000       6.611593       179.9106 
 453   0.0000       6.626618       180.3194 
 454   0.0000       6.890405       187.4975 
 455   0.0000       6.932978       188.6559 
 456   0.0000       6.964305       189.5084 
 457   0.0000       7.130278       194.0247 
 458   0.0000       7.185577       195.5295 
 459   0.0000       7.244551       197.1342 
 460   0.0000       7.326326       199.3595 
 461   0.0000       7.368117       200.4967 
 462   0.0000       7.403121       201.4492 
 463   0.0000       7.475870       203.4288 
 464   0.0000       7.634988       207.7586 
 465   0.0000       7.646318       208.0669 
 466   0.0000       7.821789       212.8417 
 467   0.0000       7.969433       216.8593 
 468   0.0000      24.002255       653.1346 
 469   0.0000      24.178358       657.9266 
 470   0.0000      24.209213       658.7662 
 471   0.0000      24.426591       664.6813 
 472   0.0000      24.559409       668.2955 
 473   0.0000      24.684363       671.6957 
 474   0.0000      24.732306       673.0003 
 475   0.0000      24.843957       676.0384 
 476   0.0000      45.532050      1238.9901 
 477   0.0000      45.936120      1249.9854 

                    ********************************
                    * MULLIKEN POPULATION ANALYSIS *
                    ********************************

-----------------------
MULLIKEN ATOMIC CHARGES
-----------------------
   0 C :   -0.087508
   1 C :   -0.188117
   2 C :   -0.146032
   3 C :   -0.212023
   4 H :    0.111848
   5 H :    0.139965
   6 H :    0.084957
   7 C :    0.274247
   8 C :   -0.153674
   9 H :    0.110164
  10 H :    0.096084
  11 H :    0.082873
  12 H :    0.131557
  13 H :    0.107786
  14 O :   -0.368206
  15 C :   -0.018321
  16 H :    0.073913
  17 H :    0.094322
  18 H :    0.068754
  19 C :    0.274346
  20 O :   -0.525179
  21 H :    0.048244
Sum of atomic charges:    0.0000000

--------------------------------
MULLIKEN REDUCED ORBITAL CHARGES
--------------------------------
  0 C s       :     3.111042  s :     3.111042
      pz      :     0.911991  p :     2.855156
      px      :     0.956304
      py      :     0.986860
      dz2     :     0.010511  d :     0.115489
      dxz     :     0.031429
      dyz     :     0.022773
      dx2y2   :     0.025600
      dxy     :     0.025176
      f0      :     0.000625  f :     0.005821
      f+1     :     0.000480
      f-1     :     0.000628
      f+2     :     0.000540
      f-2     :     0.001338
      f+3     :     0.000728
      f-3     :     0.001481
  1 C s       :     3.104828  s :     3.104828
      pz      :     0.989592  p :     2.992370
      px      :     0.990274
      py      :     1.012504
      dz2     :     0.011999  d :     0.085317
      dxz     :     0.019854
      dyz     :     0.010826
      dx2y2   :     0.018491
      dxy     :     0.024147
      f0      :     0.000655  f :     0.005602
      f+1     :     0.000685
      f-1     :     0.000673
      f+2     :     0.000809
      f-2     :     0.000881
      f+3     :     0.000942
      f-3     :     0.000957
  2 C s       :     3.182767  s :     3.182767
      pz      :     0.911250  p :     2.871237
      px      :     0.953973
      py      :     1.006014
      dz2     :     0.005126  d :     0.086304
      dxz     :     0.026446
      dyz     :     0.009735
      dx2y2   :     0.023011
      dxy     :     0.021985
      f0      :     0.000802  f :     0.005723
      f+1     :     0.000635
      f-1     :     0.000261
      f+2     :     0.000727
      f-2     :     0.001077
      f+3     :     0.001359
      f-3     :     0.000862
  3 C s       :     3.109959  s :     3.109959
      pz      :     1.026848  p :     2.997356
      px      :     0.926954
      py      :     1.043554
      dz2     :     0.013548  d :     0.096613
      dxz     :     0.015864
      dyz     :     0.026011
      dx2y2   :     0.021354
      dxy     :     0.019835
      f0      :     0.000673  f :     0.008096
      f+1     :     0.001090
      f-1     :     0.000922
      f+2     :     0.001181
      f-2     :     0.001638
      f+3     :     0.001097
      f-3     :     0.001495
  4 H s       :     0.847221  s :     0.847221
      pz      :     0.014957  p :     0.038865
      px      :     0.014600
      py      :     0.009308
      dz2     :     0.000425  d :     0.002067
      dxz     :     0.000568
      dyz     :     0.000311
      dx2y2   :     0.000341
      dxy     :     0.000422
  5 H s       :     0.817952  s :     0.817952
      pz      :     0.013129  p :     0.039899
      px      :     0.012748
      py      :     0.014023
      dz2     :     0.000326  d :     0.002184
      dxz     :     0.000366
      dyz     :     0.000525
      dx2y2   :     0.000511
      dxy     :     0.000456
  6 H s       :     0.868373  s :     0.868373
      pz      :     0.019273  p :     0.044347
      px      :     0.011336
      py      :     0.013738
      dz2     :     0.000680  d :     0.002323
      dxz     :     0.000520
      dyz     :     0.000579
      dx2y2   :     0.000287
      dxy     :     0.000258
  7 C s       :     3.104416  s :     3.104416
      pz      :     0.856113  p :     2.406771
      px      :     0.688782
      py      :     0.861876
      dz2     :     0.016095  d :     0.197424
      dxz     :     0.040663
      dyz     :     0.029188
      dx2y2   :     0.059945
      dxy     :     0.051533
      f0      :     0.001809  f :     0.017143
      f+1     :     0.002003
      f-1     :     0.001587
      f+2     :     0.001969
      f-2     :     0.002465
      f+3     :     0.004020
      f-3     :     0.003291
  8 C s       :     3.142480  s :     3.142480
      pz      :     1.025208  p :     2.902813
      px      :     0.958702
      py      :     0.918902
      dz2     :     0.006795  d :     0.099823
      dxz     :     0.019245
      dyz     :     0.015473
      dx2y2   :     0.035833
      dxy     :     0.022477
      f0      :     0.001189  f :     0.008558
      f+1     :     0.000744
      f-1     :     0.000946
      f+2     :     0.000918
      f-2     :     0.001259
      f+3     :     0.002001
      f-3     :     0.001500
  9 H s       :     0.848109  s :     0.848109
      pz      :     0.010409  p :     0.039504
      px      :     0.009618
      py      :     0.019477
      dz2     :     0.000232  d :     0.002222
      dxz     :     0.000085
      dyz     :     0.000619
      dx2y2   :     0.000601
      dxy     :     0.000684
 10 H s       :     0.863584  s :     0.863584
      pz      :     0.009434  p :     0.038301
      px      :     0.007632
      py      :     0.021236
      dz2     :     0.000229  d :     0.002031
      dxz     :     0.000129
      dyz     :     0.000546
      dx2y2   :     0.000568
      dxy     :     0.000560
 11 H s       :     0.871872  s :     0.871872
      pz      :     0.014227  p :     0.042973
      px      :     0.014999
      py      :     0.013748
      dz2     :     0.000351  d :     0.002282
      dxz     :     0.000466
      dyz     :     0.000378
      dx2y2   :     0.000600
      dxy     :     0.000488
 12 H s       :     0.821013  s :     0.821013
      pz      :     0.014781  p :     0.045205
      px      :     0.021403
      py      :     0.009022
      dz2     :     0.000412  d :     0.002224
      dxz     :     0.000623
      dyz     :     0.000196
      dx2y2   :     0.000511
      dxy     :     0.000481
 13 H s       :     0.841467  s :     0.841467
      pz      :     0.015284  p :     0.048564
      px      :     0.021435
      py      :     0.011845
      dz2     :     0.000368  d :     0.002183
      dxz     :     0.000590
      dyz     :     0.000385
      dx2y2   :     0.000488
      dxy     :     0.000352
 14 O s       :     3.769643  s :     3.769643
      pz      :     1.702951  p :     4.553322
      px      :     1.260018
      py      :     1.590353
      dz2     :     0.005294  d :     0.042990
      dxz     :     0.007005
      dyz     :     0.005881
      dx2y2   :     0.007601
      dxy     :     0.017209
      f0      :     0.000332  f :     0.002251
      f+1     :     0.000367
      f-1     :     0.000134
      f+2     :     0.000234
      f-2     :     0.000403
      f+3     :     0.000324
      f-3     :     0.000456
 15 C s       :     3.125699  s :     3.125699
      pz      :     0.966250  p :     2.759475
      px      :     0.855634
      py      :     0.937590
      dz2     :     0.027582  d :     0.123498
      dxz     :     0.016528
      dyz     :     0.028176
      dx2y2   :     0.020292
      dxy     :     0.030919
      f0      :     0.000780  f :     0.009649
      f+1     :     0.001869
      f-1     :     0.001255
      f+2     :     0.001033
      f-2     :     0.001648
      f+3     :     0.001404
      f-3     :     0.001660
 16 H s       :     0.891536  s :     0.891536
      pz      :     0.012565  p :     0.032428
      px      :     0.006673
      py      :     0.013190
      dz2     :     0.000440  d :     0.002123
      dxz     :     0.000191
      dyz     :     0.000573
      dx2y2   :     0.000349
      dxy     :     0.000571
 17 H s       :     0.870690  s :     0.870690
      pz      :     0.007706  p :     0.032865
      px      :     0.013538
      py      :     0.011621
      dz2     :     0.000206  d :     0.002123
      dxz     :     0.000448
      dyz     :     0.000208
      dx2y2   :     0.000647
      dxy     :     0.000614
 18 H s       :     0.896537  s :     0.896537
      pz      :     0.019080  p :     0.032591
      px      :     0.006713
      py      :     0.006798
      dz2     :     0.000724  d :     0.002118
      dxz     :     0.000557
      dyz     :     0.000605
      dx2y2   :     0.000072
      dxy     :     0.000160
 19 C s       :     3.123989  s :     3.123989
      pz      :     0.749159  p :     2.372234
      px      :     0.827040
      py      :     0.796035
      dz2     :     0.049083  d :     0.212088
      dxz     :     0.060891
      dyz     :     0.048599
      dx2y2   :     0.028133
      dxy     :     0.025382
      f0      :     0.003826  f :     0.017343
      f+1     :     0.003736
      f-1     :     0.002300
      f+2     :     0.002955
      f-2     :     0.002523
      f+3     :     0.001089
      f-3     :     0.000914
 20 O s       :     3.855103  s :     3.855103
      pz      :     1.371253  p :     4.633426
      px      :     1.697428
      py      :     1.564745
      dz2     :     0.012895  d :     0.034631
      dxz     :     0.007454
      dyz     :     0.009247
      dx2y2   :     0.001959
      dxy     :     0.003077
      f0      :     0.000597  f :     0.002020
      f+1     :     0.000337
      f-1     :     0.000467
      f+2     :     0.000217
      f-2     :     0.000286
      f+3     :     0.000068
      f-3     :     0.000047
 21 H s       :     0.915317  s :     0.915317
      pz      :     0.007102  p :     0.034186
      px      :     0.011977
      py      :     0.015107
      dz2     :     0.000384  d :     0.002253
      dxz     :     0.000255
      dyz     :     0.000668
      dx2y2   :     0.000385
      dxy     :     0.000562


                     *******************************
                     * LOEWDIN POPULATION ANALYSIS *
                     *******************************

----------------------
LOEWDIN ATOMIC CHARGES
----------------------
   0 C :    0.088649
   1 C :    0.047610
   2 C :    0.113991
   3 C :   -0.111749
   4 H :    0.011065
   5 H :    0.026864
   6 H :   -0.007334
   7 C :   -0.180975
   8 C :   -0.062895
   9 H :    0.009332
  10 H :    0.006837
  11 H :    0.013465
  12 H :    0.016133
  13 H :    0.011851
  14 O :    0.236657
  15 C :   -0.035199
  16 H :    0.002917
  17 H :    0.009335
  18 H :    0.000212
  19 C :   -0.196601
  20 O :   -0.003077
  21 H :    0.002912

-------------------------------
LOEWDIN REDUCED ORBITAL CHARGES
-------------------------------
  0 C s       :     2.744081  s :     2.744081
      pz      :     0.861021  p :     2.776241
      px      :     0.905784
      py      :     1.009436
      dz2     :     0.033475  d :     0.359023
      dxz     :     0.092687
      dyz     :     0.076279
      dx2y2   :     0.074606
      dxy     :     0.081977
      f0      :     0.003812  f :     0.032005
      f+1     :     0.003259
      f-1     :     0.003607
      f+2     :     0.003627
      f-2     :     0.005690
      f+3     :     0.004259
      f-3     :     0.007750
  1 C s       :     2.736227  s :     2.736227
      pz      :     0.903763  p :     2.880268
      px      :     0.975891
      py      :     1.000615
      dz2     :     0.033675  d :     0.306330
      dxz     :     0.073817
      dyz     :     0.037766
      dx2y2   :     0.082562
      dxy     :     0.078510
      f0      :     0.002776  f :     0.029565
      f+1     :     0.003098
      f-1     :     0.002710
      f+2     :     0.003809
      f-2     :     0.004608
      f+3     :     0.006311
      f-3     :     0.006253
  2 C s       :     2.758132  s :     2.758132
      pz      :     0.857695  p :     2.807178
      px      :     0.996012
      py      :     0.953471
      dz2     :     0.020781  d :     0.292436
      dxz     :     0.081711
      dyz     :     0.026893
      dx2y2   :     0.085807
      dxy     :     0.077244
      f0      :     0.003057  f :     0.028264
      f+1     :     0.002600
      f-1     :     0.001660
      f+2     :     0.003806
      f-2     :     0.003940
      f+3     :     0.007711
      f-3     :     0.005490
  3 C s       :     2.740231  s :     2.740231
      pz      :     0.981534  p :     2.966629
      px      :     0.970711
      py      :     1.014384
      dz2     :     0.056485  d :     0.366911
      dxz     :     0.059913
      dyz     :     0.086279
      dx2y2   :     0.076329
      dxy     :     0.087906
      f0      :     0.003739  f :     0.037978
      f+1     :     0.005607
      f-1     :     0.003961
      f+2     :     0.006183
      f-2     :     0.005656
      f+3     :     0.005301
      f-3     :     0.007530
  4 H s       :     0.815685  s :     0.815685
      pz      :     0.051922  p :     0.146366
      px      :     0.054088
      py      :     0.040355
      dz2     :     0.005286  d :     0.026884
      dxz     :     0.007254
      dyz     :     0.004324
      dx2y2   :     0.004421
      dxy     :     0.005599
  5 H s       :     0.794227  s :     0.794227
      pz      :     0.051202  p :     0.151008
      px      :     0.049584
      py      :     0.050221
      dz2     :     0.004184  d :     0.027902
      dxz     :     0.005152
      dyz     :     0.006081
      dx2y2   :     0.006467
      dxy     :     0.006019
  6 H s       :     0.816977  s :     0.816977
      pz      :     0.066455  p :     0.162046
      px      :     0.041930
      py      :     0.053661
      dz2     :     0.008946  d :     0.028311
      dxz     :     0.005882
      dyz     :     0.007178
      dx2y2   :     0.003098
      dxy     :     0.003207
  7 C s       :     2.715520  s :     2.715520
      pz      :     0.818601  p :     2.679015
      px      :     0.848674
      py      :     1.011740
      dz2     :     0.070987  d :     0.687624
      dxz     :     0.119556
      dyz     :     0.099839
      dx2y2   :     0.192661
      dxy     :     0.204581
      f0      :     0.007094  f :     0.098816
      f+1     :     0.010025
      f-1     :     0.006955
      f+2     :     0.012609
      f-2     :     0.014572
      f+3     :     0.025919
      f-3     :     0.021642
  8 C s       :     2.720268  s :     2.720268
      pz      :     0.924662  p :     2.910855
      px      :     1.011765
      py      :     0.974429
      dz2     :     0.029509  d :     0.390217
      dxz     :     0.067027
      dyz     :     0.056853
      dx2y2   :     0.113112
      dxy     :     0.123716
      f0      :     0.003739  f :     0.041554
      f+1     :     0.002606
      f-1     :     0.004016
      f+2     :     0.006067
      f-2     :     0.004170
      f+3     :     0.012132
      f-3     :     0.008824
  9 H s       :     0.811821  s :     0.811821
      pz      :     0.043737  p :     0.150609
      px      :     0.039051
      py      :     0.067821
      dz2     :     0.002905  d :     0.028239
      dxz     :     0.001137
      dyz     :     0.008023
      dx2y2   :     0.007500
      dxy     :     0.008673
 10 H s       :     0.819702  s :     0.819702
      pz      :     0.041567  p :     0.147178
      px      :     0.035103
      py      :     0.070509
      dz2     :     0.003108  d :     0.026283
      dxz     :     0.001393
      dyz     :     0.007262
      dx2y2   :     0.007005
      dxy     :     0.007514
 11 H s       :     0.804036  s :     0.804036
      pz      :     0.055276  p :     0.154432
      px      :     0.052559
      py      :     0.046597
      dz2     :     0.005063  d :     0.028067
      dxz     :     0.005772
      dyz     :     0.004439
      dx2y2   :     0.006631
      dxy     :     0.006162
 12 H s       :     0.795008  s :     0.795008
      pz      :     0.051728  p :     0.160010
      px      :     0.066730
      py      :     0.041553
      dz2     :     0.005566  d :     0.028850
      dxz     :     0.007505
      dyz     :     0.003144
      dx2y2   :     0.006123
      dxy     :     0.006512
 13 H s       :     0.801311  s :     0.801311
      pz      :     0.055581  p :     0.159289
      px      :     0.056216
      py      :     0.047493
      dz2     :     0.005397  d :     0.027548
      dxz     :     0.006813
      dyz     :     0.004840
      dx2y2   :     0.005853
      dxy     :     0.004646
 14 O s       :     3.232168  s :     3.232168
      pz      :     1.584869  p :     4.418240
      px      :     1.286621
      py      :     1.546749
      dz2     :     0.012325  d :     0.106790
      dxz     :     0.022359
      dyz     :     0.010831
      dx2y2   :     0.026718
      dxy     :     0.034557
      f0      :     0.000585  f :     0.006145
      f+1     :     0.000870
      f-1     :     0.000462
      f+2     :     0.000676
      f-2     :     0.000843
      f+3     :     0.001602
      f-3     :     0.001107
 15 C s       :     2.719054  s :     2.719054
      pz      :     0.973762  p :     2.799182
      px      :     0.870410
      py      :     0.955010
      dz2     :     0.094460  d :     0.451369
      dxz     :     0.063183
      dyz     :     0.099762
      dx2y2   :     0.070359
      dxy     :     0.123604
      f0      :     0.005666  f :     0.065594
      f+1     :     0.011724
      f-1     :     0.006761
      f+2     :     0.008429
      f-2     :     0.011204
      f+3     :     0.010624
      f-3     :     0.011187
 16 H s       :     0.833120  s :     0.833120
      pz      :     0.045689  p :     0.136881
      px      :     0.032373
      py      :     0.058819
      dz2     :     0.005548  d :     0.027081
      dxz     :     0.003265
      dyz     :     0.006740
      dx2y2   :     0.005348
      dxy     :     0.006181
 17 H s       :     0.827752  s :     0.827752
      pz      :     0.035687  p :     0.135460
      px      :     0.054670
      py      :     0.045102
      dz2     :     0.002476  d :     0.027453
      dxz     :     0.005968
      dyz     :     0.003723
      dx2y2   :     0.007714
      dxy     :     0.007571
 18 H s       :     0.835684  s :     0.835684
      pz      :     0.067481  p :     0.137084
      px      :     0.031641
      py      :     0.037962
      dz2     :     0.009731  d :     0.027021
      dxz     :     0.006192
      dyz     :     0.008128
      dx2y2   :     0.000888
      dxy     :     0.002082
 19 C s       :     2.771469  s :     2.771469
      pz      :     0.896320  p :     2.611813
      px      :     0.892400
      py      :     0.823093
      dz2     :     0.175953  d :     0.711280
      dxz     :     0.191671
      dyz     :     0.164289
      dx2y2   :     0.087557
      dxy     :     0.091810
      f0      :     0.020206  f :     0.102039
      f+1     :     0.023979
      f-1     :     0.017051
      f+2     :     0.017302
      f-2     :     0.011586
      f+3     :     0.006046
      f-3     :     0.005868
 20 O s       :     3.408610  s :     3.408610
      pz      :     1.459804  p :     4.522446
      px      :     1.566275
      py      :     1.496367
      dz2     :     0.020345  d :     0.066624
      dxz     :     0.017339
      dyz     :     0.019516
      dx2y2   :     0.005188
      dxy     :     0.004236
      f0      :     0.000998  f :     0.005396
      f+1     :     0.001157
      f-1     :     0.001462
      f+2     :     0.000909
      f-2     :     0.000669
      f+3     :     0.000084
      f-3     :     0.000118
 21 H s       :     0.848300  s :     0.848300
      pz      :     0.029973  p :     0.125322
      px      :     0.040952
      py      :     0.054397
      dz2     :     0.003673  d :     0.023466
      dxz     :     0.003014
      dyz     :     0.005476
      dx2y2   :     0.004611
      dxy     :     0.006692


                      *****************************
                      * MAYER POPULATION ANALYSIS *
                      *****************************

  NA   - Mulliken gross atomic population
  ZA   - Total nuclear charge
  QA   - Mulliken gross atomic charge
  VA   - Mayer's total valence
  BVA  - Mayer's bonded valence
  FA   - Mayer's free valence

  ATOM       NA         ZA         QA         VA         BVA        FA
  0 C      6.0875     6.0000    -0.0875     3.9049     3.9049    -0.0000
  1 C      6.1881     6.0000    -0.1881     3.8010     3.8010     0.0000
  2 C      6.1460     6.0000    -0.1460     3.9555     3.9555     0.0000
  3 C      6.2120     6.0000    -0.2120     3.5852     3.5852    -0.0000
  4 H      0.8882     1.0000     0.1118     0.9938     0.9938    -0.0000
  5 H      0.8600     1.0000     0.1400     1.0017     1.0017    -0.0000
  6 H      0.9150     1.0000     0.0850     1.0228     1.0228    -0.0000
  7 C      5.7258     6.0000     0.2742     3.8570     3.8570     0.0000
  8 C      6.1537     6.0000    -0.1537     3.7669     3.7669     0.0000
  9 H      0.8898     1.0000     0.1102     1.0171     1.0171     0.0000
 10 H      0.9039     1.0000     0.0961     1.0073     1.0073    -0.0000
 11 H      0.9171     1.0000     0.0829     1.0172     1.0172    -0.0000
 12 H      0.8684     1.0000     0.1316     1.0260     1.0260     0.0000
 13 H      0.8922     1.0000     0.1078     1.0197     1.0197     0.0000
 14 O      8.3682     8.0000    -0.3682     1.9441     1.9441     0.0000
 15 C      6.0183     6.0000    -0.0183     3.8945     3.8945    -0.0000
 16 H      0.9261     1.0000     0.0739     0.9897     0.9897    -0.0000
 17 H      0.9057     1.0000     0.0943     0.9998     0.9998    -0.0000
 18 H      0.9312     1.0000     0.0688     0.9889     0.9889     0.0000
 19 C      5.7257     6.0000     0.2743     4.0619     4.0619    -0.0000
 20 O      8.5252     8.0000    -0.5252     1.9195     1.9195    -0.0000
 21 H      0.9518     1.0000     0.0482     1.0016     1.0016    -0.0000

  Mayer bond orders larger than 0.100000
B(  0-C ,  1-C ) :   0.3257 B(  0-C ,  3-C ) :   1.4497 B(  0-C ,  4-H ) :   1.0082 
B(  0-C ,  5-H ) :   0.9853 B(  1-C ,  7-C ) :   1.4640 B(  1-C ,  9-H ) :   0.9973 
B(  1-C , 12-H ) :   1.0140 B(  2-C ,  3-C ) :   0.1635 B(  2-C ,  8-C ) :   1.6753 
B(  2-C , 10-H ) :   1.0044 B(  2-C , 13-H ) :   1.0097 B(  3-C ,  6-H ) :   1.0135 
B(  3-C , 19-C ) :   1.1003 B(  7-C ,  8-C ) :   1.1723 B(  7-C , 14-O ) :   1.0667 
B(  8-C , 11-H ) :   1.0074 B( 14-O , 15-C ) :   0.8926 B( 15-C , 16-H ) :   0.9997 
B( 15-C , 17-H ) :   1.0032 B( 15-C , 18-H ) :   0.9974 B( 19-C , 20-O ) :   1.8495 
B( 19-C , 21-H ) :   1.0588 

-------
TIMINGS
-------

Total SCF time: 0 days 0 hours 1 min 4 sec 

Total time                  ....      64.268 sec
Sum of individual times     ....      63.668 sec  ( 99.1%)

Fock matrix formation       ....      61.784 sec  ( 96.1%)
Diagonalization             ....       0.445 sec  (  0.7%)
Density matrix formation    ....       0.023 sec  (  0.0%)
Population analysis         ....       0.041 sec  (  0.1%)
Initial guess               ....       0.179 sec  (  0.3%)
Orbital Transformation      ....       0.000 sec  (  0.0%)
Orbital Orthonormalization  ....       0.000 sec  (  0.0%)
DIIS solution               ....       0.913 sec  (  1.4%)
SOSCF solution              ....       0.197 sec  (  0.3%)

Maximum memory used throughout the entire SCF-calculation: 246.5 MB


           ************************************************************
           *        Program running with 16 parallel MPI-processes    *
           *              working on a common directory               *
           ************************************************************


--------------------------------------------------------------------------------
                             ORCA-MATRIX DRIVEN CI
--------------------------------------------------------------------------------


Wavefunction type
-----------------
Correlation treatment                      ...      CCSD     
Single excitations                         ... ON
Orbital optimization                       ... OFF
Calculation of Z vector                    ... OFF
Calculation of Brueckner orbitals          ... OFF
Perturbative triple excitations            ... ON
Calculation of F12 correction              ... OFF
Frozen core treatment                      ... chemical core (20 el)
Reference Wavefunction                     ... RHF
  Internal Orbitals:    10 ...   37 ( 28 MO's/ 56 electrons)
  Virtual  Orbitals:    38 ...  477 (440 MO's              )
Number of AO's                             ...    478
Number of electrons                        ...     76
Number of correlated electrons             ...     56

Algorithmic settings
--------------------
Integral transformation                    ... All integrals via the RI transformation
K(C) Formation                             ... RI-DLPNO
   PNO-Integral Storage                    ... ON DISK
   PNO occupation number cut-off           ... 3.330e-07
   Singles PNO occupation number cut-off   ... 9.990e-09
   PNO Mulliken prescreening cut-off       ... 1.000e-03
   Domain cut-off (Mulliken population)    ... 1.000e-03
   PNO Normalization                       ...    1
Maximum number of iterations               ...        50
Convergence tolerance (max. residuum)      ... 2.500e-05
Level shift for amplitude update           ... 2.000e-01
Maximum number of DIIS vectors             ...         7
DIIS turned on at iteration                ...         0
Damping before turning on DIIS             ...     0.500
Damping after turning on DIIS              ...     0.000
[...]

   .... Finished loop over pairs
Making pair pair interaction lists          ... done

                       ===========================
                        281 OF  406 PAIRS ARE KEPT CCSD PAIRS
                         88 OF  406 PAIRS ARE KEPT MP2 PAIRS FOR (T)
                         37 OF  406 PAIRS ARE SKIPPED
                       ===========================

Total time spent in the initial guess                 ...     1.951 sec
SL-MP2 correlation energy (all non-screened pairs)    ...      -1.738382206079 Eh

Initial PNO correlation energy                        ...      -1.729487919818 Eh
sum of pair energies prescreened and skipped MP2 pairs...      -0.000163147839 Eh
sum of pair energies of crude MP2 skipped pairs only  ...      -0.000163147839 Eh
sum of MP2 pair energies for pairs that were not kept ...      -0.003799514119 Eh
sum of PNO error estimates for the kept pairs         ...      -0.005094772141 Eh
                                                          --------------------
sum of all corrections                                         -0.008894286261
Initial total correlation energy                               -1.738382206079
Thresholds for map construction and integral transformation for fine MP2 and CCSD(T) calculation:
   TCutMKN   ...     1.0e-03
   TCutDO    ...     1.0e-02
   TCutPairs ...     1.0e-04
   TCutCMO   ...     1.0e-03
   TCutCPAO  ...     1.0e-03

Thresholds for map construction and integral transformation for strong Triples:
   TCutMKN   ...     1.0e-02
   TCutDO    ...     2.0e-02
   TCutCMO   ...     1.0e-03
   TCutCPAO  ...     1.0e-03

Thresholds for map construction and integral transformation for weak Triples:
   TCutMKN   ...     1.0e-01
   TCutDO    ...     4.0e-02
   TCutCMO   ...     1.0e-03
   TCutCPAO  ...     1.0e-03

--------------------------------
LOCAL RI TRANSFORMATION (IAVPAO)
--------------------------------

Orbital window:      10 to 37
Number of PAOs:     478
Basis functions:    478 (182 shells)
Aux. functions:    1120 (340 shells)
Use SHARK:           on

Processing maps (0.0 sec)
Average map sizes:
   Aux shells -> MOs              27.9
   Aux shells -> PAOs            478.0
   MOs        -> AO shells       174.4
   PAOs       -> AO shells       181.5

Calculating integrals (0.5 sec, 113.940 MB)
Sorting integrals (0.1 sec, 113.928 MB)
Total time for the integral transformation: 0.6 sec
--------------------------------
INITIAL GUESS AND PNO GENERATION
--------------------------------

PNO truncation parameters                   .... 
    PAOOverlapThresh   =        1.000e-08

    TCutPairs          =        1.000e-04
    TCutPNO            =        3.330e-07
    TCutPNOSingles     =        9.990e-09
    TCutMP2Pairs       =        1.000e-05
    TCutMKN            =        1.000e-03
    TCutDO             =        1.000e-02

Pair selection                          .... not used
Type of local MP2 treatment                 .... semi-local MP2
Strategy for PNO selection                  .... occupation number selection
Pair density normalization                  .... MP2 norm
Spin component scaling                      .... not used

   .... Finished loop over pairs

 PNO Occupation Number Statistics: 
  | Av. % of trace(Dij) retained        ...  97.628794922954
  | sigma^2 in % of trace(Dij) retained ...   1.05e+01
  | Av. % of trace(Di) retained         ...  99.999044169577
  | sigma^2 in % of trace(Di) retained  ...   1.74e-07
 Distributions of % trace(Dij) recovered:
  |       >= 99.9  ...    79 ( 21.4 % of all pairs)
  |   [70.0, 80.0) ...     3 (  0.8 % of all pairs)
  |   [80.0, 90.0) ...     7 (  1.9 % of all pairs)
  |   [90.0, 99.0) ...   190 ( 51.5 % of all pairs)
  |   [99.0, 99.9) ...    90 ( 24.4 % of all pairs)
 Distributions of % trace(Di) recovered :
  |       >= 99.9  ...    28 (100.0 % of all I-pairs )

Making pair pair interaction lists          ... done

                       ===========================
                        281 OF  369 PAIRS ARE KEPT
                       ===========================

Total time spent in the initial guess                 ...    62.471 sec
SL-MP2 correlation energy (all non-screened pairs)    ...      -1.739295081016 Eh

Initial PNO correlation energy                        ...      -1.730506104038 Eh
sum of pair energies estimated for screened out pairs ...      -0.000163147839 Eh
sum of MP2 pair energies for pairs that were not kept ...      -0.003641164455 Eh
sum of PNO error estimates for the kept pairs         ...      -0.005147812523 Eh
                                                          --------------------
sum of all corrections                                         -0.008952124817
Initial total correlation energy                               -1.739458228855
Thresholds for map construction and integral transformation for fine MP2 and CCSD(T) calculation:
   TCutMKN   ...     1.0e-03
   TCutDO    ...     1.0e-02
   TCutPairs ...     1.0e-04
   TCutCMO   ...     1.0e-03
   TCutCPAO  ...     1.0e-03

Time for aux screen maps:            0.003
Time for maps after fine MP2:            0.028
-----------------------------
LOCAL RI TRANSFORMATION (IJV)
-----------------------------

Orbital window:      10 to 37
Basis functions:    478 (182 shells)
Aux. functions:    1120 (340 shells)
Use SHARK:           on

Processing maps (0.0 sec)
Average map sizes:
   Aux shells -> MOs(i)           27.1
   Aux shells -> MOs(j)           28.0
   MOs        -> AO shells       174.4

Calculating integrals (0.8 sec, 6.523 MB)
Sorting integrals (0.0 sec, 6.510 MB)
Total time for the integral transformation: 0.8 sec
--------------------------------
LOCAL RI TRANSFORMATION (VABPAO)
--------------------------------

Number of PAOs:     478
Basis functions:    478 (182 shells)
Aux. functions:    1120 (340 shells)
Use SHARK:           on

Processing maps (0.0 sec)
Average map sizes:
   Aux shells -> PAOs            478.0
   PAOs       -> AO shells       181.5

Calculating integrals (1.4 sec, 1952.391 MB)
Finished


-------------------------------------
Pair Pair Term precalculation with     
RI-(ij|mn) and (im|jn) transformation  
ON THE FLY                             
-------------------------------------

   IBatch   1 (of   2)              ... done (   39.432 sec)
   IBatch   2 (of   2)              ... done (    5.111 sec)
Total EXT                           ...          44.543 sec

---------------------
RI-PNO TRANSFORMATION
---------------------

Total Number of PNOs                   ...  9351
Average number of PNOs per pair        ...    33
Maximal number of PNOs per pair        ...    77
   #pairs with  1 -  5 PNOs   :    0
   #pairs with  6 - 10 PNOs   :   12
   #pairs with 11 - 15 PNOs   :   24
   #pairs with 16 - 20 PNOs   :   38
   #pairs with 21 - 25 PNOs   :   23
   #pairs with 26 - 30 PNOs   :   33
   #pairs with 31 - 35 PNOs   :   31
   #pairs with 36 - 40 PNOs   :   26
   #pairs with 41 - 45 PNOs   :   32
   #pairs with 46 - 50 PNOs   :   24
   #pairs with 51 - 55 PNOs   :   19
   #pairs with 56 - 60 PNOs   :   10
   #pairs with 61 - 65 PNOs   :    2
   #pairs with 66 - 70 PNOs   :    3
   #pairs with 71 - 75 PNOs   :    3
   #pairs with 76 - 80 PNOs   :    1

Generation of (ij|ab)[P] integrals            ... on
Generation of (ia|bc)[P],(ja|bc)[P] integrals ... on
Storage of 3 and 4 external integrals         ... on
Generation of ALL (ka|bc)[P] integrals        ... on
Keep RI integrals in memory                   ... off

Ibatch:  1 (of  1)
Starting 2-4 index PNO integral generation ... done

Timings:
Total PNO integral transformation time     ...         73.544 sec
Size of the 3-external file                ...       132 MB
Size of the 4-external file                ...       837 MB
Size of the IKJL file                      ...         0 MB
Size of the all 3-external file            ...      1849 MB
Size of the 1-external file                ...         5 MB

Making pair/pair overlap matrices          ... done (    2.186 sec)
Size of the pair overlap file              ... 511 MB
Redoing the guess amplitudes               ... done (    0.003 sec)

-------------------------
FINAL STARTUP INFORMATION
-------------------------

E(0)                                       ...   -459.681119898
E(SL-MP2)                                  ...     -1.739295081
E(SL-MP2) including corrections            ...     -1.739458229
Initial E(tot)                             ...   -461.420578127
<T|T>                                      ...      0.499178739
Number of pairs included                   ... 281
Total number of pairs                      ... 406

------------------------------------------------
                  RHF COUPLED CLUSTER ITERATIONS
------------------------------------------------

Number of PNO amplitudes to be optimized   ...       373871
Number of non-PNO amplitudes               ...     54401600
Untruncated number of regular amplitudes   ...     78601600

Iter       E(tot)           E(Corr)          Delta-E          Residual     Time
  0   -461.420657860     -1.730585838      0.008709243      0.019385992    4.92
                           *** Turning on DIIS ***
  1   -461.478290840     -1.788218818     -0.057632980      0.012482451    4.91
  2   -461.524377236     -1.834305213     -0.046086395      0.006090649    5.09
  3   -461.533549103     -1.843477080     -0.009171867      0.003976092    4.92
  4   -461.536616342     -1.846544319     -0.003067239      0.001908207    4.97
  5   -461.537805070     -1.847733047     -0.001188728      0.001101437    4.83
  6   -461.538169063     -1.848097041     -0.000363994      0.000663340    5.29
  7   -461.538239743     -1.848167720     -0.000070679      0.000392406    5.08
  8   -461.538286275     -1.848214252     -0.000046532      0.000203048    4.93
  9   -461.538274982     -1.848202959      0.000011293      0.000083990    4.91
 10   -461.538290063     -1.848218040     -0.000015081      0.000035644    4.93
 11   -461.538288101     -1.848216078      0.000001962      0.000014745    4.90
               --- The Coupled-Cluster iterations have converged ---

----------------------
COUPLED CLUSTER ENERGY
----------------------

E(0)                                       ...   -459.681119898
E(CORR)(strong-pairs)                      ...     -1.848216078
E(CORR)(weak-pairs)                        ...     -0.008952125
E(CORR)(corrected)                         ...     -1.857168203
E(TOT)                                     ...   -461.538288101
Singles Norm <S|S>**1/2                    ...      0.103729068  
T1 diagnostic                              ...      0.013861380  

------------------
LARGEST AMPLITUDES
------------------
  36-> 38  36-> 38       0.052237
  35-> 38  35-> 38       0.051463
  30-> 38  30-> 38       0.049125
  14-> 38  14-> 38       0.047757
  20-> 38  20-> 38       0.046831
  29-> 39  29-> 39       0.041949
  22-> 38  22-> 38       0.041821
  36-> 38  35-> 38       0.040756
  21-> 38  21-> 38       0.033549
  32-> 41  32-> 41       0.033500
  20-> 39  20-> 39       0.033273
  35-> 38  -1-> -1       0.033144
  36-> 38  -1-> -1       0.032234
  33-> 38  33-> 38       0.031690
  31-> 38  31-> 38       0.031664
  37-> 38  37-> 38       0.031293


-------------------------------------------
DLPNO BASED TRIPLES CORRECTION
-------------------------------------------

Singles multiplier          ...  1.000000
TCutTNO                     ... 1.000e-09
TCutMP2Pairs                ... 1.000e-05
TCutDOStrong                ... 2.000e-02
TCutMKNStrong               ... 1.000e-02
TCutDOWeak                  ... 4.000e-02
TCutMKNWeak                 ... 1.000e-01

Fragment selection                          .... not used
Number of Triples that are to be computed   ...      2520

 . . . . . . . . .
10% done  
20% done  
30% done  
40% done  
50% done  
60% done  
70% done  
80% done  
90% done               (     98.126 sec)
Triples timings:
Total time for T0               ...   106.105 sec
Total time for Iterative (T)    ...     0.000 sec
Total time of overall (T)       ...   109.719 sec

Triples List generation         ...     0.000 sec
TNO generation                  ...     7.969 sec
Pair density generation         ...     0.005 sec
Look up tables                  ...     0.000 sec
Generating 3-index integrals    ...    67.228 sec
  Make 4-ind.int. from 3-ind.int...     7.657 sec
  Projecting amplitudes (D + S) ...    12.054 sec
  Downprojecting integrals      ...     0.001 sec
  Energy contr. (sum over a,b,c)...     3.314 sec
Fitting ET(->0)                 ...     0.000 sec

Everything after 3-index        ...    30.898 sec

Timing details:
 TNO integrals                  ...    74.206 sec
   Reading 3-index integrals    ...     0.373 sec
   Sorting integrals            ...     7.861 sec
       Sorting integrals 1      ...     0.001 sec
       Sorting integrals 2      ...     5.919 sec
       Sorting integrals 3      ...     0.299 sec
       Sorting integrals 4      ...     0.022 sec
       Sorting integrals 5      ...     0.079 sec
       Sorting integrals 6      ...     1.541 sec
   Calculating local VM**-1/2   ...     0.318 sec
   Orthogonal. integrals        ...     0.682 sec
   Multipl. 3-index integrals   ...    64.972 sec
   All concerning IRIab (w/TNO) ...     4.799 sec

 Calculate W0/W1                ...     7.862 sec
 W 3-ext contribution           ...     4.726 sec
 W 3-int contribution           ...     1.409 sec
 Sorting W                      ...     1.578 sec

 V exchange contribution        ...     1.508 sec

 Timings for Triples without generation
     of 3-index integrals       ...    30.896 sec
       0 weak pairs             ...    26.162 sec
       1 weak pair              ...     4.734 sec
       2 weak pairs             ...     0.000 sec
       3 weak pairs             ...     0.000 sec
  Extra time for extrapolation  ...     0.000 sec

Number of Triples   (0, 1, 2, 3 weak pairs; overall):   1714     806       0       0  (  2520)
Number of Atoms     (0, 1, 2, 3 weak pairs; overall):   15.3    12.4     0.0     0.0  (    22)
Number of PAOs      (0, 1, 2, 3 weak pairs; overall):  353.9   298.5     0.0     0.0  (   478)
Number of AuxFcns   (0, 1, 2, 3 weak pairs; overall):  445.2   350.1     0.0     0.0  (  1120)
Number of TNOs      (0, 1, 2, 3 weak pairs         ):   89.5    65.6     0.0     0.0
Aver. Number of NTNO, Atoms, PAOs, AuxFcns / Triples:   2520    81.9    14.4   336.2   414.8

Triples Correction (T)                     ...     -0.084616500
Final correlation energy                   ...     -1.941784703
E(CCSD)                                    ...   -461.538288101
E(CCSD(T))                                 ...   -461.622904601



--------------------------------------------------------------------------------
                                    TIMINGS
--------------------------------------------------------------------------------


Total execution time                   ...      378.947 sec

Localization of occupied MO's          ...        0.476 sec (  0.1%)
Fock Matrix Formation                  ...        7.849 sec (  2.1%)
Global overlap, Fock, MKN matrices     ...        0.385 sec (  0.1%)
Differential overlap integrals         ...        0.566 sec (  0.1%)
Organizing maps                        ...        0.055 sec (  0.0%)
RI 3-index integral generations        ...        3.413 sec (  0.9%)
RI-PNO integral transformation         ...      131.765 sec ( 34.8%)
Initial Guess                          ...       64.473 sec ( 17.0%)
DIIS Solver                            ...        0.252 sec (  0.1%)
State Vector Update                    ...        0.017 sec (  0.0%)
Sigma-vector construction              ...       59.427 sec ( 15.7%)
  <D|H|D>(0-ext)                       ...        1.911 sec (  3.2% of sigma)
  <D|H|D>(2-ext Fock)                  ...        0.010 sec (  0.0% of sigma)
  <D|H|D>(2-ext)                       ...       10.075 sec ( 17.0% of sigma)
  <D|H|D>(4-ext)                       ...        6.631 sec ( 11.2% of sigma)
  <D|H|D>(4-ext-corr)                  ...       28.266 sec ( 47.6% of sigma)
  CCSD doubles correction              ...        0.095 sec (  0.2% of sigma)
  <S|H|S>                              ...        0.475 sec (  0.8% of sigma)
  <S|H|D>(1-ext)                       ...        0.277 sec (  0.5% of sigma)
  <D|H|S>(1-ext)                       ...        0.006 sec (  0.0% of sigma)
  <S|H|D>(3-ext)                       ...        0.105 sec (  0.2% of sigma)
  Fock-dressing                        ...        5.673 sec (  9.5% of sigma)
  Singles amplitudes                   ...        0.695 sec (  1.2% of sigma)
  (ik|jl)-dressing                     ...        1.487 sec (  2.5% of sigma)
  (ij|ab),(ia|jb)-dressing             ...        1.630 sec (  2.7% of sigma)
  Pair energies                        ...        0.005 sec (  0.0% of sigma)
Total Time for computing (T)           ...      109.752 sec ( 29.0% of ALL)


Maximum memory used throughout the entire MDCI-calculation: 3982.8 MB

-------------------------   --------------------
FINAL SINGLE POINT ENERGY      -461.622904600799
-------------------------   --------------------


                            ***************************************
                            *     ORCA property calculations      *
                            ***************************************


  WARNING: The energy has been calculated at the MDCI level but the densities
           used in the property calculations are still SCF densities
           MDCI response densities have not been calculated 
           use %mdci Density linearized end
           or  %mdci Density unrelaxed end
           or  %mdci Density orbopt end

                                    ---------------------
                                    Active property flags
                                    ---------------------
   (+) Dipole Moment


------------------------------------------------------------------------------
                       ORCA ELECTRIC PROPERTIES CALCULATION
------------------------------------------------------------------------------

Dipole Moment Calculation                       ... on
Quadrupole Moment Calculation                   ... off
Polarizability Calculation                      ... off
GBWName                                         ... /tmp/43007/DATS_14_exo_i_DLPNO.gbw
Electron density                                ... /tmp/43007/DATS_14_exo_i_DLPNO.scfp
The origin for moment calculation is the CENTER OF MASS  = ( 0.061793, -0.027073 -0.038345)

-------------
DIPOLE MOMENT
-------------
                                X             Y             Z
Electronic contribution:      3.01720      -1.33669      -1.95409
Nuclear contribution   :     -4.69625       2.05756       2.91422
                        -----------------------------------------
Total Dipole Moment    :     -1.67904       0.72086       0.96013
                        -----------------------------------------
Magnitude (a.u.)       :      2.06414
Magnitude (Debye)      :      5.24663



--------------------
Rotational spectrum 
--------------------
 
Rotational constants in cm-1:     0.091307     0.024880     0.022817 
Rotational constants in MHz :  2737.308303   745.883382   684.039667 

 Dipole components along the rotational axes: 
x,y,z [a.u.] :    -1.673617     0.692377    -0.990105 
x,y,z [Debye]:    -4.253996     1.759883    -2.516646 

 

Timings for individual modules:

Sum of individual times         ...      445.706 sec (=   7.428 min)
GTO integral calculation        ...        0.864 sec (=   0.014 min)   0.2 %
SCF iterations                  ...       64.635 sec (=   1.077 min)  14.5 %
MDCI module                     ...      380.207 sec (=   6.337 min)  85.3 %
                             ****ORCA TERMINATED NORMALLY****
TOTAL RUN TIME: 0 days 0 hours 7 minutes 26 seconds 230 msec
