Job Start Time: Fri Jun 24 13:04:02 MDT 2022
SLURM Job ID: 43002
SLURM Job Name: DATS_13_exo_iv_DLPNO
SLURM Job Nodes: node09
SLURM Memory / CPU: 8000

                                 *****************
                                 * O   R   C   A *
                                 *****************

                                            #,                                       
                                            ###                                      
                                            ####                                     
                                            #####                                    
                                            ######                                   
                                           ########,                                 
                                     ,,################,,,,,                         
                               ,,#################################,,                 
                          ,,##########################################,,             
                       ,#########################################, ''#####,          
                    ,#############################################,,   '####,        
                  ,##################################################,,,,####,       
                ,###########''''           ''''###############################       
              ,#####''   ,,,,##########,,,,          '''####'''          '####       
            ,##' ,,,,###########################,,,                        '##       
           ' ,,###''''                  '''############,,,                           
         ,,##''                                '''############,,,,        ,,,,,,###''
      ,#''                                            '''#######################'''  
     '                                                          ''''####''''         
             ,#######,   #######,   ,#######,      ##                                
            ,#'     '#,  ##    ##  ,#'     '#,    #''#        ######   ,####,        
            ##       ##  ##   ,#'  ##            #'  '#       #        #'  '#        
            ##       ##  #######   ##           ,######,      #####,   #    #        
            '#,     ,#'  ##    ##  '#,     ,#' ,#      #,         ##   #,  ,#        
             '#######'   ##     ##  '#######'  #'      '#     #####' # '####'        



                  #######################################################
                  #                        -***-                        #
                  #          Department of theory and spectroscopy      #
                  #    Directorship and core code : Frank Neese         #
                  #        Max Planck Institute fuer Kohlenforschung    #
                  #                Kaiser Wilhelm Platz 1               #
                  #                 D-45470 Muelheim/Ruhr               #
                  #                      Germany                        #
                  #                                                     #
                  #                  All rights reserved                #
                  #                        -***-                        #
                  #######################################################


                         Program Version 5.0.3 -  RELEASE  -


 With contributions from (in alphabetic order):
   Daniel Aravena         : Magnetic Suceptibility
   Michael Atanasov       : Ab Initio Ligand Field Theory (pilot matlab implementation)
   Alexander A. Auer      : GIAO ZORA, VPT2 properties, NMR spectrum
   Ute Becker             : Parallelization
   Giovanni Bistoni       : ED, misc. LED, open-shell LED, HFLD
   Martin Brehm           : Molecular dynamics
   Dmytro Bykov           : SCF Hessian
   Vijay G. Chilkuri      : MRCI spin determinant printing, contributions to CSF-ICE
   Dipayan Datta          : RHF DLPNO-CCSD density
   Achintya Kumar Dutta   : EOM-CC, STEOM-CC
   Dmitry Ganyushin       : Spin-Orbit,Spin-Spin,Magnetic field MRCI
   Miquel Garcia          : C-PCM and meta-GGA Hessian, CC/C-PCM, Gaussian charge scheme
   Yang Guo               : DLPNO-NEVPT2, F12-NEVPT2, CIM, IAO-localization
   Andreas Hansen         : Spin unrestricted coupled pair/coupled cluster methods
   Benjamin Helmich-Paris : MC-RPA, TRAH-SCF, COSX integrals
   Lee Huntington         : MR-EOM, pCC
   Robert Izsak           : Overlap fitted RIJCOSX, COSX-SCS-MP3, EOM
   Marcus Kettner         : VPT2
   Christian Kollmar      : KDIIS, OOCD, Brueckner-CCSD(T), CCSD density, CASPT2, CASPT2-K
   Simone Kossmann        : Meta GGA functionals, TD-DFT gradient, OOMP2, MP2 Hessian
   Martin Krupicka        : Initial AUTO-CI
   Lucas Lang             : DCDCAS
   Marvin Lechner         : AUTO-CI (C++ implementation), FIC-MRCC
   Dagmar Lenk            : GEPOL surface, SMD
   Dimitrios Liakos       : Extrapolation schemes; Compound Job, initial MDCI parallelization
   Dimitrios Manganas     : Further ROCIS development; embedding schemes
   Dimitrios Pantazis     : SARC Basis sets
   Anastasios Papadopoulos: AUTO-CI, single reference methods and gradients
   Taras Petrenko         : DFT Hessian,TD-DFT gradient, ASA, ECA, R-Raman, ABS, FL, XAS/XES, NRVS
   Peter Pinski           : DLPNO-MP2, DLPNO-MP2 Gradient
   Christoph Reimann      : Effective Core Potentials
   Marius Retegan         : Local ZFS, SOC
   Christoph Riplinger    : Optimizer, TS searches, QM/MM, DLPNO-CCSD(T), (RO)-DLPNO pert. Triples
   Tobias Risthaus        : Range-separated hybrids, TD-DFT gradient, RPA, STAB
   Michael Roemelt        : Original ROCIS implementation
   Masaaki Saitow         : Open-shell DLPNO-CCSD energy and density
   Barbara Sandhoefer     : DKH picture change effects
   Avijit Sen             : IP-ROCIS
   Kantharuban Sivalingam : CASSCF convergence, NEVPT2, FIC-MRCI
   Bernardo de Souza      : ESD, SOC TD-DFT
   Georgi Stoychev        : AutoAux, RI-MP2 NMR, DLPNO-MP2 response
   Willem Van den Heuvel  : Paramagnetic NMR
   Boris Wezisla          : Elementary symmetry handling
   Frank Wennmohs         : Technical directorship


 We gratefully acknowledge several colleagues who have allowed us to
 interface, adapt or use parts of their codes:
   Stefan Grimme, W. Hujo, H. Kruse, P. Pracht,  : VdW corrections, initial TS optimization,
                  C. Bannwarth, S. Ehlert          DFT functionals, gCP, sTDA/sTD-DF
   Ed Valeev, F. Pavosevic, A. Kumar             : LibInt (2-el integral package), F12 methods
   Garnet Chan, S. Sharma, J. Yang, R. Olivares  : DMRG
   Ulf Ekstrom                                   : XCFun DFT Library
   Mihaly Kallay                                 : mrcc  (arbitrary order and MRCC methods)
   Jiri Pittner, Ondrej Demel                    : Mk-CCSD
   Frank Weinhold                                : gennbo (NPA and NBO analysis)
   Christopher J. Cramer and Donald G. Truhlar   : smd solvation model
   Lars Goerigk                                  : TD-DFT with DH, B97 family of functionals
   V. Asgeirsson, H. Jonsson                     : NEB implementation
   FAccTs GmbH                                   : IRC, NEB, NEB-TS, DLPNO-Multilevel, CI-OPT
                                                   MM, QMMM, 2- and 3-layer-ONIOM, Crystal-QMMM,
                                                   LR-CPCM, SF, NACMEs, symmetry and pop. for TD-DFT,
                                                   nearIR, NL-DFT gradient (VV10), updates on ESD,
                                                   ML-optimized integration grids
   S Lehtola, MJT Oliveira, MAL Marques          : LibXC Library
   Liviu Ungur et al                             : ANISO software


 Your calculation uses the libint2 library for the computation of 2-el integrals
 For citations please refer to: http://libint.valeyev.net

 Your ORCA version has been built with support for libXC version: 5.1.0
 For citations please refer to: https://tddft.org/programs/libxc/

 This ORCA versions uses:
   CBLAS   interface :  Fast vector & matrix operations
   LAPACKE interface :  Fast linear algebra routines
   SCALAPACK package :  Parallel linear algebra routines
   Shared memory     :  Shared parallel matrices
   BLAS/LAPACK       :  OpenBLAS 0.3.15  USE64BITINT DYNAMIC_ARCH NO_AFFINITY Zen SINGLE_THREADED
        Core in use  :  Zen
   Copyright (c) 2011-2014, The OpenBLAS Project


================================================================================

----- Orbital basis set information -----
Your calculation utilizes the basis: def2-TZVPP
   F. Weigend and R. Ahlrichs, Phys. Chem. Chem. Phys. 7, 3297 (2005).

----- AuxC basis set information -----
Your calculation utilizes the auxiliary basis: def2-TZVPP/C
  H-La, Hf-Rn : A. Hellweg, C. Hattig, S. Hofener and W. Klopper, Theor. Chem. Acc. 117, 587 (2007).
        Ce-Lu : J. Chmela and M. E. Harding, Mol. Phys. (2018).

================================================================================
                                        WARNINGS
                       Please study these warnings very carefully!
================================================================================


WARNING: Post HF methods need fully converged wavefunctions
  ===> : Setting SCFConvForced true
         You can overwrite this default with %scf ConvForced false 


WARNING: MDCI localization with Augmented Hessian Foster-Boys
  ===> : Switching off randomization!

INFO   : the flag for use of the SHARK integral package has been found!

================================================================================
                                       INPUT FILE
================================================================================
NAME = /tmp/43002/DATS_13_exo_iv_DLPNO.inp
|  1> # DATS_13_exo_iv_DLPNO
|  2> %maxcore 4000
|  3> %pal nprocs 16 end
|  4> ! pal16 DLPNO-CCSD(T) def2-tzvpp def2-tzvpp/C
|  5> 
|  6> * xyz 0 1
|  7>  C  -1.49000700   1.35276700   0.78971100
|  8>  C  -0.04948900   2.26887700  -0.48841400
|  9>  C   0.28556000  -0.51879600  -0.86851900
| 10>  C  -1.39836200  -0.02929700   0.68309700
| 11>  H  -1.12631000   1.84527300   1.68331100
| 12>  H  -2.32131000   1.85285900   0.29621200
| 13>  H  -0.87040600  -0.61618300   1.42733100
| 14>  C   1.13094600   1.63631600  -0.15659400
| 15>  C   1.29020100   0.24447600  -0.31622100
| 16>  H  -0.16060800   3.32600200  -0.26490200
| 17>  H   0.30319200  -1.60205200  -0.87127100
| 18>  H  -0.63613300   1.92846100  -1.33496300
| 19>  H  -0.36041200  -0.06661100  -1.60894500
| 20>  C  -2.36977800  -0.75823900  -0.14215200
| 21>  O  -2.54719800  -1.95625800  -0.12355000
| 22>  H  -2.95817300  -0.10703900  -0.83068000
| 23>  O   2.36979700  -0.27000900   0.33923700
| 24>  C   2.56658000  -1.66411800   0.25863300
| 25>  H   3.51871800  -1.86630300   0.74904200
| 26>  H   1.76973900  -2.21198300   0.77641400
| 27>  H   2.61037300  -1.99852200  -0.78510900
| 28>  H   1.85663700   2.13432000   0.48081800
| 29> **                         ****END OF INPUT****
================================================================================

                       ****************************
                       * Single Point Calculation *
                       ****************************

---------------------------------
CARTESIAN COORDINATES (ANGSTROEM)
---------------------------------
  C     -1.490007    1.352767    0.789711
  C     -0.049489    2.268877   -0.488414
  C      0.285560   -0.518796   -0.868519
  C     -1.398362   -0.029297    0.683097
  H     -1.126310    1.845273    1.683311
  H     -2.321310    1.852859    0.296212
  H     -0.870406   -0.616183    1.427331
  C      1.130946    1.636316   -0.156594
  C      1.290201    0.244476   -0.316221
  H     -0.160608    3.326002   -0.264902
  H      0.303192   -1.602052   -0.871271
  H     -0.636133    1.928461   -1.334963
  H     -0.360412   -0.066611   -1.608945
  C     -2.369778   -0.758239   -0.142152
  O     -2.547198   -1.956258   -0.123550
  H     -2.958173   -0.107039   -0.830680
  O      2.369797   -0.270009    0.339237
  C      2.566580   -1.664118    0.258633
  H      3.518718   -1.866303    0.749042
  H      1.769739   -2.211983    0.776414
  H      2.610373   -1.998522   -0.785109
  H      1.856637    2.134320    0.480818

----------------------------
CARTESIAN COORDINATES (A.U.)
----------------------------
  NO LB      ZA    FRAG     MASS         X           Y           Z
   0 C     6.0000    0    12.011   -2.815705    2.556359    1.492338
   1 C     6.0000    0    12.011   -0.093521    4.287556   -0.922969
   2 C     6.0000    0    12.011    0.539630   -0.980382   -1.641263
   3 C     6.0000    0    12.011   -2.642521   -0.055363    1.290866
   4 H     1.0000    0     1.008   -2.128417    3.487061    3.180997
   5 H     1.0000    0     1.008   -4.386640    3.501396    0.559760
   6 H     1.0000    0     1.008   -1.644829   -1.164417    2.697265
   7 C     6.0000    0    12.011    2.137178    3.092189   -0.295920
   8 C     6.0000    0    12.011    2.438127    0.461993   -0.597571
   9 H     1.0000    0     1.008   -0.303505    6.285233   -0.500592
  10 H     1.0000    0     1.008    0.572950   -3.027440   -1.646464
  11 H     1.0000    0     1.008   -1.202117    3.644263   -2.522714
  12 H     1.0000    0     1.008   -0.681080   -0.125877   -3.040465
  13 C     6.0000    0    12.011   -4.478231   -1.432864   -0.268628
  14 O     8.0000    0    15.999   -4.813507   -3.696792   -0.233476
  15 H     1.0000    0     1.008   -5.590137   -0.202274   -1.569758
  16 O     8.0000    0    15.999    4.478267   -0.510243    0.641065
  17 C     6.0000    0    12.011    4.850133   -3.144727    0.488746
  18 H     1.0000    0     1.008    6.649413   -3.526802    1.415484
  19 H     1.0000    0     1.008    3.344322   -4.180042    1.467210
  20 H     1.0000    0     1.008    4.932890   -3.776659   -1.483641
  21 H     1.0000    0     1.008    3.508535    4.033280    0.908614

--------------------------------
INTERNAL COORDINATES (ANGSTROEM)
--------------------------------
 C      0   0   0     0.000000000000     0.00000000     0.00000000
 C      1   0   0     2.132593059177     0.00000000     0.00000000
 C      2   1   0     2.833347560458    74.78915821     0.00000000
 C      1   2   3     1.389196260835   109.68285273     0.46945273
 H      1   2   3     1.083216796327    94.14643486   123.93451560
 H      1   2   3     1.088438307519    92.68198420   239.18229918
 H      4   1   2     1.084922560226   121.17324076   100.04044408
 C      2   1   3     1.379733568609   103.69919801   308.38307451
 C      3   2   1     1.377287466606    59.15011415   244.55714470
 H      2   1   3     1.086194417188   103.04109126   183.76758069
 H      3   2   1     1.083402982488   170.40529588   349.80768128
 H      2   1   3     1.084748563121    88.14372547    69.29408542
 H      3   2   1     1.081656951388    67.03941705    95.43079300
 C      4   1   2     1.468346483777   119.56282310   258.93957839
 O     14   4   1     1.211228060757   125.40121407   194.19176480
 H     14   4   1     1.115500301573   113.95734075    14.78994340
 O      9   3   2     1.363762269681   124.13236598   165.51387738
 C     17   9   3     1.410234185441   117.12499472    10.30902356
 H     18  17   9     1.089929599814   106.23410908   174.31610426
 H     18  17   9     1.096908748013   111.43247750   293.20065973
 H     18  17   9     1.096877944271   111.18261691    55.04451797
 H      8   2   1     1.086705787801   120.15177256   257.80627349

---------------------------
INTERNAL COORDINATES (A.U.)
---------------------------
 C      0   0   0     0.000000000000     0.00000000     0.00000000
 C      1   0   0     4.030016836945     0.00000000     0.00000000
 C      2   1   0     5.354250931480    74.78915821     0.00000000
 C      1   2   3     2.625200479245   109.68285273     0.46945273
 H      1   2   3     2.046983088722    94.14643486   123.93451560
 H      1   2   3     2.056850314879    92.68198420   239.18229918
 H      4   1   2     2.050206515340   121.17324076   100.04044408
 C      2   1   3     2.607318582448   103.69919801   308.38307451
 C      3   2   1     2.602696119567    59.15011415   244.55714470
 H      2   1   3     2.052609976679   103.04109126   183.76758069
 H      3   2   1     2.047334929576   170.40529588   349.80768128
 H      2   1   3     2.049877708463    88.14372547    69.29408542
 H      3   2   1     2.044035408975    67.03941705    95.43079300
 C      4   1   2     2.774772724045   119.56282310   258.93957839
 O     14   4   1     2.288889320551   125.40121407   194.19176480
 H     14   4   1     2.107990072279   113.95734075    14.78994340
 O      9   3   2     2.577137201472   124.13236598   165.51387738
 C     17   9   3     2.664956395177   117.12499472    10.30902356
 H     18  17   9     2.059668448902   106.23410908   174.31610426
 H     18  17   9     2.072857127647   111.43247750   293.20065973
 H     18  17   9     2.072798917011   111.18261691    55.04451797
 H      8   2   1     2.053576327092   120.15177256   257.80627349

---------------------
BASIS SET INFORMATION
---------------------
There are 3 groups of distinct atoms

 Group   1 Type C   : 11s6p2d1f contracted to 5s3p2d1f pattern {62111/411/11/1}
 Group   2 Type H   : 5s2p1d contracted to 3s2p1d pattern {311/11/1}
 Group   3 Type O   : 11s6p2d1f contracted to 5s3p2d1f pattern {62111/411/11/1}

Atom   0C    basis set group =>   1
Atom   1C    basis set group =>   1
Atom   2C    basis set group =>   1
Atom   3C    basis set group =>   1
Atom   4H    basis set group =>   2
Atom   5H    basis set group =>   2
Atom   6H    basis set group =>   2
Atom   7C    basis set group =>   1
Atom   8C    basis set group =>   1
Atom   9H    basis set group =>   2
Atom  10H    basis set group =>   2
Atom  11H    basis set group =>   2
Atom  12H    basis set group =>   2
Atom  13C    basis set group =>   1
Atom  14O    basis set group =>   3
Atom  15H    basis set group =>   2
Atom  16O    basis set group =>   3
Atom  17C    basis set group =>   1
Atom  18H    basis set group =>   2
Atom  19H    basis set group =>   2
Atom  20H    basis set group =>   2
Atom  21H    basis set group =>   2
---------------------------------
AUXILIARY/C BASIS SET INFORMATION
---------------------------------
There are 3 groups of distinct atoms

 Group   1 Type C   : 8s6p5d3f1g contracted to 8s6p4d3f1g pattern {11111111/111111/2111/111/1}
 Group   2 Type H   : 4s3p2d1f contracted to 4s3p2d1f pattern {1111/111/11/1}
 Group   3 Type O   : 8s6p5d3f1g contracted to 8s6p4d3f1g pattern {11111111/111111/2111/111/1}

Atom   0C    basis set group =>   1
Atom   1C    basis set group =>   1
Atom   2C    basis set group =>   1
Atom   3C    basis set group =>   1
Atom   4H    basis set group =>   2
Atom   5H    basis set group =>   2
Atom   6H    basis set group =>   2
Atom   7C    basis set group =>   1
Atom   8C    basis set group =>   1
Atom   9H    basis set group =>   2
Atom  10H    basis set group =>   2
Atom  11H    basis set group =>   2
Atom  12H    basis set group =>   2
Atom  13C    basis set group =>   1
Atom  14O    basis set group =>   3
Atom  15H    basis set group =>   2
Atom  16O    basis set group =>   3
Atom  17C    basis set group =>   1
Atom  18H    basis set group =>   2
Atom  19H    basis set group =>   2
Atom  20H    basis set group =>   2
Atom  21H    basis set group =>   2


           ************************************************************
           *        Program running with 16 parallel MPI-processes    *
           *              working on a common directory               *
           ************************************************************
------------------------------------------------------------------------------
                           ORCA GTO INTEGRAL CALCULATION
------------------------------------------------------------------------------
------------------------------------------------------------------------------
                   ___                                                        
                  /   \      - P O W E R E D   B Y -                         
                 /     \                                                     
                 |  |  |   _    _      __       _____    __    __             
                 |  |  |  | |  | |    /  \     |  _  \  |  |  /  |          
                  \  \/   | |  | |   /    \    | | | |  |  | /  /          
                 / \  \   | |__| |  /  /\  \   | |_| |  |  |/  /          
                |  |  |   |  __  | /  /__\  \  |    /   |      \           
                |  |  |   | |  | | |   __   |  |    \   |  |\   \          
                \     /   | |  | | |  |  |  |  | |\  \  |  | \   \       
                 \___/    |_|  |_| |__|  |__|  |_| \__\ |__|  \__/        
                                                                              
                      - O R C A' S   B I G   F R I E N D -                    
                                      &                                       
                       - I N T E G R A L  F E E D E R -                       
                                                                              
 v1 FN, 2020, v2 2021                                                         
------------------------------------------------------------------------------


Reading SHARK input file /tmp/43002/DATS_13_exo_iv_DLPNO.SHARKINP.tmp ... ok
----------------------
SHARK INTEGRAL PACKAGE
----------------------

Number of atoms                             ...     22
Number of basis functions                   ...    478
Number of shells                            ...    182
Maximum angular momentum                    ...      3
Integral batch strategy                     ... SHARK/LIBINT Hybrid
RI-J (if used) integral strategy            ... SPLIT-RIJ (Revised 2003 algorithm where possible)
Printlevel                                  ...      1
Contraction scheme used                     ... SEGMENTED contraction
Coulomb Range Separation                    ... NOT USED
Exchange Range Separation                   ... NOT USED
Finite Nucleus Model                        ... NOT USED
Auxiliary Coulomb fitting basis             ... NOT available
Auxiliary J/K fitting basis                 ... NOT available
Auxiliary Correlation fitting basis         ... AVAILABLE
   # of basis functions in Aux-C            ...   1120
   # of shells in Aux-C                     ...    340
   Maximum angular momentum in Aux-C        ...      4
Auxiliary 'external' fitting basis          ... NOT available
Integral threshold                          ...     1.000000e-10
Primitive cut-off                           ...     1.000000e-11
Primitive pair pre-selection threshold      ...     1.000000e-11

Calculating pre-screening integrals         ... done (  0.0 sec) Dimension = 182
Organizing shell pair data                  ... done (  0.1 sec)
Shell pair information
Total number of shell pairs                 ...     16653
Shell pairs after pre-screening             ...     14244
Total number of primitive shell pairs       ...     44212
Primitive shell pairs kept                  ...     28228
          la=0 lb=0:   3163 shell pairs
          la=1 lb=0:   4047 shell pairs
          la=1 lb=1:   1334 shell pairs
          la=2 lb=0:   2261 shell pairs
          la=2 lb=1:   1481 shell pairs
          la=2 lb=2:    436 shell pairs
          la=3 lb=0:    730 shell pairs
          la=3 lb=1:    476 shell pairs
          la=3 lb=2:    269 shell pairs
          la=3 lb=3:     47 shell pairs

Calculating one electron integrals          ... done (  0.0 sec)
Calculating RI/C V-Matrix + Cholesky decomp.... done (  0.0 sec)
Calculating Nuclear repulsion               ... done (  0.0 sec) ENN=    524.733027140291 Eh

SHARK setup successfully completed in   0.4 seconds

Maximum memory used throughout the entire GTOINT-calculation: 26.4 MB


           ************************************************************
           *        Program running with 16 parallel MPI-processes    *
           *              working on a common directory               *
           ************************************************************
-------------------------------------------------------------------------------
                                 ORCA SCF
-------------------------------------------------------------------------------

------------
SCF SETTINGS
------------
Hamiltonian:
 Ab initio Hamiltonian  Method          .... Hartree-Fock(GTOs)


General Settings:
 Integral files         IntName         .... /tmp/43002/DATS_13_exo_iv_DLPNO
 Hartree-Fock type      HFTyp           .... RHF
 Total Charge           Charge          ....    0
 Multiplicity           Mult            ....    1
 Number of Electrons    NEL             ....   76
 Basis Dimension        Dim             ....  478
 Nuclear Repulsion      ENuc            ....    524.7330271403 Eh

Convergence Acceleration:
 DIIS                   CNVDIIS         .... on
   Start iteration      DIISMaxIt       ....    12
   Startup error        DIISStart       ....  0.200000
   # of expansion vecs  DIISMaxEq       ....     5
   Bias factor          DIISBfac        ....   1.050
   Max. coefficient     DIISMaxC        ....  10.000
 Trust-Rad. Augm. Hess. CNVTRAH         .... auto
   Auto Start mean grad. ratio tolernc. ....  1.125000
   Auto Start start iteration           ....    20
   Auto Start num. interpolation iter.  ....    10
   Max. Number of Micro iterations      ....    16
   Max. Number of Macro iterations      .... Maxiter - #DIIS iter
   Number of Davidson start vectors     ....     2
   Converg. threshold I  (grad. norm)   ....   5.000e-05
   Converg. threshold II (energy diff.) ....   1.000e-06
   Grad. Scal. Fac. for Micro threshold ....   0.100
   Minimum threshold for Micro iter.    ....   0.010
   NR start threshold (gradient norm)   ....   0.001
   Initial trust radius                 ....   0.400
   Minimum AH scaling param. (alpha)    ....   1.000
   Maximum AH scaling param. (alpha)    .... 1000.000
   Orbital update algorithm             .... Taylor
   White noise on init. David. guess    .... on
   Maximum white noise                  ....   0.010
   Quad. conv. algorithm                .... NR
 SOSCF                  CNVSOSCF        .... on
   Start iteration      SOSCFMaxIt      ....   150
   Startup grad/error   SOSCFStart      ....  0.003300
 Level Shifting         CNVShift        .... on
   Level shift para.    LevelShift      ....    0.2500
   Turn off err/grad.   ShiftErr        ....    0.0010
 Zerner damping         CNVZerner       .... off
 Static damping         CNVDamp         .... on
   Fraction old density DampFac         ....    0.7000
   Max. Damping (<1)    DampMax         ....    0.9800
   Min. Damping (>=0)   DampMin         ....    0.0000
   Turn off err/grad.   DampErr         ....    0.1000
 Fernandez-Rico         CNVRico         .... off

SCF Procedure:
 Maximum # iterations   MaxIter         ....   125
 SCF integral mode      SCFMode         .... Direct
   Integral package                     .... SHARK and LIBINT hybrid scheme
 Reset frequency        DirectResetFreq ....    20
 Integral Threshold     Thresh          ....  1.000e-10 Eh
 Primitive CutOff       TCut            ....  1.000e-11 Eh

Convergence Tolerance:
 Convergence Check Mode ConvCheckMode   .... Total+1el-Energy
 Convergence forced     ConvForced      .... 1
 Energy Change          TolE            ....  1.000e-06 Eh
 1-El. energy change                    ....  1.000e-03 Eh
 Orbital Gradient       TolG            ....  5.000e-05
 Orbital Rotation angle TolX            ....  5.000e-05
 DIIS Error             TolErr          ....  1.000e-06


Diagonalization of the overlap matrix:
Smallest eigenvalue                        ... 4.662e-05
Time for diagonalization                   ...    0.027 sec
Threshold for overlap eigenvalues          ... 1.000e-08
Number of eigenvalues below threshold      ... 0
Time for construction of square roots      ...    0.025 sec
Total time needed                          ...    0.060 sec

Time for model grid setup =    0.078 sec

------------------------------
INITIAL GUESS: MODEL POTENTIAL
------------------------------
Loading Hartree-Fock densities                     ... done
Calculating cut-offs                               ... done
Initializing the effective Hamiltonian             ... done
Setting up the integral package (SHARK)            ... done
Starting the Coulomb interaction                   ... done (   0.1 sec)
Reading the grid                                   ... done
Mapping shells                                     ... done
Starting the XC term evaluation                    ... done (   0.0 sec)
Transforming the Hamiltonian                       ... done (   0.0 sec)
Diagonalizing the Hamiltonian                      ... done (   0.0 sec)
Back transforming the eigenvectors                 ... done (   0.0 sec)
Now organizing SCF variables                       ... done
                      ------------------
                      INITIAL GUESS DONE (   0.2 sec)
                      ------------------
--------------
SCF ITERATIONS
--------------
ITER       Energy         Delta-E        Max-DP      RMS-DP      [F,P]     Damp
               ***  Starting incremental Fock matrix formation  ***
  0   -459.2456646427   0.000000000000 0.08237998  0.00067301  0.2996908 0.7000
  1   -459.3915990652  -0.145934422537 0.07929193  0.00056598  0.2200629 0.7000
                               ***Turning on DIIS***
  2   -459.4817382005  -0.090139135300 0.04086654  0.00036579  0.1627354 0.7000
  3   -460.6510560313  -1.169317830802 0.01104766  0.00021567  0.1202625 0.7000
  4   -460.4900733242   0.160982707106 0.03028669  0.00052583  0.0845665 0.0000
  5   -459.7047277568   0.785345567395 0.01480122  0.00009616  0.0041363 0.0000
                      *** Initiating the SOSCF procedure ***
                           *** Shutting down DIIS ***
                      *** Re-Reading the Fockian *** 
                      *** Removing any level shift *** 
ITER      Energy       Delta-E        Grad      Rot      Max-DP    RMS-DP
  6   -459.67866031   0.0260674507  0.001987  0.001987  0.011898  0.000065
               *** Restarting incremental Fock matrix formation ***
  7   -459.67395819   0.0047021145  0.001144  0.002943  0.005451  0.000035
  8   -459.67400709  -0.0000488953  0.000583  0.004071  0.010615  0.000056
  9   -459.67403198  -0.0000248931  0.000187  0.000449  0.001852  0.000012
 10   -459.67403458  -0.0000026029  0.000072  0.000305  0.000935  0.000008
 11   -459.67403521  -0.0000006295  0.000054  0.000246  0.000187  0.000002
                 **** Energy Check signals convergence ****
              ***Rediagonalizing the Fockian in SOSCF/NRSCF***

               *****************************************************
               *                     SUCCESS                       *
               *           SCF CONVERGED AFTER  12 CYCLES          *
               *****************************************************


----------------
TOTAL SCF ENERGY
----------------

Total Energy       :         -459.67403532 Eh          -12508.36641 eV

Components:
Nuclear Repulsion  :          524.73302714 Eh           14278.71158 eV
Electronic Energy  :         -984.40706246 Eh          -26787.07800 eV
One Electron Energy:        -1666.32978362 Eh          -45343.13861 eV
Two Electron Energy:          681.92272116 Eh           18556.06061 eV

Virial components:
Potential Energy   :         -918.80960150 Eh          -25002.08034 eV
Kinetic Energy     :          459.13556618 Eh           12493.71392 eV
Virial Ratio       :            2.00117279


---------------
SCF CONVERGENCE
---------------

  Last Energy change         ...   -1.0909e-07  Tolerance :   1.0000e-06
  Last MAX-Density change    ...    9.8651e-05  Tolerance :   1.0000e-05
  Last RMS-Density change    ...    1.0356e-06  Tolerance :   1.0000e-06
  Last Orbital Gradient      ...    1.6442e-05  Tolerance :   5.0000e-05
  Last Orbital Rotation      ...    5.5074e-05  Tolerance :   5.0000e-05

             **** THE GBW FILE WAS UPDATED (/tmp/43002/DATS_13_exo_iv_DLPNO.gbw) ****
             **** DENSITY /tmp/43002/DATS_13_exo_iv_DLPNO.scfp WAS UPDATED ****
             **** ENERGY FILE WAS UPDATED (/tmp/43002/DATS_13_exo_iv_DLPNO.en.tmp) ****
             **** THE GBW FILE WAS UPDATED (/tmp/43002/DATS_13_exo_iv_DLPNO.gbw) ****
             **** DENSITY /tmp/43002/DATS_13_exo_iv_DLPNO.scfp WAS UPDATED ****
----------------
ORBITAL ENERGIES
----------------

  NO   OCC          E(Eh)            E(eV) 
   0   2.0000     -20.585246      -560.1530 
   1   2.0000     -20.536083      -558.8152 
   2   2.0000     -11.322793      -308.1089 
   3   2.0000     -11.299461      -307.4740 
   4   2.0000     -11.283750      -307.0465 
   5   2.0000     -11.258385      -306.3562 
   6   2.0000     -11.252926      -306.2077 
   7   2.0000     -11.244209      -305.9705 
   8   2.0000     -11.243442      -305.9496 
   9   2.0000     -11.238993      -305.8286 
  10   2.0000      -1.414368       -38.4869 
  11   2.0000      -1.376013       -37.4432 
  12   2.0000      -1.114500       -30.3271 
  13   2.0000      -1.058494       -28.8031 
  14   2.0000      -0.999129       -27.1877 
  15   2.0000      -0.960537       -26.1376 
  16   2.0000      -0.876817       -23.8594 
  17   2.0000      -0.850027       -23.1304 
  18   2.0000      -0.774317       -21.0702 
  19   2.0000      -0.742322       -20.1996 
  20   2.0000      -0.705900       -19.2085 
  21   2.0000      -0.676293       -18.4029 
  22   2.0000      -0.659001       -17.9323 
  23   2.0000      -0.653118       -17.7722 
  24   2.0000      -0.642965       -17.4960 
  25   2.0000      -0.614767       -16.7287 
  26   2.0000      -0.582859       -15.8604 
  27   2.0000      -0.577421       -15.7124 
  28   2.0000      -0.567518       -15.4430 
  29   2.0000      -0.542213       -14.7544 
  30   2.0000      -0.536863       -14.6088 
  31   2.0000      -0.528343       -14.3769 
  32   2.0000      -0.515938       -14.0394 
  33   2.0000      -0.500015       -13.6061 
  34   2.0000      -0.457960       -12.4617 
  35   2.0000      -0.415788       -11.3142 
  36   2.0000      -0.322732        -8.7820 
  37   2.0000      -0.310756        -8.4561 
  38   0.0000       0.066593         1.8121 
  39   0.0000       0.123659         3.3649 
  40   0.0000       0.137656         3.7458 
  41   0.0000       0.144133         3.9221 
  42   0.0000       0.155728         4.2376 
  43   0.0000       0.168473         4.5844 
  44   0.0000       0.180519         4.9122 
  45   0.0000       0.198476         5.4008 
  46   0.0000       0.202927         5.5219 
  47   0.0000       0.210242         5.7210 
  48   0.0000       0.215299         5.8586 
  49   0.0000       0.218406         5.9431 
  50   0.0000       0.228020         6.2047 
  51   0.0000       0.235361         6.4045 
  52   0.0000       0.251061         6.8317 
  53   0.0000       0.265910         7.2358 
  54   0.0000       0.273586         7.4446 
  55   0.0000       0.292136         7.9494 
  56   0.0000       0.303565         8.2604 
  57   0.0000       0.309700         8.4274 
  58   0.0000       0.325243         8.8503 
  59   0.0000       0.327890         8.9223 
  60   0.0000       0.336225         9.1491 
  61   0.0000       0.357310         9.7229 
  62   0.0000       0.367804        10.0085 
  63   0.0000       0.371601        10.1118 
  64   0.0000       0.389284        10.5929 
  65   0.0000       0.397838        10.8257 
  66   0.0000       0.403093        10.9687 
  67   0.0000       0.425601        11.5812 
  68   0.0000       0.428694        11.6654 
  69   0.0000       0.433848        11.8056 
  70   0.0000       0.454539        12.3686 
  71   0.0000       0.458183        12.4678 
  72   0.0000       0.471322        12.8253 
  73   0.0000       0.497969        13.5504 
  74   0.0000       0.505508        13.7556 
  75   0.0000       0.508769        13.8443 
  76   0.0000       0.522735        14.2243 
  77   0.0000       0.537133        14.6161 
  78   0.0000       0.540204        14.6997 
  79   0.0000       0.547958        14.9107 
  80   0.0000       0.555862        15.1258 
  81   0.0000       0.561152        15.2697 
  82   0.0000       0.568192        15.4613 
  83   0.0000       0.582270        15.8444 
  84   0.0000       0.587347        15.9825 
  85   0.0000       0.588587        16.0163 
  86   0.0000       0.600529        16.3412 
  87   0.0000       0.614686        16.7264 
  88   0.0000       0.616161        16.7666 
  89   0.0000       0.628307        17.0971 
  90   0.0000       0.633874        17.2486 
  91   0.0000       0.641181        17.4474 
  92   0.0000       0.659951        17.9582 
  93   0.0000       0.665714        18.1150 
  94   0.0000       0.677406        18.4332 
  95   0.0000       0.678284        18.4571 
  96   0.0000       0.703373        19.1398 
  97   0.0000       0.717759        19.5312 
  98   0.0000       0.721662        19.6374 
  99   0.0000       0.730419        19.8757 
 100   0.0000       0.736950        20.0534 
 101   0.0000       0.741821        20.1860 
 102   0.0000       0.766546        20.8588 
 103   0.0000       0.771630        20.9971 
 104   0.0000       0.778295        21.1785 
 105   0.0000       0.791520        21.5384 
 106   0.0000       0.815146        22.1812 
 107   0.0000       0.820993        22.3404 
 108   0.0000       0.830657        22.6033 
 109   0.0000       0.837316        22.7845 
 110   0.0000       0.864902        23.5352 
 111   0.0000       0.867344        23.6016 
 112   0.0000       0.884302        24.0631 
 113   0.0000       0.909787        24.7566 
 114   0.0000       0.922129        25.0924 
 115   0.0000       0.941088        25.6083 
 116   0.0000       0.958153        26.0727 
 117   0.0000       0.966581        26.3020 
 118   0.0000       0.983980        26.7755 
 119   0.0000       0.986893        26.8547 
 120   0.0000       1.004080        27.3224 
 121   0.0000       1.038872        28.2692 
 122   0.0000       1.056869        28.7589 
 123   0.0000       1.064508        28.9667 
 124   0.0000       1.081773        29.4365 
 125   0.0000       1.089608        29.6497 
 126   0.0000       1.101317        29.9683 
 127   0.0000       1.110122        30.2080 
 128   0.0000       1.134739        30.8778 
 129   0.0000       1.144924        31.1550 
 130   0.0000       1.150932        31.3184 
 131   0.0000       1.159856        31.5613 
 132   0.0000       1.165759        31.7219 
 133   0.0000       1.174267        31.9534 
 134   0.0000       1.180579        32.1252 
 135   0.0000       1.194529        32.5048 
 136   0.0000       1.203058        32.7369 
 137   0.0000       1.215098        33.0645 
 138   0.0000       1.220427        33.2095 
 139   0.0000       1.226937        33.3867 
 140   0.0000       1.238727        33.7075 
 141   0.0000       1.254295        34.1311 
 142   0.0000       1.264727        34.4150 
 143   0.0000       1.273576        34.6558 
 144   0.0000       1.298524        35.3346 
 145   0.0000       1.310264        35.6541 
 146   0.0000       1.316733        35.8301 
 147   0.0000       1.318904        35.8892 
 148   0.0000       1.345079        36.6014 
 149   0.0000       1.354291        36.8521 
 150   0.0000       1.372910        37.3588 
 151   0.0000       1.379214        37.5303 
 152   0.0000       1.398139        38.0453 
 153   0.0000       1.405553        38.2470 
 154   0.0000       1.416768        38.5522 
 155   0.0000       1.436303        39.0838 
 156   0.0000       1.446380        39.3580 
 157   0.0000       1.460296        39.7367 
 158   0.0000       1.469176        39.9783 
 159   0.0000       1.484482        40.3948 
 160   0.0000       1.497426        40.7470 
 161   0.0000       1.510143        41.0931 
 162   0.0000       1.525502        41.5110 
 163   0.0000       1.542120        41.9632 
 164   0.0000       1.561392        42.4876 
 165   0.0000       1.568726        42.6872 
 166   0.0000       1.574378        42.8410 
 167   0.0000       1.586621        43.1742 
 168   0.0000       1.593863        43.3712 
 169   0.0000       1.605269        43.6816 
 170   0.0000       1.615875        43.9702 
 171   0.0000       1.631197        44.3871 
 172   0.0000       1.646171        44.7946 
 173   0.0000       1.652329        44.9622 
 174   0.0000       1.660991        45.1979 
 175   0.0000       1.675155        45.5833 
 176   0.0000       1.690946        46.0130 
 177   0.0000       1.704632        46.3854 
 178   0.0000       1.716359        46.7045 
 179   0.0000       1.721757        46.8514 
 180   0.0000       1.740535        47.3624 
 181   0.0000       1.748989        47.5924 
 182   0.0000       1.766275        48.0628 
 183   0.0000       1.783312        48.5264 
 184   0.0000       1.795630        48.8616 
 185   0.0000       1.808003        49.1983 
 186   0.0000       1.819192        49.5027 
 187   0.0000       1.833155        49.8827 
 188   0.0000       1.857699        50.5506 
 189   0.0000       1.863506        50.7086 
 190   0.0000       1.883267        51.2463 
 191   0.0000       1.896423        51.6043 
 192   0.0000       1.914642        52.1001 
 193   0.0000       1.923229        52.3337 
 194   0.0000       1.946102        52.9561 
 195   0.0000       1.960240        53.3408 
 196   0.0000       1.965027        53.4711 
 197   0.0000       1.996319        54.3226 
 198   0.0000       2.026571        55.1458 
 199   0.0000       2.042165        55.5701 
 200   0.0000       2.079662        56.5905 
 201   0.0000       2.080991        56.6267 
 202   0.0000       2.105486        57.2932 
 203   0.0000       2.141459        58.2721 
 204   0.0000       2.157574        58.7106 
 205   0.0000       2.166787        58.9613 
 206   0.0000       2.196164        59.7607 
 207   0.0000       2.236919        60.8697 
 208   0.0000       2.248384        61.1816 
 209   0.0000       2.266899        61.6854 
 210   0.0000       2.278061        61.9892 
 211   0.0000       2.283029        62.1244 
 212   0.0000       2.295646        62.4677 
 213   0.0000       2.337300        63.6012 
 214   0.0000       2.372013        64.5458 
 215   0.0000       2.390168        65.0398 
 216   0.0000       2.393046        65.1181 
 217   0.0000       2.431098        66.1535 
 218   0.0000       2.452182        66.7273 
 219   0.0000       2.461539        66.9819 
 220   0.0000       2.498479        67.9871 
 221   0.0000       2.522915        68.6520 
 222   0.0000       2.544434        69.2376 
 223   0.0000       2.581033        70.2335 
 224   0.0000       2.606644        70.9304 
 225   0.0000       2.660188        72.3874 
 226   0.0000       2.709374        73.7258 
 227   0.0000       2.736596        74.4666 
 228   0.0000       2.739792        74.5535 
 229   0.0000       2.765125        75.2429 
 230   0.0000       2.769086        75.3507 
 231   0.0000       2.803688        76.2922 
 232   0.0000       2.827219        76.9325 
 233   0.0000       2.844467        77.4019 
 234   0.0000       2.873466        78.1910 
 235   0.0000       2.881126        78.3994 
 236   0.0000       2.884583        78.4935 
 237   0.0000       2.917723        79.3953 
 238   0.0000       2.937101        79.9226 
 239   0.0000       2.965983        80.7085 
 240   0.0000       2.975703        80.9730 
 241   0.0000       2.988366        81.3176 
 242   0.0000       3.004533        81.7575 
 243   0.0000       3.023399        82.2709 
 244   0.0000       3.046160        82.8902 
 245   0.0000       3.047232        82.9194 
 246   0.0000       3.053543        83.0911 
 247   0.0000       3.059497        83.2531 
 248   0.0000       3.080194        83.8163 
 249   0.0000       3.094055        84.1935 
 250   0.0000       3.100217        84.3612 
 251   0.0000       3.116599        84.8070 
 252   0.0000       3.132860        85.2495 
 253   0.0000       3.136237        85.3414 
 254   0.0000       3.150010        85.7161 
 255   0.0000       3.166568        86.1667 
 256   0.0000       3.173348        86.3512 
 257   0.0000       3.181936        86.5849 
 258   0.0000       3.187844        86.7457 
 259   0.0000       3.205462        87.2251 
 260   0.0000       3.219403        87.6044 
 261   0.0000       3.223146        87.7063 
 262   0.0000       3.236555        88.0711 
 263   0.0000       3.257775        88.6486 
 264   0.0000       3.263588        88.8067 
 265   0.0000       3.282690        89.3265 
 266   0.0000       3.289534        89.5128 
 267   0.0000       3.296279        89.6963 
 268   0.0000       3.308541        90.0300 
 269   0.0000       3.335366        90.7599 
 270   0.0000       3.347273        91.0839 
 271   0.0000       3.357631        91.3658 
 272   0.0000       3.374457        91.8237 
 273   0.0000       3.379790        91.9688 
 274   0.0000       3.393214        92.3340 
 275   0.0000       3.413785        92.8938 
 276   0.0000       3.417281        92.9889 
 277   0.0000       3.423290        93.1525 
 278   0.0000       3.437914        93.5504 
 279   0.0000       3.453170        93.9655 
 280   0.0000       3.457256        94.0767 
 281   0.0000       3.462021        94.2064 
 282   0.0000       3.484957        94.8305 
 283   0.0000       3.490019        94.9682 
 284   0.0000       3.505342        95.3852 
 285   0.0000       3.512516        95.5804 
 286   0.0000       3.527295        95.9826 
 287   0.0000       3.535466        96.2049 
 288   0.0000       3.554830        96.7318 
 289   0.0000       3.572401        97.2100 
 290   0.0000       3.580680        97.4352 
 291   0.0000       3.591247        97.7228 
 292   0.0000       3.610668        98.2513 
 293   0.0000       3.619739        98.4981 
 294   0.0000       3.622976        98.5862 
 295   0.0000       3.628369        98.7329 
 296   0.0000       3.647807        99.2619 
 297   0.0000       3.653171        99.4078 
 298   0.0000       3.667798        99.8059 
 299   0.0000       3.685250       100.2808 
 300   0.0000       3.694899       100.5433 
 301   0.0000       3.706861       100.8688 
 302   0.0000       3.720706       101.2456 
 303   0.0000       3.727379       101.4271 
 304   0.0000       3.734616       101.6241 
 305   0.0000       3.758630       102.2775 
 306   0.0000       3.772085       102.6436 
 307   0.0000       3.789452       103.1162 
 308   0.0000       3.797624       103.3386 
 309   0.0000       3.808929       103.6462 
 310   0.0000       3.814905       103.8088 
 311   0.0000       3.834800       104.3502 
 312   0.0000       3.837002       104.4101 
 313   0.0000       3.861128       105.0666 
 314   0.0000       3.868473       105.2665 
 315   0.0000       3.872672       105.3808 
 316   0.0000       3.881030       105.6082 
 317   0.0000       3.901024       106.1523 
 318   0.0000       3.917409       106.5981 
 319   0.0000       3.932745       107.0154 
 320   0.0000       3.945289       107.3568 
 321   0.0000       3.952815       107.5616 
 322   0.0000       3.978947       108.2726 
 323   0.0000       3.986492       108.4780 
 324   0.0000       3.996755       108.7572 
 325   0.0000       4.010965       109.1439 
 326   0.0000       4.018757       109.3559 
 327   0.0000       4.033407       109.7546 
 328   0.0000       4.044825       110.0653 
 329   0.0000       4.059419       110.4624 
 330   0.0000       4.073120       110.8352 
 331   0.0000       4.106774       111.7510 
 332   0.0000       4.113390       111.9310 
 333   0.0000       4.126208       112.2798 
 334   0.0000       4.135299       112.5272 
 335   0.0000       4.141882       112.7063 
 336   0.0000       4.161556       113.2417 
 337   0.0000       4.178485       113.7024 
 338   0.0000       4.181347       113.7802 
 339   0.0000       4.201419       114.3264 
 340   0.0000       4.208317       114.5141 
 341   0.0000       4.220658       114.8500 
 342   0.0000       4.242674       115.4490 
 343   0.0000       4.251221       115.6816 
 344   0.0000       4.263956       116.0281 
 345   0.0000       4.280637       116.4820 
 346   0.0000       4.292607       116.8078 
 347   0.0000       4.297218       116.9332 
 348   0.0000       4.304403       117.1288 
 349   0.0000       4.319401       117.5369 
 350   0.0000       4.326424       117.7280 
 351   0.0000       4.335878       117.9852 
 352   0.0000       4.347630       118.3050 
 353   0.0000       4.359560       118.6297 
 354   0.0000       4.366013       118.8053 
 355   0.0000       4.379941       119.1842 
 356   0.0000       4.396655       119.6391 
 357   0.0000       4.408344       119.9571 
 358   0.0000       4.423595       120.3721 
 359   0.0000       4.428765       120.5128 
 360   0.0000       4.443242       120.9068 
 361   0.0000       4.465298       121.5069 
 362   0.0000       4.473344       121.7259 
 363   0.0000       4.479076       121.8818 
 364   0.0000       4.497220       122.3756 
 365   0.0000       4.504965       122.5863 
 366   0.0000       4.532151       123.3261 
 367   0.0000       4.546871       123.7267 
 368   0.0000       4.556463       123.9877 
 369   0.0000       4.581039       124.6564 
 370   0.0000       4.588717       124.8653 
 371   0.0000       4.590276       124.9078 
 372   0.0000       4.614480       125.5664 
 373   0.0000       4.629310       125.9699 
 374   0.0000       4.643286       126.3502 
 375   0.0000       4.664009       126.9141 
 376   0.0000       4.693379       127.7133 
 377   0.0000       4.716255       128.3358 
 378   0.0000       4.722160       128.4965 
 379   0.0000       4.738775       128.9486 
 380   0.0000       4.757209       129.4502 
 381   0.0000       4.786029       130.2345 
 382   0.0000       4.815974       131.0493 
 383   0.0000       4.849803       131.9699 
 384   0.0000       4.871548       132.5615 
 385   0.0000       4.874345       132.6377 
 386   0.0000       4.882648       132.8636 
 387   0.0000       4.915592       133.7601 
 388   0.0000       4.926907       134.0680 
 389   0.0000       4.938172       134.3745 
 390   0.0000       4.949367       134.6791 
 391   0.0000       4.987974       135.7297 
 392   0.0000       4.997137       135.9790 
 393   0.0000       5.020528       136.6155 
 394   0.0000       5.040137       137.1491 
 395   0.0000       5.051759       137.4653 
 396   0.0000       5.065994       137.8527 
 397   0.0000       5.086946       138.4228 
 398   0.0000       5.121247       139.3562 
 399   0.0000       5.156498       140.3154 
 400   0.0000       5.166126       140.5774 
 401   0.0000       5.194704       141.3551 
 402   0.0000       5.211098       141.8012 
 403   0.0000       5.232611       142.3866 
 404   0.0000       5.245107       142.7266 
 405   0.0000       5.264790       143.2622 
 406   0.0000       5.284940       143.8105 
 407   0.0000       5.300104       144.2232 
 408   0.0000       5.319009       144.7376 
 409   0.0000       5.339758       145.3022 
 410   0.0000       5.369005       146.0980 
 411   0.0000       5.392130       146.7273 
 412   0.0000       5.411500       147.2544 
 413   0.0000       5.425681       147.6403 
 414   0.0000       5.459745       148.5672 
 415   0.0000       5.469162       148.8235 
 416   0.0000       5.472063       148.9024 
 417   0.0000       5.484748       149.2476 
 418   0.0000       5.526342       150.3794 
 419   0.0000       5.546481       150.9274 
 420   0.0000       5.549793       151.0176 
 421   0.0000       5.599652       152.3743 
 422   0.0000       5.616730       152.8390 
 423   0.0000       5.627005       153.1186 
 424   0.0000       5.659863       154.0127 
 425   0.0000       5.673244       154.3768 
 426   0.0000       5.688051       154.7797 
 427   0.0000       5.720026       155.6498 
 428   0.0000       5.743083       156.2772 
 429   0.0000       5.747560       156.3991 
 430   0.0000       5.775648       157.1634 
 431   0.0000       5.823219       158.4579 
 432   0.0000       5.830348       158.6518 
 433   0.0000       5.836570       158.8212 
 434   0.0000       5.844986       159.0502 
 435   0.0000       5.880085       160.0052 
 436   0.0000       5.921241       161.1251 
 437   0.0000       5.942076       161.6921 
 438   0.0000       5.964928       162.3139 
 439   0.0000       5.989167       162.9735 
 440   0.0000       6.004696       163.3961 
 441   0.0000       6.048761       164.5951 
 442   0.0000       6.059234       164.8801 
 443   0.0000       6.087937       165.6612 
 444   0.0000       6.119502       166.5201 
 445   0.0000       6.162430       167.6883 
 446   0.0000       6.218739       169.2205 
 447   0.0000       6.297836       171.3728 
 448   0.0000       6.357598       172.9990 
 449   0.0000       6.362499       173.1324 
 450   0.0000       6.454862       175.6457 
 451   0.0000       6.541649       178.0073 
 452   0.0000       6.585420       179.1984 
 453   0.0000       6.643608       180.7818 
 454   0.0000       6.890794       187.5080 
 455   0.0000       6.918879       188.2723 
 456   0.0000       6.946157       189.0145 
 457   0.0000       7.098388       193.1570 
 458   0.0000       7.158544       194.7939 
 459   0.0000       7.267168       197.7497 
 460   0.0000       7.329083       199.4345 
 461   0.0000       7.356076       200.1690 
 462   0.0000       7.358163       200.2258 
 463   0.0000       7.487789       203.7531 
 464   0.0000       7.595207       206.6761 
 465   0.0000       7.621786       207.3993 
 466   0.0000       7.834935       213.1994 
 467   0.0000       7.978619       217.1093 
 468   0.0000      23.962520       652.0533 
 469   0.0000      24.182749       658.0461 
 470   0.0000      24.299871       661.2331 
 471   0.0000      24.460762       665.6112 
 472   0.0000      24.546547       667.9455 
 473   0.0000      24.667749       671.2436 
 474   0.0000      24.704006       672.2302 
 475   0.0000      24.834743       675.7877 
 476   0.0000      45.505880      1238.2779 
 477   0.0000      45.933414      1249.9117 

                    ********************************
                    * MULLIKEN POPULATION ANALYSIS *
                    ********************************

-----------------------
MULLIKEN ATOMIC CHARGES
-----------------------
   0 C :   -0.224214
   1 C :   -0.088199
   2 C :   -0.241548
   3 C :   -0.041702
   4 H :    0.111120
   5 H :    0.113294
   6 H :    0.104630
   7 C :   -0.187691
   8 C :    0.276196
   9 H :    0.104735
  10 H :    0.121235
  11 H :    0.087216
  12 H :    0.092210
  13 C :    0.263443
  14 O :   -0.456484
  15 H :    0.031818
  16 O :   -0.382035
  17 C :   -0.002124
  18 H :    0.088625
  19 H :    0.067382
  20 H :    0.068573
  21 H :    0.093519
Sum of atomic charges:   -0.0000000

--------------------------------
MULLIKEN REDUCED ORBITAL CHARGES
--------------------------------
  0 C s       :     3.148958  s :     3.148958
      pz      :     1.034343  p :     2.968936
      px      :     0.982291
      py      :     0.952303
      dz2     :     0.011642  d :     0.100771
      dxz     :     0.012028
      dyz     :     0.032252
      dx2y2   :     0.016209
      dxy     :     0.028641
      f0      :     0.000554  f :     0.005549
      f+1     :     0.000399
      f-1     :     0.000704
      f+2     :     0.001053
      f-2     :     0.000597
      f+3     :     0.001385
      f-3     :     0.000857
  1 C s       :     3.072847  s :     3.072847
      pz      :     0.984193  p :     2.908193
      px      :     0.921650
      py      :     1.002350
      dz2     :     0.013200  d :     0.101548
      dxz     :     0.028016
      dyz     :     0.011442
      dx2y2   :     0.029979
      dxy     :     0.018911
      f0      :     0.000475  f :     0.005611
      f+1     :     0.001020
      f-1     :     0.000467
      f+2     :     0.000540
      f-2     :     0.000991
      f+3     :     0.001135
      f-3     :     0.000984
  2 C s       :     3.145781  s :     3.145781
      pz      :     1.000123  p :     3.009822
      px      :     0.967461
      py      :     1.042238
      dz2     :     0.011918  d :     0.080298
      dxz     :     0.019396
      dyz     :     0.011169
      dx2y2   :     0.017599
      dxy     :     0.020217
      f0      :     0.000408  f :     0.005647
      f+1     :     0.001007
      f-1     :     0.000742
      f+2     :     0.000681
      f-2     :     0.001066
      f+3     :     0.000665
      f-3     :     0.001078
  3 C s       :     3.054129  s :     3.054129
      pz      :     0.979339  p :     2.860187
      px      :     0.940983
      py      :     0.939864
      dz2     :     0.011820  d :     0.119570
      dxz     :     0.019488
      dyz     :     0.033013
      dx2y2   :     0.027298
      dxy     :     0.027951
      f0      :     0.000718  f :     0.007816
      f+1     :     0.000836
      f-1     :     0.000849
      f+2     :     0.001411
      f-2     :     0.001277
      f+3     :     0.001575
      f-3     :     0.001151
  4 H s       :     0.845833  s :     0.845833
      pz      :     0.019469  p :     0.040860
      px      :     0.010804
      py      :     0.010587
      dz2     :     0.000672  d :     0.002187
      dxz     :     0.000504
      dyz     :     0.000545
      dx2y2   :     0.000231
      dxy     :     0.000236
  5 H s       :     0.843560  s :     0.843560
      pz      :     0.010795  p :     0.040983
      px      :     0.018227
      py      :     0.011961
      dz2     :     0.000292  d :     0.002163
      dxz     :     0.000470
      dyz     :     0.000301
      dx2y2   :     0.000584
      dxy     :     0.000516
  6 H s       :     0.851573  s :     0.851573
      pz      :     0.017215  p :     0.041510
      px      :     0.012563
      py      :     0.011732
      dz2     :     0.000567  d :     0.002287
      dxz     :     0.000467
      dyz     :     0.000483
      dx2y2   :     0.000403
      dxy     :     0.000367
  7 C s       :     3.199006  s :     3.199006
      pz      :     1.006678  p :     2.878159
      px      :     0.946886
      py      :     0.924594
      dz2     :     0.006800  d :     0.101935
      dxz     :     0.019127
      dyz     :     0.018642
      dx2y2   :     0.034071
      dxy     :     0.023295
      f0      :     0.001070  f :     0.008591
      f+1     :     0.000930
      f-1     :     0.000871
      f+2     :     0.001076
      f-2     :     0.001080
      f+3     :     0.002129
      f-3     :     0.001434
  8 C s       :     3.048095  s :     3.048095
      pz      :     0.866982  p :     2.463326
      px      :     0.740506
      py      :     0.855838
      dz2     :     0.030953  d :     0.195333
      dxz     :     0.023661
      dyz     :     0.033259
      dx2y2   :     0.061774
      dxy     :     0.045686
      f0      :     0.001357  f :     0.017051
      f+1     :     0.003164
      f-1     :     0.001653
      f+2     :     0.002750
      f-2     :     0.002200
      f+3     :     0.003406
      f-3     :     0.002521
  9 H s       :     0.855017  s :     0.855017
      pz      :     0.008369  p :     0.038165
      px      :     0.007738
      py      :     0.022058
      dz2     :     0.000220  d :     0.002084
      dxz     :     0.000053
      dyz     :     0.000578
      dx2y2   :     0.000606
      dxy     :     0.000627
 10 H s       :     0.836688  s :     0.836688
      pz      :     0.008589  p :     0.040029
      px      :     0.008216
      py      :     0.023224
      dz2     :     0.000207  d :     0.002047
      dxz     :     0.000014
      dyz     :     0.000567
      dx2y2   :     0.000615
      dxy     :     0.000644
 11 H s       :     0.867297  s :     0.867297
      pz      :     0.020028  p :     0.043287
      px      :     0.013624
      py      :     0.009634
      dz2     :     0.000591  d :     0.002201
      dxz     :     0.000610
      dyz     :     0.000442
      dx2y2   :     0.000338
      dxy     :     0.000219
 12 H s       :     0.860121  s :     0.860121
      pz      :     0.016658  p :     0.045412
      px      :     0.018395
      py      :     0.010359
      dz2     :     0.000538  d :     0.002256
      dxz     :     0.000580
      dyz     :     0.000371
      dx2y2   :     0.000439
      dxy     :     0.000327
 13 C s       :     3.150853  s :     3.150853
      pz      :     0.792110  p :     2.363983
      px      :     0.777144
      py      :     0.794729
      dz2     :     0.012264  d :     0.204412
      dxz     :     0.008465
      dyz     :     0.080484
      dx2y2   :     0.027144
      dxy     :     0.076056
      f0      :     0.002142  f :     0.017309
      f+1     :     0.001024
      f-1     :     0.001511
      f+2     :     0.003642
      f-2     :     0.001300
      f+3     :     0.004919
      f-3     :     0.002770
 14 O s       :     3.842801  s :     3.842801
      pz      :     1.604681  p :     4.575923
      px      :     1.610381
      py      :     1.360861
      dz2     :     0.003712  d :     0.035672
      dxz     :     0.000312
      dyz     :     0.010201
      dx2y2   :     0.011001
      dxy     :     0.010444
      f0      :     0.000251  f :     0.002088
      f+1     :     0.000040
      f-1     :     0.000311
      f+2     :     0.000334
      f-2     :     0.000043
      f+3     :     0.000573
      f-3     :     0.000536
 15 H s       :     0.931207  s :     0.931207
      pz      :     0.012683  p :     0.034680
      px      :     0.011905
      py      :     0.010093
      dz2     :     0.000350  d :     0.002295
      dxz     :     0.000416
      dyz     :     0.000526
      dx2y2   :     0.000602
      dxy     :     0.000400
 16 O s       :     3.767583  s :     3.767583
      pz      :     1.710035  p :     4.569333
      px      :     1.526878
      py      :     1.332420
      dz2     :     0.005668  d :     0.042888
      dxz     :     0.008411
      dyz     :     0.006089
      dx2y2   :     0.015690
      dxy     :     0.007031
      f0      :     0.000265  f :     0.002231
      f+1     :     0.000251
      f-1     :     0.000291
      f+2     :     0.000327
      f-2     :     0.000283
      f+3     :     0.000327
      f-3     :     0.000487
 17 C s       :     3.122082  s :     3.122082
      pz      :     1.048606  p :     2.747694
      px      :     1.060733
      py      :     0.638356
      dz2     :     0.019497  d :     0.122652
      dxz     :     0.013870
      dyz     :     0.034371
      dx2y2   :     0.025538
      dxy     :     0.029375
      f0      :     0.001575  f :     0.009696
      f+1     :     0.000172
      f-1     :     0.001289
      f+2     :     0.001910
      f-2     :     0.000452
      f+3     :     0.002281
      f-3     :     0.002017
 18 H s       :     0.876746  s :     0.876746
      pz      :     0.010908  p :     0.032514
      px      :     0.017303
      py      :     0.004302
      dz2     :     0.000358  d :     0.002116
      dxz     :     0.000563
      dyz     :     0.000131
      dx2y2   :     0.000513
      dxy     :     0.000550
 19 H s       :     0.898206  s :     0.898206
      pz      :     0.011444  p :     0.032284
      px      :     0.013671
      py      :     0.007169
      dz2     :     0.000368  d :     0.002128
      dxz     :     0.000441
      dyz     :     0.000276
      dx2y2   :     0.000601
      dxy     :     0.000441
 20 H s       :     0.896618  s :     0.896618
      pz      :     0.019905  p :     0.032652
      px      :     0.007301
      py      :     0.005446
      dz2     :     0.000747  d :     0.002157
      dxz     :     0.000538
      dyz     :     0.000651
      dx2y2   :     0.000158
      dxy     :     0.000062
 21 H s       :     0.865295  s :     0.865295
      pz      :     0.013980  p :     0.038963
      px      :     0.014585
      py      :     0.010398
      dz2     :     0.000386  d :     0.002223
      dxz     :     0.000509
      dyz     :     0.000376
      dx2y2   :     0.000506
      dxy     :     0.000447


                     *******************************
                     * LOEWDIN POPULATION ANALYSIS *
                     *******************************

----------------------
LOEWDIN ATOMIC CHARGES
----------------------
   0 C :    0.041847
   1 C :    0.058686
   2 C :    0.059675
   3 C :   -0.047626
   4 H :    0.005159
   5 H :    0.007005
   6 H :    0.013189
   7 C :   -0.027954
   8 C :   -0.226055
   9 H :    0.006673
  10 H :    0.005754
  11 H :    0.007131
  12 H :    0.005930
  13 C :   -0.179263
  14 O :    0.046850
  15 H :    0.005302
  16 O :    0.223741
  17 C :   -0.037291
  18 H :    0.006608
  19 H :    0.001185
  20 H :    0.002408
  21 H :    0.021046

-------------------------------
LOEWDIN REDUCED ORBITAL CHARGES
-------------------------------
  0 C s       :     2.746206  s :     2.746206
      pz      :     0.941881  p :     2.852874
      px      :     0.894491
      py      :     1.016502
      dz2     :     0.038174  d :     0.329022
      dxz     :     0.036215
      dyz     :     0.102840
      dx2y2   :     0.057509
      dxy     :     0.094285
      f0      :     0.003533  f :     0.030051
      f+1     :     0.001406
      f-1     :     0.004251
      f+2     :     0.005204
      f-2     :     0.003628
      f+3     :     0.006835
      f-3     :     0.005193
  1 C s       :     2.744350  s :     2.744350
      pz      :     0.908607  p :     2.833514
      px      :     0.945938
      py      :     0.978969
      dz2     :     0.044498  d :     0.332842
      dxz     :     0.094470
      dyz     :     0.029636
      dx2y2   :     0.099148
      dxy     :     0.065091
      f0      :     0.001908  f :     0.030608
      f+1     :     0.004439
      f-1     :     0.002883
      f+2     :     0.003440
      f-2     :     0.005248
      f+3     :     0.007045
      f-3     :     0.005644
  2 C s       :     2.743612  s :     2.743612
      pz      :     0.929664  p :     2.878532
      px      :     0.936237
      py      :     1.012630
      dz2     :     0.037907  d :     0.289720
      dxz     :     0.068009
      dyz     :     0.036863
      dx2y2   :     0.087180
      dxy     :     0.059760
      f0      :     0.001626  f :     0.028461
      f+1     :     0.003570
      f-1     :     0.003646
      f+2     :     0.003569
      f-2     :     0.005322
      f+3     :     0.004758
      f-3     :     0.005971
  3 C s       :     2.743872  s :     2.743872
      pz      :     0.932060  p :     2.866066
      px      :     0.904774
      py      :     1.029232
      dz2     :     0.037889  d :     0.398809
      dxz     :     0.063645
      dyz     :     0.113459
      dx2y2   :     0.080657
      dxy     :     0.103160
      f0      :     0.003948  f :     0.038879
      f+1     :     0.003541
      f-1     :     0.004304
      f+2     :     0.007594
      f-2     :     0.005057
      f+3     :     0.008899
      f-3     :     0.005536
  4 H s       :     0.812718  s :     0.812718
      pz      :     0.066843  p :     0.154279
      px      :     0.044392
      py      :     0.043045
      dz2     :     0.008583  d :     0.027843
      dxz     :     0.006546
      dyz     :     0.007205
      dx2y2   :     0.003071
      dxy     :     0.002439
  5 H s       :     0.811605  s :     0.811605
      pz      :     0.047209  p :     0.153675
      px      :     0.064501
      py      :     0.041965
      dz2     :     0.004463  d :     0.027715
      dxz     :     0.006306
      dyz     :     0.003328
      dx2y2   :     0.007142
      dxy     :     0.006475
  6 H s       :     0.805518  s :     0.805518
      pz      :     0.059579  p :     0.153002
      px      :     0.049966
      py      :     0.043458
      dz2     :     0.006994  d :     0.028292
      dxz     :     0.006096
      dyz     :     0.006180
      dx2y2   :     0.004651
      dxy     :     0.004370
  7 C s       :     2.725479  s :     2.725479
      pz      :     0.904154  p :     2.862611
      px      :     0.969280
      py      :     0.989178
      dz2     :     0.033038  d :     0.397269
      dxz     :     0.063685
      dyz     :     0.067944
      dx2y2   :     0.117337
      dxy     :     0.115264
      f0      :     0.003598  f :     0.042595
      f+1     :     0.002999
      f-1     :     0.004355
      f+2     :     0.006475
      f-2     :     0.003757
      f+3     :     0.013354
      f-3     :     0.008057
  8 C s       :     2.708624  s :     2.708624
      pz      :     0.854792  p :     2.730563
      px      :     0.869713
      py      :     1.006058
      dz2     :     0.101241  d :     0.688663
      dxz     :     0.116277
      dyz     :     0.111935
      dx2y2   :     0.197922
      dxy     :     0.161288
      f0      :     0.007197  f :     0.098206
      f+1     :     0.013930
      f-1     :     0.008643
      f+2     :     0.017723
      f-2     :     0.012560
      f+3     :     0.023504
      f-3     :     0.014649
  9 H s       :     0.818091  s :     0.818091
      pz      :     0.039351  p :     0.148170
      px      :     0.035174
      py      :     0.073645
      dz2     :     0.002936  d :     0.027066
      dxz     :     0.000480
      dyz     :     0.007957
      dx2y2   :     0.007667
      dxy     :     0.008025
 10 H s       :     0.809695  s :     0.809695
      pz      :     0.042583  p :     0.156698
      px      :     0.036434
      py      :     0.077681
      dz2     :     0.002525  d :     0.027853
      dxz     :     0.000088
      dyz     :     0.008624
      dx2y2   :     0.007847
      dxy     :     0.008769
 11 H s       :     0.809944  s :     0.809944
      pz      :     0.063474  p :     0.154680
      px      :     0.048751
      py      :     0.042455
      dz2     :     0.008037  d :     0.028245
      dxz     :     0.007319
      dyz     :     0.006003
      dx2y2   :     0.004013
      dxy     :     0.002873
 12 H s       :     0.805518  s :     0.805518
      pz      :     0.058892  p :     0.159741
      px      :     0.054635
      py      :     0.046214
      dz2     :     0.007438  d :     0.028811
      dxz     :     0.006670
      dyz     :     0.005310
      dx2y2   :     0.005167
      dxy     :     0.004227
 13 C s       :     2.772420  s :     2.772420
      pz      :     0.812536  p :     2.601099
      px      :     0.820318
      py      :     0.968245
      dz2     :     0.065546  d :     0.704749
      dxz     :     0.042556
      dyz     :     0.224991
      dx2y2   :     0.151011
      dxy     :     0.220644
      f0      :     0.012674  f :     0.100995
      f+1     :     0.005364
      f-1     :     0.009633
      f+2     :     0.021539
      f-2     :     0.005358
      f+3     :     0.029630
      f-3     :     0.016798
 14 O s       :     3.407560  s :     3.407560
      pz      :     1.482617  p :     4.472438
      px      :     1.489193
      py      :     1.500629
      dz2     :     0.008060  d :     0.067567
      dxz     :     0.000431
      dyz     :     0.017350
      dx2y2   :     0.023527
      dxy     :     0.018199
      f0      :     0.000595  f :     0.005585
      f+1     :     0.000109
      f-1     :     0.000927
      f+2     :     0.000854
      f-2     :     0.000090
      f+3     :     0.001454
      f-3     :     0.001557
 15 H s       :     0.847162  s :     0.847162
      pz      :     0.044587  p :     0.124107
      px      :     0.038947
      py      :     0.040573
      dz2     :     0.003670  d :     0.023429
      dxz     :     0.005057
      dyz     :     0.005590
      dx2y2   :     0.004571
      dxy     :     0.004542
 16 O s       :     3.234858  s :     3.234858
      pz      :     1.609042  p :     4.428709
      px      :     1.484244
      py      :     1.335423
      dz2     :     0.013600  d :     0.106465
      dxz     :     0.015707
      dyz     :     0.018966
      dx2y2   :     0.031516
      dxy     :     0.026676
      f0      :     0.000537  f :     0.006227
      f+1     :     0.000768
      f-1     :     0.000522
      f+2     :     0.001290
      f-2     :     0.000636
      f+3     :     0.001415
      f-3     :     0.001061
 17 C s       :     2.718823  s :     2.718823
      pz      :     1.029952  p :     2.799504
      px      :     1.023983
      py      :     0.745569
      dz2     :     0.074325  d :     0.452941
      dxz     :     0.046832
      dyz     :     0.113193
      dx2y2   :     0.115957
      dxy     :     0.102634
      f0      :     0.009443  f :     0.066023
      f+1     :     0.001057
      f-1     :     0.009317
      f+2     :     0.012175
      f-2     :     0.005001
      f+3     :     0.014032
      f-3     :     0.014999
 18 H s       :     0.830533  s :     0.830533
      pz      :     0.045431  p :     0.135460
      px      :     0.065007
      py      :     0.025023
      dz2     :     0.005518  d :     0.027399
      dxz     :     0.007764
      dyz     :     0.001581
      dx2y2   :     0.006622
      dxy     :     0.005914
 19 H s       :     0.835270  s :     0.835270
      pz      :     0.045709  p :     0.136599
      px      :     0.055997
      py      :     0.034893
      dz2     :     0.005739  d :     0.026945
      dxz     :     0.005684
      dyz     :     0.003576
      dx2y2   :     0.006244
      dxy     :     0.005702
 20 H s       :     0.833679  s :     0.833679
      pz      :     0.071941  p :     0.136840
      px      :     0.037107
      py      :     0.027792
      dz2     :     0.008710  d :     0.027073
      dxz     :     0.009315
      dyz     :     0.007354
      dx2y2   :     0.001045
      dxy     :     0.000650
 21 H s       :     0.804185  s :     0.804185
      pz      :     0.055986  p :     0.147141
      px      :     0.051163
      py      :     0.039991
      dz2     :     0.005539  d :     0.027629
      dxz     :     0.006204
      dyz     :     0.004468
      dx2y2   :     0.005777
      dxy     :     0.005640


                      *****************************
                      * MAYER POPULATION ANALYSIS *
                      *****************************

  NA   - Mulliken gross atomic population
  ZA   - Total nuclear charge
  QA   - Mulliken gross atomic charge
  VA   - Mayer's total valence
  BVA  - Mayer's bonded valence
  FA   - Mayer's free valence

  ATOM       NA         ZA         QA         VA         BVA        FA
  0 C      6.2242     6.0000    -0.2242     3.9304     3.9304    -0.0000
  1 C      6.0882     6.0000    -0.0882     3.8659     3.8659    -0.0000
  2 C      6.2415     6.0000    -0.2415     3.9095     3.9095     0.0000
  3 C      6.0417     6.0000    -0.0417     3.5552     3.5552    -0.0000
  4 H      0.8889     1.0000     0.1111     1.0108     1.0108    -0.0000
  5 H      0.8867     1.0000     0.1133     1.0015     1.0015     0.0000
  6 H      0.8954     1.0000     0.1046     1.0172     1.0172    -0.0000
  7 C      6.1877     6.0000    -0.1877     3.9199     3.9199    -0.0000
  8 C      5.7238     6.0000     0.2762     3.8205     3.8205    -0.0000
  9 H      0.8953     1.0000     0.1047     1.0037     1.0037    -0.0000
 10 H      0.8788     1.0000     0.1212     1.0122     1.0122     0.0000
 11 H      0.9128     1.0000     0.0872     1.0134     1.0134     0.0000
 12 H      0.9078     1.0000     0.0922     1.0133     1.0133     0.0000
 13 C      5.7366     6.0000     0.2634     4.0800     4.0800     0.0000
 14 O      8.4565     8.0000    -0.4565     1.9949     1.9949     0.0000
 15 H      0.9682     1.0000     0.0318     1.0004     1.0004     0.0000
 16 O      8.3820     8.0000    -0.3820     1.9131     1.9131    -0.0000
 17 C      6.0021     6.0000    -0.0021     3.8889     3.8889    -0.0000
 18 H      0.9114     1.0000     0.0886     0.9985     0.9985    -0.0000
 19 H      0.9326     1.0000     0.0674     0.9856     0.9856    -0.0000
 20 H      0.9314     1.0000     0.0686     0.9981     0.9981    -0.0000
 21 H      0.9065     1.0000     0.0935     1.0267     1.0267     0.0000

  Mayer bond orders larger than 0.100000
B(  0-C ,  1-C ) :   0.3161 B(  0-C ,  3-C ) :   1.4605 B(  0-C ,  4-H ) :   1.0071 
B(  0-C ,  5-H ) :   1.0154 B(  1-C ,  7-C ) :   1.5254 B(  1-C ,  9-H ) :   1.0014 
B(  1-C , 11-H ) :   1.0110 B(  2-C ,  3-C ) :   0.2789 B(  2-C ,  8-C ) :   1.5041 
B(  2-C , 10-H ) :   0.9993 B(  2-C , 12-H ) :   1.0102 B(  3-C ,  6-H ) :   0.9884 
B(  3-C , 13-C ) :   0.9656 B(  3-C , 15-H ) :  -0.1118 B(  7-C ,  8-C ) :   1.2933 
B(  7-C , 21-H ) :   1.0061 B(  8-C , 16-O ) :   1.0304 B( 13-C , 14-O ) :   1.9611 
B( 13-C , 15-H ) :   1.0686 B( 16-O , 17-C ) :   0.8970 B( 17-C , 18-H ) :   1.0028 
B( 17-C , 19-H ) :   0.9966 B( 17-C , 20-H ) :   0.9989 

-------
TIMINGS
-------

Total SCF time: 0 days 0 hours 1 min 9 sec 

Total time                  ....      69.172 sec
Sum of individual times     ....      68.418 sec  ( 98.9%)

Fock matrix formation       ....      65.545 sec  ( 94.8%)
Diagonalization             ....       0.405 sec  (  0.6%)
Density matrix formation    ....       0.085 sec  (  0.1%)
Population analysis         ....       0.490 sec  (  0.7%)
Initial guess               ....       0.148 sec  (  0.2%)
Orbital Transformation      ....       0.000 sec  (  0.0%)
Orbital Orthonormalization  ....       0.000 sec  (  0.0%)
DIIS solution               ....       1.330 sec  (  1.9%)
SOSCF solution              ....       0.338 sec  (  0.5%)

Maximum memory used throughout the entire SCF-calculation: 246.6 MB


           ************************************************************
           *        Program running with 16 parallel MPI-processes    *
           *              working on a common directory               *
           ************************************************************


--------------------------------------------------------------------------------
                             ORCA-MATRIX DRIVEN CI
--------------------------------------------------------------------------------


Wavefunction type
-----------------
Correlation treatment                      ...      CCSD     
Single excitations                         ... ON
Orbital optimization                       ... OFF
Calculation of Z vector                    ... OFF
Calculation of Brueckner orbitals          ... OFF
Perturbative triple excitations            ... ON
Calculation of F12 correction              ... OFF
Frozen core treatment                      ... chemical core (20 el)
Reference Wavefunction                     ... RHF
  Internal Orbitals:    10 ...   37 ( 28 MO's/ 56 electrons)
  Virtual  Orbitals:    38 ...  477 (440 MO's              )
Number of AO's                             ...    478
Number of electrons                        ...     76
Number of correlated electrons             ...     56

Algorithmic settings
--------------------
Integral transformation                    ... All integrals via the RI transformation
K(C) Formation                             ... RI-DLPNO
   PNO-Integral Storage                    ... ON DISK
   PNO occupation number cut-off           ... 3.330e-07
   Singles PNO occupation number cut-off   ... 9.990e-09
   PNO Mulliken prescreening cut-off       ... 1.000e-03
   Domain cut-off (Mulliken population)    ... 1.000e-03
   PNO Normalization                       ...    1
Maximum number of iterations               ...        50
Convergence tolerance (max. residuum)      ... 2.500e-05
Level shift for amplitude update           ... 2.000e-01
Maximum number of DIIS vectors             ...         7
DIIS turned on at iteration                ...         0
Damping before turning on DIIS             ...     0.500
[...]
Spin component scaling                      .... not used

   .... Finished loop over pairs
Making pair pair interaction lists          ... done

                       ===========================
                        272 OF  406 PAIRS ARE KEPT CCSD PAIRS
                         90 OF  406 PAIRS ARE KEPT MP2 PAIRS FOR (T)
                         44 OF  406 PAIRS ARE SKIPPED
                       ===========================

Total time spent in the initial guess                 ...     2.423 sec
SL-MP2 correlation energy (all non-screened pairs)    ...      -1.743426900294 Eh

Initial PNO correlation energy                        ...      -1.734211436492 Eh
sum of pair energies prescreened and skipped MP2 pairs...      -0.000255211291 Eh
sum of pair energies of crude MP2 skipped pairs only  ...      -0.000255211291 Eh
sum of MP2 pair energies for pairs that were not kept ...      -0.004104683370 Eh
sum of PNO error estimates for the kept pairs         ...      -0.005110780431 Eh
                                                          --------------------
sum of all corrections                                         -0.009215463801
Initial total correlation energy                               -1.743426900294
Thresholds for map construction and integral transformation for fine MP2 and CCSD(T) calculation:
   TCutMKN   ...     1.0e-03
   TCutDO    ...     1.0e-02
   TCutPairs ...     1.0e-04
   TCutCMO   ...     1.0e-03
   TCutCPAO  ...     1.0e-03

Thresholds for map construction and integral transformation for strong Triples:
   TCutMKN   ...     1.0e-02
   TCutDO    ...     2.0e-02
   TCutCMO   ...     1.0e-03
   TCutCPAO  ...     1.0e-03

Thresholds for map construction and integral transformation for weak Triples:
   TCutMKN   ...     1.0e-01
   TCutDO    ...     4.0e-02
   TCutCMO   ...     1.0e-03
   TCutCPAO  ...     1.0e-03

--------------------------------
LOCAL RI TRANSFORMATION (IAVPAO)
--------------------------------

Orbital window:      10 to 37
Number of PAOs:     478
Basis functions:    478 (182 shells)
Aux. functions:    1120 (340 shells)
Use SHARK:           on

Processing maps (0.0 sec)
Average map sizes:
   Aux shells -> MOs              27.9
   Aux shells -> PAOs            478.0
   MOs        -> AO shells       176.8
   PAOs       -> AO shells       181.5

Calculating integrals (0.5 sec, 114.050 MB)
Sorting integrals (0.1 sec, 114.037 MB)
Total time for the integral transformation: 0.6 sec
--------------------------------
INITIAL GUESS AND PNO GENERATION
--------------------------------

PNO truncation parameters                   .... 
    PAOOverlapThresh   =        1.000e-08

    TCutPairs          =        1.000e-04
    TCutPNO            =        3.330e-07
    TCutPNOSingles     =        9.990e-09
    TCutMP2Pairs       =        1.000e-05
    TCutMKN            =        1.000e-03
    TCutDO             =        1.000e-02

Pair selection                          .... not used
Type of local MP2 treatment                 .... semi-local MP2
Strategy for PNO selection                  .... occupation number selection
Pair density normalization                  .... MP2 norm
Spin component scaling                      .... not used

   .... Finished loop over pairs

 PNO Occupation Number Statistics: 
  | Av. % of trace(Dij) retained        ...  97.781866791574
  | sigma^2 in % of trace(Dij) retained ...   7.86e+00
  | Av. % of trace(Di) retained         ...  99.999017374798
  | sigma^2 in % of trace(Di) retained  ...   2.10e-07
 Distributions of % trace(Dij) recovered:
  |       >= 99.9  ...    79 ( 21.8 % of all pairs)
  |   [80.0, 90.0) ...     6 (  1.7 % of all pairs)
  |   [90.0, 99.0) ...   177 ( 48.9 % of all pairs)
  |   [99.0, 99.9) ...   100 ( 27.6 % of all pairs)
 Distributions of % trace(Di) recovered :
  |       >= 99.9  ...    28 (100.0 % of all I-pairs )

Making pair pair interaction lists          ... done

                       ===========================
                        272 OF  362 PAIRS ARE KEPT
                       ===========================

Total time spent in the initial guess                 ...     3.715 sec
SL-MP2 correlation energy (all non-screened pairs)    ...      -1.744530938307 Eh

Initial PNO correlation energy                        ...      -1.735460285316 Eh
sum of pair energies estimated for screened out pairs ...      -0.000255211291 Eh
sum of MP2 pair energies for pairs that were not kept ...      -0.003861039690 Eh
sum of PNO error estimates for the kept pairs         ...      -0.005209613302 Eh
                                                          --------------------
sum of all corrections                                         -0.009325864283
Initial total correlation energy                               -1.744786149599
Thresholds for map construction and integral transformation for fine MP2 and CCSD(T) calculation:
   TCutMKN   ...     1.0e-03
   TCutDO    ...     1.0e-02
   TCutPairs ...     1.0e-04
   TCutCMO   ...     1.0e-03
   TCutCPAO  ...     1.0e-03

Time for aux screen maps:            0.003
Time for maps after fine MP2:            0.012
-----------------------------
LOCAL RI TRANSFORMATION (IJV)
-----------------------------

Orbital window:      10 to 37
Basis functions:    478 (182 shells)
Aux. functions:    1120 (340 shells)
Use SHARK:           on

Processing maps (0.0 sec)
Average map sizes:
   Aux shells -> MOs(i)           27.2
   Aux shells -> MOs(j)           28.0
   MOs        -> AO shells       176.8

Calculating integrals (0.5 sec, 6.529 MB)
Sorting integrals (0.0 sec, 6.516 MB)
Total time for the integral transformation: 0.5 sec
--------------------------------
LOCAL RI TRANSFORMATION (VABPAO)
--------------------------------

Number of PAOs:     478
Basis functions:    478 (182 shells)
Aux. functions:    1120 (340 shells)
Use SHARK:           on

Processing maps (0.0 sec)
Average map sizes:
   Aux shells -> PAOs            478.0
   PAOs       -> AO shells       181.5

Calculating integrals (1.5 sec, 1952.391 MB)
Finished


-------------------------------------
Pair Pair Term precalculation with     
RI-(ij|mn) and (im|jn) transformation  
ON THE FLY                             
-------------------------------------

   IBatch   1 (of   2)              ... done (   31.564 sec)
   IBatch   2 (of   2)              ... done (   18.345 sec)
Total EXT                           ...          49.909 sec

---------------------
RI-PNO TRANSFORMATION
---------------------

Total Number of PNOs                   ...  9464
Average number of PNOs per pair        ...    34
Maximal number of PNOs per pair        ...    78
   #pairs with  1 -  5 PNOs   :    0
   #pairs with  6 - 10 PNOs   :    4
   #pairs with 11 - 15 PNOs   :   24
   #pairs with 16 - 20 PNOs   :   29
   #pairs with 21 - 25 PNOs   :   34
   #pairs with 26 - 30 PNOs   :   19
   #pairs with 31 - 35 PNOs   :   37
   #pairs with 36 - 40 PNOs   :   29
   #pairs with 41 - 45 PNOs   :   37
   #pairs with 46 - 50 PNOs   :   14
   #pairs with 51 - 55 PNOs   :   21
   #pairs with 56 - 60 PNOs   :    9
   #pairs with 61 - 65 PNOs   :    5
   #pairs with 66 - 70 PNOs   :    4
   #pairs with 71 - 75 PNOs   :    3
   #pairs with 76 - 80 PNOs   :    3

Generation of (ij|ab)[P] integrals            ... on
Generation of (ia|bc)[P],(ja|bc)[P] integrals ... on
Storage of 3 and 4 external integrals         ... on
Generation of ALL (ka|bc)[P] integrals        ... on
Keep RI integrals in memory                   ... off

Ibatch:  1 (of  1)
Starting 2-4 index PNO integral generation ... done

Timings:
Total PNO integral transformation time     ...         59.321 sec
Size of the 3-external file                ...       144 MB
Size of the 4-external file                ...       954 MB
Size of the IKJL file                      ...         0 MB
Size of the all 3-external file            ...      2016 MB
Size of the 1-external file                ...         6 MB

Making pair/pair overlap matrices          ... done (    2.933 sec)
Size of the pair overlap file              ... 526 MB
Redoing the guess amplitudes               ... done (    0.052 sec)

-------------------------
FINAL STARTUP INFORMATION
-------------------------

E(0)                                       ...   -459.674035344
E(SL-MP2)                                  ...     -1.744530938
E(SL-MP2) including corrections            ...     -1.744786150
Initial E(tot)                             ...   -461.418821494
<T|T>                                      ...      0.501376409
Number of pairs included                   ... 272
Total number of pairs                      ... 406

------------------------------------------------
                  RHF COUPLED CLUSTER ITERATIONS
------------------------------------------------

Number of PNO amplitudes to be optimized   ...       392064
Number of non-PNO amplitudes               ...     52659200
Untruncated number of regular amplitudes   ...     78601600

Iter       E(tot)           E(Corr)          Delta-E          Residual     Time
  0   -461.418904067     -1.735542858      0.008988080      0.020293725    5.92
                           *** Turning on DIIS ***
  1   -461.476368664     -1.793007456     -0.057464597      0.013719839    5.49
  2   -461.522497035     -1.839135826     -0.046128371      0.006629936    5.58
  3   -461.531742835     -1.848381627     -0.009245800      0.004254607    5.40
  4   -461.534758775     -1.851397567     -0.003015940      0.001940747    5.46
  5   -461.535844698     -1.852483489     -0.001085923      0.000793336    5.43
  6   -461.536118515     -1.852757306     -0.000273817      0.000339406    5.44
  7   -461.536149009     -1.852787801     -0.000030495      0.000168942    5.75
  8   -461.536163839     -1.852802631     -0.000014830      0.000090255    5.45
  9   -461.536151750     -1.852790541      0.000012090      0.000045822    5.52
 10   -461.536156752     -1.852795544     -0.000005003      0.000020292    5.39
               --- The Coupled-Cluster iterations have converged ---

----------------------
COUPLED CLUSTER ENERGY
----------------------

E(0)                                       ...   -459.674035344
E(CORR)(strong-pairs)                      ...     -1.852795544
E(CORR)(weak-pairs)                        ...     -0.009325864
E(CORR)(corrected)                         ...     -1.862121408
E(TOT)                                     ...   -461.536156752
Singles Norm <S|S>**1/2                    ...      0.089342010  
T1 diagnostic                              ...      0.011938828  

------------------
LARGEST AMPLITUDES
------------------
  30-> 38  30-> 38       0.055996
  29-> 38  29-> 38       0.055409
  33-> 38  33-> 38       0.048796
  15-> 38  15-> 38       0.046844
  20-> 38  20-> 38       0.046083
  30-> 38  29-> 38       0.043358
  32-> 39  32-> 39       0.042901
  21-> 39  21-> 39       0.037562
  21-> 38  21-> 38       0.036743
  34-> 41  34-> 41       0.033421
  31-> 42  31-> 42       0.032871
  35-> 38  35-> 38       0.032292
  36-> 38  36-> 38       0.031144
  25-> 39  25-> 39       0.030944
  34-> 38  34-> 38       0.030809
  18-> 38  18-> 38       0.030701


-------------------------------------------
DLPNO BASED TRIPLES CORRECTION
-------------------------------------------

Singles multiplier          ...  1.000000
TCutTNO                     ... 1.000e-09
TCutMP2Pairs                ... 1.000e-05
TCutDOStrong                ... 2.000e-02
TCutMKNStrong               ... 1.000e-02
TCutDOWeak                  ... 4.000e-02
TCutMKNWeak                 ... 1.000e-01

Fragment selection                          .... not used
Fock matrix occ-virt block is zero --> Setting DT_in_Triples to false.
Number of Triples that are to be computed   ...      2383

 . . . . . . . . .
10% done  
20% done  
30% done  
40% done  
50% done  
60% done  
70% done  
80% done  
90% done               (     98.411 sec)
Triples timings:
Total time for T0               ...   106.478 sec
Total time for Iterative (T)    ...     0.000 sec
Total time of overall (T)       ...   108.814 sec

Triples List generation         ...     0.000 sec
TNO generation                  ...     8.056 sec
Pair density generation         ...     0.005 sec
Look up tables                  ...     0.000 sec
Generating 3-index integrals    ...    68.843 sec
  Make 4-ind.int. from 3-ind.int...     7.631 sec
  Projecting amplitudes (D + S) ...    11.927 sec
  Downprojecting integrals      ...     0.001 sec
  Energy contr. (sum over a,b,c)...     1.833 sec
Fitting ET(->0)                 ...     0.000 sec

Everything after 3-index        ...    29.568 sec

Timing details:
 TNO integrals                  ...    75.814 sec
   Reading 3-index integrals    ...     0.379 sec
   Sorting integrals            ...     7.969 sec
       Sorting integrals 1      ...     0.001 sec
       Sorting integrals 2      ...     6.051 sec
       Sorting integrals 3      ...     0.262 sec
       Sorting integrals 4      ...     0.019 sec
       Sorting integrals 5      ...     0.080 sec
       Sorting integrals 6      ...     1.557 sec
   Calculating local VM**-1/2   ...     0.310 sec
   Orthogonal. integrals        ...     0.661 sec
   Multipl. 3-index integrals   ...    66.494 sec
   All concerning IRIab (w/TNO) ...     4.788 sec

 Calculate W0/W1                ...     8.171 sec
 W 3-ext contribution           ...     4.803 sec
 W 3-int contribution           ...     1.400 sec
 Sorting W                      ...     1.824 sec

 V exchange contribution        ...     0.731 sec

 Timings for Triples without generation
     of 3-index integrals       ...    29.567 sec
       0 weak pairs             ...    22.790 sec
       1 weak pair              ...     6.777 sec
       2 weak pairs             ...     0.000 sec
       3 weak pairs             ...     0.000 sec
  Extra time for extrapolation  ...     0.000 sec

Number of Triples   (0, 1, 2, 3 weak pairs; overall):   1613     770       0       0  (  2383)
Number of Atoms     (0, 1, 2, 3 weak pairs; overall):   15.4    13.1     0.0     0.0  (    22)
Number of PAOs      (0, 1, 2, 3 weak pairs; overall):  357.6   314.9     0.0     0.0  (   478)
Number of AuxFcns   (0, 1, 2, 3 weak pairs; overall):  444.4   346.8     0.0     0.0  (  1120)
Number of TNOs      (0, 1, 2, 3 weak pairs         ):   93.1    68.0     0.0     0.0
Aver. Number of NTNO, Atoms, PAOs, AuxFcns / Triples:   2383    85.0    14.7   343.8   412.8

Triples Correction (T)                     ...     -0.085008212
Final correlation energy                   ...     -1.947129620
E(CCSD)                                    ...   -461.536156752
E(CCSD(T))                                 ...   -461.621164965



--------------------------------------------------------------------------------
                                    TIMINGS
--------------------------------------------------------------------------------


Total execution time                   ...      303.740 sec

Localization of occupied MO's          ...        0.474 sec (  0.2%)
Fock Matrix Formation                  ...        8.055 sec (  2.7%)
Global overlap, Fock, MKN matrices     ...        0.874 sec (  0.3%)
Differential overlap integrals         ...        0.814 sec (  0.3%)
Organizing maps                        ...        0.039 sec (  0.0%)
RI 3-index integral generations        ...        3.430 sec (  1.1%)
RI-PNO integral transformation         ...      113.677 sec ( 37.4%)
Initial Guess                          ...        6.190 sec (  2.0%)
DIIS Solver                            ...        0.311 sec (  0.1%)
State Vector Update                    ...        0.018 sec (  0.0%)
Sigma-vector construction              ...       60.501 sec ( 19.9%)
  <D|H|D>(0-ext)                       ...        1.909 sec (  3.2% of sigma)
  <D|H|D>(2-ext Fock)                  ...        0.010 sec (  0.0% of sigma)
  <D|H|D>(2-ext)                       ...        9.609 sec ( 15.9% of sigma)
  <D|H|D>(4-ext)                       ...        7.160 sec ( 11.8% of sigma)
  <D|H|D>(4-ext-corr)                  ...       28.634 sec ( 47.3% of sigma)
  CCSD doubles correction              ...        0.110 sec (  0.2% of sigma)
  <S|H|S>                              ...        0.283 sec (  0.5% of sigma)
  <S|H|D>(1-ext)                       ...        0.230 sec (  0.4% of sigma)
  <D|H|S>(1-ext)                       ...        0.005 sec (  0.0% of sigma)
  <S|H|D>(3-ext)                       ...        0.109 sec (  0.2% of sigma)
  Fock-dressing                        ...        6.007 sec (  9.9% of sigma)
  Singles amplitudes                   ...        0.609 sec (  1.0% of sigma)
  (ik|jl)-dressing                     ...        1.316 sec (  2.2% of sigma)
  (ij|ab),(ia|jb)-dressing             ...        1.706 sec (  2.8% of sigma)
  Pair energies                        ...        0.005 sec (  0.0% of sigma)
Total Time for computing (T)           ...      108.854 sec ( 35.8% of ALL)


Maximum memory used throughout the entire MDCI-calculation: 3967.9 MB

-------------------------   --------------------
FINAL SINGLE POINT ENERGY      -461.621164964591
-------------------------   --------------------


                            ***************************************
                            *     ORCA property calculations      *
                            ***************************************


  WARNING: The energy has been calculated at the MDCI level but the densities
           used in the property calculations are still SCF densities
           MDCI response densities have not been calculated 
           use %mdci Density linearized end
           or  %mdci Density unrelaxed end
           or  %mdci Density orbopt end

                                    ---------------------
                                    Active property flags
                                    ---------------------
   (+) Dipole Moment


------------------------------------------------------------------------------
                       ORCA ELECTRIC PROPERTIES CALCULATION
------------------------------------------------------------------------------

Dipole Moment Calculation                       ... on
Quadrupole Moment Calculation                   ... off
Polarizability Calculation                      ... off
GBWName                                         ... /tmp/43002/DATS_13_exo_iv_DLPNO.gbw
Electron density                                ... /tmp/43002/DATS_13_exo_iv_DLPNO.scfp
The origin for moment calculation is the CENTER OF MASS  = (-0.021737, -0.034607  0.003742)

-------------
DIPOLE MOMENT
-------------
                                X             Y             Z
Electronic contribution:     -1.11303      -1.54752       0.24233
Nuclear contribution   :      1.65204       2.63014      -0.28443
                        -----------------------------------------
Total Dipole Moment    :      0.53901       1.08262      -0.04210
                        -----------------------------------------
Magnitude (a.u.)       :      1.21012
Magnitude (Debye)      :      3.07587



--------------------
Rotational spectrum 
--------------------
 
Rotational constants in cm-1:     0.055256     0.032793     0.022968 
Rotational constants in MHz :  1656.520300   983.112406   688.565573 

 Dipole components along the rotational axes: 
x,y,z [a.u.] :     0.637206    -1.028079    -0.037433 
x,y,z [Debye]:     1.619649    -2.613169    -0.095148 

 

Timings for individual modules:

Sum of individual times         ...      375.379 sec (=   6.256 min)
GTO integral calculation        ...        0.724 sec (=   0.012 min)   0.2 %
SCF iterations                  ...       69.718 sec (=   1.162 min)  18.6 %
MDCI module                     ...      304.936 sec (=   5.082 min)  81.2 %
                             ****ORCA TERMINATED NORMALLY****
TOTAL RUN TIME: 0 days 0 hours 6 minutes 15 seconds 932 msec
