You are running Q-Chem version: 5.4.1

#
# job setting
#
local host:  node08.cluster
current dir: /home/rpaton/opt
input file:  /home/rpaton/opt/DATS_14_exo_i_TZVP.qcin
output file: 
nprocs     : 0
nthreads   : 16
#
# qchem installation setting
#
QC:          /opt/apps/qchem
QCAUX:       /opt/apps/qchem/qcaux
QCPROG:      /opt/apps/qchem/exe/qcprog.exe_s
QCPROG_S:    /opt/apps/qchem/exe/qcprog.exe_s
PARALLEL:    -DSERIAL
QCMPI:       seq
#
# qchem directory setting
#
qcrun:       qchem352300
QCSCRATCH:   /tmp
QCLOCALSCR:  
QCTMPDIR:    /tmp
QCFILEPREF:  /tmp/qchem352300
QCSAVEDIR:   
workdirs:    /tmp/qchem352300
workdir0:    /tmp/qchem352300
partmpdirs =  
#
# parallel setting
#
QCRSH:           ssh
QCMPI:           seq
QCMPIRUN:        
QCMACHINEFILE:   /tmp/qchem352300/hostfile

#
# env setting
#
exported envs:   QC QCAUX QCSCRATCH QCRUNNAME QCFILEPREF QCPROG QCPROG_S GUIFILE

Running Job 1 of 1 /home/rpaton/opt/DATS_14_exo_i_TZVP.qcin
qchem /home/rpaton/opt/DATS_14_exo_i_TZVP.qcin_352300.0 /tmp/qchem352300/ 0
/opt/apps/qchem/exe/qcprog.exe_s /home/rpaton/opt/DATS_14_exo_i_TZVP.qcin_352300.0 /tmp/qchem352300/
                  Welcome to Q-Chem
     A Quantum Leap Into The Future Of Chemistry


 Q-Chem 5.4, Q-Chem, Inc., Pleasanton, CA (2021)

 E. Epifanovsky,  A. T. B. Gilbert,  Xintian Feng,  Joonho Lee,  Yuezhi Mao,  
 N. Mardirossian,  P. Pokhilko,  A. White,  M. Wormit,  M. P. Coons,  
 A. L. Dempwolff,  Zhengting Gan,  D. Hait,  P. R. Horn,  L. D. Jacobson,  
 I. Kaliman,  J. Kussmann,  A. W. Lange,  Ka Un Lao,  D. S. Levine,  Jie Liu,  
 S. C. McKenzie,  A. F. Morrison,  K. Nanda,  F. Plasser,  D. R. Rehn,  
 M. L. Vidal,  Zhi-Qiang You,  Ying Zhu,  B. Alam,  B. Albrecht,  
 A. Aldossary,  E. Alguire,  J. H. Andersen,  D. Barton,  K. Begam,  A. Behn,  
 Y. A. Bernard,  E. J. Berquist,  H. Burton,  A. Carreras,  K. Carter-Fenk,  
 R. Chakraborty,  A. D. Chien,  K. D. Closser,  V. Cofer-Shabica,  
 S. Dasgupta,  Jia Deng,  M. de Wergifosse,  M. Diedenhofen,  Hainam Do,  
 S. Ehlert,  Po-Tung Fang,  S. Fatehi,  Qingguo Feng,  T. Friedhoff,  
 J. Gayvert,  Qinghui Ge,  G. Gidofalvi,  M. Goldey,  J. Gomes,  
 C. Gonzalez-Espinoza,  S. Gulania,  A. Gunina,  M. W. D. Hanson-Heine,  
 P. H. P. Harbach,  A. W. Hauser,  M. F. Herbst,  M. Hernandez Vera,  
 M. Hodecker,  Z. C. Holden,  S. Houck,  Xunkun Huang,  Kerwin Hui,  
 B. C. Huynh,  M. Ivanov,  Hyunjun Ji,  Hanjie Jiang,  B. Kaduk,  S. Kaehler,  
 K. Khistyaev,  Jaehoon Kim,  P. Klunzinger,  Z. Koczor-Benda,  
 Joong Hoon Koh,  D. Kosenkov,  L. Koulias,  T. Kowalczyk,  C. M. Krauter,  
 K. Kue,  A. Kunitsa,  T. Kus,  A. Landau,  K. V. Lawler,  D. Lefrancois,  
 S. Lehtola,  Rain Li,  Yi-Pei Li,  Jiashu Liang,  M. Liebenthal,  
 Hung-Hsuan Lin,  You-Sheng Lin,  Fenglai Liu,  Kuan-Yu Liu,  
 M. Loipersberger,  A. Luenser,  A. Manjanath,  P. Manohar,  E. Mansoor,  
 S. F. Manzer,  Shan-Ping Mao,  A. V. Marenich,  T. Markovich,  S. Mason,  
 S. A. Maurer,  P. F. McLaughlin,  M. F. S. J. Menger,  J.-M. Mewes,  
 S. A. Mewes,  P. Morgante,  J. W. Mullinax,  K. J. Oosterbaan,  G. Paran,  
 Alexander C. Paul,  Suranjan K. Paul,  F. Pavosevic,  Zheng Pei,  S. Prager,  
 E. I. Proynov,  E. Ramos,  B. Rana,  A. E. Rask,  A. Rettig,  R. M. Richard,  
 F. Rob,  E. Rossomme,  T. Scheele,  M. Scheurer,  M. Schneider,  
 N. Sergueev,  S. M. Sharada,  W. Skomorowski,  D. W. Small,  C. J. Stein,  
 Yu-Chuan Su,  E. J. Sundstrom,  Zhen Tao,  J. Thirman,  T. Tsuchimochi,  
 N. M. Tubman,  S. P. Veccham,  O. Vydrov,  J. Wenzel,  J. Witte,  A. Yamada,  
 Kun Yao,  S. Yeganeh,  S. R. Yost,  A. Zech,  Igor Ying Zhang,  Xing Zhang,  
 Yu Zhang,  D. Zuev,  A. Aspuru-Guzik,  A. T. Bell,  N. A. Besley,  
 K. B. Bravaya,  B. R. Brooks,  D. Casanova,  Jeng-Da Chai,  S. Coriani,  
 C. J. Cramer,  A. E. DePrince, III,  R. A. DiStasio Jr.,  A. Dreuw,  
 B. D. Dunietz,  T. R. Furlani,  W. A. Goddard III,  S. Grimme,  
 S. Hammes-Schiffer,  T. Head-Gordon,  W. J. Hehre,  Chao-Ping Hsu,  
 T.-C. Jagau,  Yousung Jung,  A. Klamt,  Jing Kong,  D. S. Lambrecht,  
 WanZhen Liang,  N. J. Mayhall,  C. W. McCurdy,  J. B. Neaton,  
 C. Ochsenfeld,  J. A. Parkhill,  R. Peverati,  V. A. Rassolov,  Yihan Shao,  
 L. V. Slipchenko,  T. Stauch,  R. P. Steele,  J. E. Subotnik,  
 A. J. W. Thom,  A. Tkatchenko,  D. G. Truhlar,  T. Van Voorhis,  
 T. A. Wesolowski,  K. B. Whaley,  H. L. Woodcock III,  P. M. Zimmerman,  
 S. Faraji,  P. M. W. Gill,  M. Head-Gordon,  J. M. Herbert,  A. I. Krylov

 Additional authors for Version 5.4.1: 
 S. Kotaru,  Shaozhi Li,  Xiangyuan Li,  F. Matz,  A. Molle,  Haisheng Ren,  
 Yingli Su,  Hung-Yi Tsai,  C. Utku,  Fang Wang

 Contributors to earlier versions of Q-Chem not listed above: 
 R. D. Adamson,  B. Austin,  R. Baer,  J. Baker,  G. J. O. Beran,  
 K. Brandhorst,  S. T. Brown,  E. F. C. Byrd,  A. K. Chakraborty,  
 G. K. L. Chan,  Chun-Min Chang,  Yunqing Chen,  C.-L. Cheng,  
 Siu Hung Chien,  D. M. Chipman,  D. L. Crittenden,  H. Dachsel,  
 R. J. Doerksen,  A. D. Dutoi,  R. G. Edgar,  J. Fosso-Tande,  
 L. Fusti-Molnar,  D. Ghosh,  A. Ghysels,  A. Golubeva-Zadorozhnaya,  
 J. Gonthier,  M. S. Gordon,  S. R. Gwaltney,  G. Hawkins,  J. E. Herr,  
 A. Heyden,  S. Hirata,  E. G. Hohenstein,  G. Kedziora,  F. J. Keil,  
 C. Kelley,  Jihan Kim,  R. A. King,  R. Z. Khaliullin,  P. P. Korambath,  
 W. Kurlancheek,  A. Laurent,  A. M. Lee,  M. S. Lee,  S. V. Levchenko,  
 Ching Yeh Lin,  D. Liotard,  E. Livshits,  R. C. Lochan,  I. Lotan,  
 L. A. Martinez-Martinez,  P. E. Maslen,  N. Nair,  D. P. O'Neill,  
 D. Neuhauser,  E. Neuscamman,  C. M. Oana,  R. Olivares-Amaya,  R. Olson,  
 T. M. Perrine,  B. Peters,  P. A. Pieniazek,  A. Prociuk,  Y. M. Rhee,  
 J. Ritchie,  M. A. Rohrdanz,  E. Rosta,  N. J. Russ,  H. F. Schaefer III,  
 M. W. Schmidt,  N. E. Schultz,  S. Sharma,  N. Shenvi,  C. D. Sherrill,  
 A. C. Simmonett,  A. Sodt,  T. Stein,  D. Stuck,  K. S. Thanthiriwatte,  
 V. Vanovschi,  L. Vogt,  Tao Wang,  A. Warshel,  M. A. Watson,  
 C. F. Williams,  Q. Wu,  X. Xu,  Jun Yang,  W. Zhang,  Yan Zhao

 Please cite Q-Chem as follows:
 Y. Shao et al., Mol. Phys. 113, 184-215 (2015)
 DOI: 10.1080/00268976.2014.952696

 Q-Chem 5.4.1 for Intel X86 EM64T Linux

 Parts of Q-Chem use Armadillo 9.800.1 (Horizon Scraper).
 http://arma.sourceforge.net/

 Q-Chem begins on Tue Jun 21 14:55:33 2022  

 Host: 
0

     Scratch files written to /tmp/qchem352300//
 Aug1521 |scratch|qcdevops|jenkins|workspace|build_RNUM 8286   
 Processing $rem in /opt/apps/qchem/config/preferences:
 Processing $rem in /home/rpaton/.qchemrc:

 Checking the input file for inconsistencies... 	...done.

--------------------------------------------------------------
User input:
--------------------------------------------------------------
$molecule
0 1
C  0.953839  -1.270069  0.758124
C  -0.24861  -1.002944  -0.913206
C  0.326401  1.748529  -0.337817
C  1.614509  -0.099908  1.096694
H  0.204599  -1.681339  1.427376
H  1.513896  -1.996538  0.175278
H  1.334597  0.488755  1.962683
C  -1.220918  -0.126166  -0.473179
C  -0.911128  1.226481  -0.138504
H  -0.563708  -2.017603  -1.136051
H  0.563144  2.743452  0.026394
H  -1.636041  1.807834  0.42177
H  0.611688  -0.63662  -1.462356
H  1.047155  1.301254  -1.010696
O  -2.425002  -0.684091  -0.182068
C  -3.422744  0.113785  0.419443
H  -3.666242  0.985064  -0.199239
H  -4.302191  -0.524084  0.504588
H  -3.122931  0.450183  1.418971
C  2.785056  0.284398  0.332859
O  3.095556  -0.225878  -0.735817
H  3.393168  1.114764  0.747878
$end

$rem
METHOD wB97X-V
BASIS def2-TZVP
XC_GRID 000099000590
MEM_TOTAL          8000
MEM_STATIC         4000
$end

--------------------------------------------------------------
 ----------------------------------------------------------------
             Standard Nuclear Orientation (Angstroms)
    I     Atom           X                Y                Z
 ----------------------------------------------------------------
    1      C       0.9538390158     1.2700691207    -0.7581239764
    2      C      -0.2486099496     1.0029440452     0.9132060364
    3      C       0.3264010908    -1.7485289258     0.3378169384
    4      C       1.6145090313     0.0999081437    -1.0966940255
    5      H       0.2045989963     1.6813391283    -1.4273759500
    6      H       1.5138960128     1.9965381124    -0.1752779631
    7      H       1.3345970268    -0.4887548338    -1.9626830393
    8      C      -1.2209179413     0.1261660414     0.4731790257
    9      C      -0.9111279223    -1.2264809422     0.1385039770
   10      H      -0.5637079644     2.0176030323     1.1360510744
   11      H       0.5631441027    -2.7434519098    -0.0263940976
   12      H      -1.6360409216    -1.8078339377    -0.4217700287
   13      H       0.6116880669     0.6366200435     1.4623560095
   14      H       1.0471550945    -1.3012539340     1.0106959399
   15      O      -2.4250019567     0.6840910285     0.1820680649
   16      C      -3.4227439527    -0.1137849707    -0.4194429429
   17      H      -3.6662419257    -0.9850639949     0.1992390336
   18      H      -4.3021909660     0.5240840158    -0.5045879069
   19      H      -3.1229309643    -0.4501829333    -1.4189709589
   20      C       2.7850560520    -0.2843978592    -0.3328590585
   21      O       3.0955560615     0.2258781125     0.7358169523
   22      H       3.3931680599    -1.1147638347    -0.7478780958
 ----------------------------------------------------------------
 Molecular Point Group                 C1    NOp =  1
 Largest Abelian Subgroup              C1    NOp =  1
 Nuclear Repulsion Energy =         525.34372826 hartrees
 There are       38 alpha and       38 beta electrons
 Requested basis set is def2-TZVP
 There are 158 shells and 382 basis functions

 Total QAlloc Memory Limit   8000 MB
 Mega-Array Size      3911 MB
 MEM_STATIC part      4000 MB
 A cutoff of  1.0D-08 yielded   9813 shell pairs
 There are     57345 function pairs (     73015 Cartesian)
 Smallest overlap matrix eigenvalue = 6.62E-05

 Q-Chem warning in module stvman/mkSTV.C, line 323:

 Overlap eigenvalue is smaller than square root of threshold
 Use THRESH >= 12 to get rid of this warning


 Scale SEOQF with 1.000000e-01/1.000000e-01/1.000000e-01

 Standard Electronic Orientation quadrupole field applied
 Nucleus-field energy     =     0.0000000134 hartrees
 Guess from superposition of atomic densities
 Warning:  Energy on first SCF cycle will be non-variational
 SAD guess density has 76.000000 electrons

 -----------------------------------------------------------------------
  General SCF calculation program by
  Eric Jon Sundstrom, Paul Horn, Yuezhi Mao, Dmitri Zuev, Alec White,
  David Stuck, Shaama M.S., Shane Yost, Joonho Lee, David Small,
  Daniel Levine, Susi Lehtola, Hugh Burton, Evgeny Epifanovsky,
  Bang C. Huynh
 -----------------------------------------------------------------------
 Exchange:     0.1670 Hartree-Fock + 1.0000 wB97X-V + LR-HF
 Correlation:  1.0000 wB97X-V
 Using Euler-Maclaurin-Lebedev (99,590) quadrature formula
 Nonlocal Correlation:  VV10 with C = 0.0100 and b = 6.00 and scale = 1.00000
 Grid used for NLC:  SG-1 standard quadrature
 using 16 threads for integral computing
 -------------------------------------------------------
 OpenMP Integral computing Module                
 Release: version 1.0, May 2013, Q-Chem Inc. Pittsburgh 
 -------------------------------------------------------
 -------------------------------------------------------
 OpenMP BLAS3 based DFT computing Module                
 Release: version 1.0, May 2013, Q-Chem Inc. Pittsburgh 
 -------------------------------------------------------
 A restricted SCF calculation will be
 performed using DIIS
 SCF converges when DIIS error is below 1.0e-05
 ---------------------------------------
  Cycle       Energy         DIIS error
 ---------------------------------------
    1    -464.9374279813      2.76e-02  
    2    -462.2842375194      2.93e-03  
    3    -462.2613984425      3.59e-03  
    4    -462.4239109068      4.27e-04  
    5    -462.4265674620      2.09e-04  
    6    -462.4273316775      5.53e-05  
    7    -462.4274189461      2.12e-05  
    8    -462.4274429705      1.03e-05  
    9    -462.4274512504      3.94e-06  Convergence criterion met
 ---------------------------------------
 SCF time:   CPU 670.84s  wall 42.00s 
 SCF   energy in the final basis set =     -462.4274512504
 Total energy in the final basis set =     -462.4274512504
 
 --------------------------------------------------------------
 
                    Orbital Energies (a.u.)
 --------------------------------------------------------------
 
 Alpha MOs
 -- Occupied --
-19.2590 -19.1770 -10.3501 -10.3345 -10.3328 -10.2940 -10.2910 -10.2868
-10.2774 -10.2573  -1.2166  -1.1451  -0.9648  -0.9054  -0.8914  -0.8270
 -0.7710  -0.7651  -0.6706  -0.6547  -0.6378  -0.6207  -0.6019  -0.5998
 -0.5489  -0.5401  -0.5313  -0.5231  -0.5128  -0.4968  -0.4962  -0.4726
 -0.4697  -0.4470  -0.4177  -0.3654  -0.3431  -0.2884
 -- Virtual --
  0.0109   0.0571   0.1060   0.1286   0.1355   0.1412   0.1577   0.1644
  0.1698   0.1778   0.1843   0.1877   0.1969   0.2019   0.2091   0.2175
  0.2493   0.2624   0.2674   0.2775   0.2803   0.2872   0.2990   0.3022
  0.3202   0.3227   0.3328   0.3503   0.3612   0.3653   0.3852   0.3909
  0.4028   0.4192   0.4311   0.4390   0.4420   0.4465   0.4618   0.4636
  0.4789   0.4857   0.4960   0.5082   0.5126   0.5167   0.5210   0.5242
  0.5374   0.5414   0.5491   0.5570   0.5598   0.5716   0.5800   0.5944
  0.6078   0.6189   0.6275   0.6345   0.6518   0.6630   0.6728   0.6819
  0.7023   0.7144   0.7239   0.7336   0.7424   0.7610   0.7699   0.7871
  0.8000   0.8162   0.8358   0.8385   0.8602   0.8841   0.8992   0.9234
  0.9368   0.9564   0.9643   0.9833   1.0056   1.0166   1.0262   1.0425
  1.0625   1.0738   1.0824   1.1004   1.1136   1.1269   1.1470   1.1517
  1.1763   1.1855   1.2040   1.2282   1.2455   1.2596   1.2608   1.2727
  1.2948   1.3250   1.3292   1.3656   1.3777   1.3889   1.4106   1.4138
  1.4328   1.4708   1.4782   1.5119   1.5539   1.5580   1.5682   1.5795
  1.5982   1.6066   1.6163   1.6272   1.6383   1.6496   1.6589   1.6764
  1.6886   1.6963   1.7158   1.7237   1.7357   1.7440   1.7674   1.7873
  1.7995   1.8118   1.8428   1.8506   1.8615   1.8731   1.9003   1.9047
  1.9110   1.9165   1.9430   1.9746   1.9978   2.0144   2.0191   2.0334
  2.0466   2.0770   2.0824   2.1026   2.1234   2.1354   2.1743   2.1841
  2.1960   2.2217   2.2357   2.2467   2.2765   2.3124   2.3185   2.3503
  2.3652   2.3756   2.3851   2.4198   2.4308   2.4484   2.4642   2.4892
  2.4992   2.5030   2.5147   2.5557   2.5648   2.5729   2.5958   2.6055
  2.6180   2.6432   2.6467   2.6619   2.6726   2.6810   2.7022   2.7069
  2.7199   2.7336   2.7564   2.7684   2.7748   2.7960   2.8009   2.8167
  2.8393   2.8615   2.8687   2.8842   2.9066   2.9183   2.9388   2.9445
  2.9495   2.9585   2.9799   2.9862   3.0089   3.0430   3.0499   3.0726
  3.0862   3.1099   3.1247   3.1397   3.1488   3.1698   3.1864   3.1962
  3.2156   3.2314   3.2328   3.2548   3.2648   3.2848   3.2900   3.3085
  3.3156   3.3344   3.3428   3.3533   3.3604   3.3617   3.3839   3.4020
  3.4165   3.4221   3.4379   3.4410   3.4554   3.4653   3.4764   3.4934
  3.5117   3.5348   3.5581   3.5604   3.5704   3.5774   3.5865   3.6038
  3.6248   3.6398   3.6513   3.6607   3.6814   3.6945   3.7228   3.7483
  3.7645   3.7822   3.8157   3.8362   3.8526   3.8734   3.9205   3.9307
  3.9527   4.0083   4.0724   4.1026   4.1406   4.1509   4.1835   4.2060
  4.2352   4.2475   4.2499   4.2669   4.2958   4.3484   4.3563   4.3659
  4.3963   4.4306   4.4435   4.4808   4.4874   4.5547   4.5768   4.5991
  4.6423   4.6958   4.7162   4.8178   4.8326   4.8898   4.9204   4.9560
  4.9838   5.0074   5.0440   5.0701   5.1750   5.2695   5.3240   5.3354
  5.4454   5.5757   5.6768   5.7880   5.8562   6.0062   6.0217   6.1945
  6.3918   6.4305   6.5044   6.5377   6.5697   6.6180   6.7423   6.8681
  6.9524   6.9653   7.1057   7.1926   7.2551   7.4683  22.3346  22.4605
 22.4820  22.6083  22.7448  22.7904  22.9696  23.1213  43.9649  44.2850
 --------------------------------------------------------------
 
          Ground-State Mulliken Net Atomic Charges

     Atom                 Charge (a.u.)
  ----------------------------------------
      1 C                    -0.214087
      2 C                    -0.335847
      3 C                    -0.320653
      4 C                    -0.179143
      5 H                     0.143394
      6 H                     0.171900
      7 H                     0.124799
      8 C                     0.263111
      9 C                    -0.167651
     10 H                     0.148476
     11 H                     0.141399
     12 H                     0.131721
     13 H                     0.188643
     14 H                     0.177213
     15 O                    -0.234163
     16 C                    -0.236040
     17 H                     0.132934
     18 H                     0.144228
     19 H                     0.125593
     20 C                     0.083025
     21 O                    -0.357405
     22 H                     0.068552
  ----------------------------------------
  Sum of atomic charges =     0.000000

 -----------------------------------------------------------------
                    Cartesian Multipole Moments
 -----------------------------------------------------------------
    Charge (ESU x 10^10)
                -0.0000
    Dipole Moment (Debye)
         X      -4.1768      Y      -1.5257      Z      -2.1909
       Tot       4.9572
    Quadrupole Moments (Debye-Ang)
        XX     -65.5237     XY      -0.7699     YY     -57.6464
        XZ      -1.7907     YZ       1.2071     ZZ     -63.2149
    Octopole Moments (Debye-Ang^2)
       XXX     -72.8875    XXY     -14.6298    XYY       3.1579
       YYY       2.8416    XXZ     -24.3914    XYZ       0.3887
       YYZ      -0.4514    XZZ      -6.4765    YZZ       1.3264
       ZZZ       0.1703
    Hexadecapole Moments (Debye-Ang^3)
      XXXX   -1627.3793   XXXY     -25.7526   XXYY    -338.8309
      XYYY      -6.6049   YYYY    -399.4642   XXXZ     -28.9209
      XXYZ       0.1226   XYYZ       6.4727   YYYZ      13.3267
      XXZZ    -333.6053   XYZZ      -7.0176   YYZZ    -114.8148
      XZZZ      15.9140   YZZZ       6.7308   ZZZZ    -253.1392
 -----------------------------------------------------------------
 Total job time:  42.60s(wall), 675.13s(cpu) 
 Tue Jun 21 14:56:15 2022

        *************************************************************
        *                                                           *
        *  Thank you very much for using Q-Chem.  Have a nice day.  *
        *                                                           *
        *************************************************************


remove work dirs /tmp/qchem352300.0 -- /tmp/qchem352300.-1
rm -rf /tmp/qchem352300
