You are running Q-Chem version: 5.4.1

#
# job setting
#
local host:  node05.cluster
current dir: /home/rpaton/opt
input file:  /home/rpaton/opt/DATS_14_endo_i_TZVP.qcin
output file: 
nprocs     : 0
nthreads   : 16
#
# qchem installation setting
#
QC:          /opt/apps/qchem
QCAUX:       /opt/apps/qchem/qcaux
QCPROG:      /opt/apps/qchem/exe/qcprog.exe_s
QCPROG_S:    /opt/apps/qchem/exe/qcprog.exe_s
PARALLEL:    -DSERIAL
QCMPI:       seq
#
# qchem directory setting
#
qcrun:       qchem4111593
QCSCRATCH:   /tmp
QCLOCALSCR:  
QCTMPDIR:    /tmp
QCFILEPREF:  /tmp/qchem4111593
QCSAVEDIR:   
workdirs:    /tmp/qchem4111593
workdir0:    /tmp/qchem4111593
partmpdirs =  
#
# parallel setting
#
QCRSH:           ssh
QCMPI:           seq
QCMPIRUN:        
QCMACHINEFILE:   /tmp/qchem4111593/hostfile

#
# env setting
#
exported envs:   QC QCAUX QCSCRATCH QCRUNNAME QCFILEPREF QCPROG QCPROG_S GUIFILE

Running Job 1 of 1 /home/rpaton/opt/DATS_14_endo_i_TZVP.qcin
qchem /home/rpaton/opt/DATS_14_endo_i_TZVP.qcin_4111593.0 /tmp/qchem4111593/ 0
/opt/apps/qchem/exe/qcprog.exe_s /home/rpaton/opt/DATS_14_endo_i_TZVP.qcin_4111593.0 /tmp/qchem4111593/
                  Welcome to Q-Chem
     A Quantum Leap Into The Future Of Chemistry


 Q-Chem 5.4, Q-Chem, Inc., Pleasanton, CA (2021)

 E. Epifanovsky,  A. T. B. Gilbert,  Xintian Feng,  Joonho Lee,  Yuezhi Mao,  
 N. Mardirossian,  P. Pokhilko,  A. White,  M. Wormit,  M. P. Coons,  
 A. L. Dempwolff,  Zhengting Gan,  D. Hait,  P. R. Horn,  L. D. Jacobson,  
 I. Kaliman,  J. Kussmann,  A. W. Lange,  Ka Un Lao,  D. S. Levine,  Jie Liu,  
 S. C. McKenzie,  A. F. Morrison,  K. Nanda,  F. Plasser,  D. R. Rehn,  
 M. L. Vidal,  Zhi-Qiang You,  Ying Zhu,  B. Alam,  B. Albrecht,  
 A. Aldossary,  E. Alguire,  J. H. Andersen,  D. Barton,  K. Begam,  A. Behn,  
 Y. A. Bernard,  E. J. Berquist,  H. Burton,  A. Carreras,  K. Carter-Fenk,  
 R. Chakraborty,  A. D. Chien,  K. D. Closser,  V. Cofer-Shabica,  
 S. Dasgupta,  Jia Deng,  M. de Wergifosse,  M. Diedenhofen,  Hainam Do,  
 S. Ehlert,  Po-Tung Fang,  S. Fatehi,  Qingguo Feng,  T. Friedhoff,  
 J. Gayvert,  Qinghui Ge,  G. Gidofalvi,  M. Goldey,  J. Gomes,  
 C. Gonzalez-Espinoza,  S. Gulania,  A. Gunina,  M. W. D. Hanson-Heine,  
 P. H. P. Harbach,  A. W. Hauser,  M. F. Herbst,  M. Hernandez Vera,  
 M. Hodecker,  Z. C. Holden,  S. Houck,  Xunkun Huang,  Kerwin Hui,  
 B. C. Huynh,  M. Ivanov,  Hyunjun Ji,  Hanjie Jiang,  B. Kaduk,  S. Kaehler,  
 K. Khistyaev,  Jaehoon Kim,  P. Klunzinger,  Z. Koczor-Benda,  
 Joong Hoon Koh,  D. Kosenkov,  L. Koulias,  T. Kowalczyk,  C. M. Krauter,  
 K. Kue,  A. Kunitsa,  T. Kus,  A. Landau,  K. V. Lawler,  D. Lefrancois,  
 S. Lehtola,  Rain Li,  Yi-Pei Li,  Jiashu Liang,  M. Liebenthal,  
 Hung-Hsuan Lin,  You-Sheng Lin,  Fenglai Liu,  Kuan-Yu Liu,  
 M. Loipersberger,  A. Luenser,  A. Manjanath,  P. Manohar,  E. Mansoor,  
 S. F. Manzer,  Shan-Ping Mao,  A. V. Marenich,  T. Markovich,  S. Mason,  
 S. A. Maurer,  P. F. McLaughlin,  M. F. S. J. Menger,  J.-M. Mewes,  
 S. A. Mewes,  P. Morgante,  J. W. Mullinax,  K. J. Oosterbaan,  G. Paran,  
 Alexander C. Paul,  Suranjan K. Paul,  F. Pavosevic,  Zheng Pei,  S. Prager,  
 E. I. Proynov,  E. Ramos,  B. Rana,  A. E. Rask,  A. Rettig,  R. M. Richard,  
 F. Rob,  E. Rossomme,  T. Scheele,  M. Scheurer,  M. Schneider,  
 N. Sergueev,  S. M. Sharada,  W. Skomorowski,  D. W. Small,  C. J. Stein,  
 Yu-Chuan Su,  E. J. Sundstrom,  Zhen Tao,  J. Thirman,  T. Tsuchimochi,  
 N. M. Tubman,  S. P. Veccham,  O. Vydrov,  J. Wenzel,  J. Witte,  A. Yamada,  
 Kun Yao,  S. Yeganeh,  S. R. Yost,  A. Zech,  Igor Ying Zhang,  Xing Zhang,  
 Yu Zhang,  D. Zuev,  A. Aspuru-Guzik,  A. T. Bell,  N. A. Besley,  
 K. B. Bravaya,  B. R. Brooks,  D. Casanova,  Jeng-Da Chai,  S. Coriani,  
 C. J. Cramer,  A. E. DePrince, III,  R. A. DiStasio Jr.,  A. Dreuw,  
 B. D. Dunietz,  T. R. Furlani,  W. A. Goddard III,  S. Grimme,  
 S. Hammes-Schiffer,  T. Head-Gordon,  W. J. Hehre,  Chao-Ping Hsu,  
 T.-C. Jagau,  Yousung Jung,  A. Klamt,  Jing Kong,  D. S. Lambrecht,  
 WanZhen Liang,  N. J. Mayhall,  C. W. McCurdy,  J. B. Neaton,  
 C. Ochsenfeld,  J. A. Parkhill,  R. Peverati,  V. A. Rassolov,  Yihan Shao,  
 L. V. Slipchenko,  T. Stauch,  R. P. Steele,  J. E. Subotnik,  
 A. J. W. Thom,  A. Tkatchenko,  D. G. Truhlar,  T. Van Voorhis,  
 T. A. Wesolowski,  K. B. Whaley,  H. L. Woodcock III,  P. M. Zimmerman,  
 S. Faraji,  P. M. W. Gill,  M. Head-Gordon,  J. M. Herbert,  A. I. Krylov

 Additional authors for Version 5.4.1: 
 S. Kotaru,  Shaozhi Li,  Xiangyuan Li,  F. Matz,  A. Molle,  Haisheng Ren,  
 Yingli Su,  Hung-Yi Tsai,  C. Utku,  Fang Wang

 Contributors to earlier versions of Q-Chem not listed above: 
 R. D. Adamson,  B. Austin,  R. Baer,  J. Baker,  G. J. O. Beran,  
 K. Brandhorst,  S. T. Brown,  E. F. C. Byrd,  A. K. Chakraborty,  
 G. K. L. Chan,  Chun-Min Chang,  Yunqing Chen,  C.-L. Cheng,  
 Siu Hung Chien,  D. M. Chipman,  D. L. Crittenden,  H. Dachsel,  
 R. J. Doerksen,  A. D. Dutoi,  R. G. Edgar,  J. Fosso-Tande,  
 L. Fusti-Molnar,  D. Ghosh,  A. Ghysels,  A. Golubeva-Zadorozhnaya,  
 J. Gonthier,  M. S. Gordon,  S. R. Gwaltney,  G. Hawkins,  J. E. Herr,  
 A. Heyden,  S. Hirata,  E. G. Hohenstein,  G. Kedziora,  F. J. Keil,  
 C. Kelley,  Jihan Kim,  R. A. King,  R. Z. Khaliullin,  P. P. Korambath,  
 W. Kurlancheek,  A. Laurent,  A. M. Lee,  M. S. Lee,  S. V. Levchenko,  
 Ching Yeh Lin,  D. Liotard,  E. Livshits,  R. C. Lochan,  I. Lotan,  
 L. A. Martinez-Martinez,  P. E. Maslen,  N. Nair,  D. P. O'Neill,  
 D. Neuhauser,  E. Neuscamman,  C. M. Oana,  R. Olivares-Amaya,  R. Olson,  
 T. M. Perrine,  B. Peters,  P. A. Pieniazek,  A. Prociuk,  Y. M. Rhee,  
 J. Ritchie,  M. A. Rohrdanz,  E. Rosta,  N. J. Russ,  H. F. Schaefer III,  
 M. W. Schmidt,  N. E. Schultz,  S. Sharma,  N. Shenvi,  C. D. Sherrill,  
 A. C. Simmonett,  A. Sodt,  T. Stein,  D. Stuck,  K. S. Thanthiriwatte,  
 V. Vanovschi,  L. Vogt,  Tao Wang,  A. Warshel,  M. A. Watson,  
 C. F. Williams,  Q. Wu,  X. Xu,  Jun Yang,  W. Zhang,  Yan Zhao

 Please cite Q-Chem as follows:
 Y. Shao et al., Mol. Phys. 113, 184-215 (2015)
 DOI: 10.1080/00268976.2014.952696

 Q-Chem 5.4.1 for Intel X86 EM64T Linux

 Parts of Q-Chem use Armadillo 9.800.1 (Horizon Scraper).
 http://arma.sourceforge.net/

 Q-Chem begins on Tue Jun 21 14:55:33 2022  

 Host: 
0

     Scratch files written to /tmp/qchem4111593//
 Aug1521 |scratch|qcdevops|jenkins|workspace|build_RNUM 8286   
 Processing $rem in /opt/apps/qchem/config/preferences:
 Processing $rem in /home/rpaton/.qchemrc:

 Checking the input file for inconsistencies... 	...done.

--------------------------------------------------------------
User input:
--------------------------------------------------------------
$molecule
0 1
C  -1.464415  -0.568069  -1.326353
C  0.093334  -1.727641  -0.633314
C  -0.661802  -0.69789  1.961129
C  -2.105435  0.149406  -0.326537
H  -0.793518  -0.006127  -1.970248
H  -1.973191  -1.409247  -1.789571
H  -3.022283  -0.192977  0.141608
C  0.872608  -0.818663  0.063303
C  0.503101  -0.353587  1.370921
H  0.480154  -2.078938  -1.584489
H  -0.948452  -0.255096  2.909377
H  1.114683  0.412547  1.834752
H  -0.510818  -2.432057  -0.076729
H  -1.309017  -1.4761  1.578107
O  1.916719  -0.307165  -0.610363
C  2.5086  0.900663  -0.152804
H  3.06613  0.736876  0.776283
H  3.205472  1.198063  -0.936099
H  1.74024  1.666946  -0.015622
C  -1.528032  1.407502  0.064869
O  -0.449631  1.816589  -0.364307
H  -2.093868  2.010391  0.802692
$end

$rem
METHOD wB97X-V
BASIS def2-TZVP
XC_GRID 000099000590
MEM_TOTAL          8000
MEM_STATIC         4000
$end

--------------------------------------------------------------
 ----------------------------------------------------------------
             Standard Nuclear Orientation (Angstroms)
    I     Atom           X                Y                Z
 ----------------------------------------------------------------
    1      C       1.4644147903     0.5680695656    -1.3263526410
    2      C      -0.0933344122     1.7276411308    -0.6333133686
    3      C       0.6618017270     0.6978896034     1.9611293815
    4      C       2.1054348975    -0.1494055792    -0.3265368136
    5      H       0.7935178923     0.0061276157    -1.9702477911
    6      H       1.9731906556     1.4092477673    -1.7895704227
    7      H       3.0222828344     0.1929774561     0.1416082842
    8      C      -0.8726082691     0.8186628251     0.0633033926
    9      C      -0.5031012080     0.3535865575     1.3709212801
   10      H      -0.4801544588     2.0789383058    -1.5844882850
   11      H       0.9484517890     0.2550954124     2.9093772736
   12      H      -1.1146830859    -0.4125476615     1.8347520794
   13      H       0.5108174631     2.4320570915    -0.0767281835
   14      H       1.3090166019     1.4760998080     1.5781075857
   15      O      -1.9167191752     0.3071648204    -0.6103627495
   16      C      -2.5085999792    -0.9006633937    -0.1528040612
   17      H      -3.0661300183    -0.7368767209     0.7762829730
   18      H      -3.2054719196    -1.1980633129    -0.9360991450
   19      H      -1.7402398529    -1.6669462999    -0.0156222445
   20      C       1.5280321027    -1.4075017742     0.0648688621
   21      O       0.4496311765    -1.8165888463    -0.3643072545
   22      H       2.0938681941    -2.0103908656     0.8026917174
 ----------------------------------------------------------------
 Molecular Point Group                 C1    NOp =  1
 Largest Abelian Subgroup              C1    NOp =  1
 Nuclear Repulsion Energy =         548.52885618 hartrees
 There are       38 alpha and       38 beta electrons
 Requested basis set is def2-TZVP
 There are 158 shells and 382 basis functions

 Total QAlloc Memory Limit   8000 MB
 Mega-Array Size      3911 MB
 MEM_STATIC part      4000 MB
 A cutoff of  1.0D-08 yielded  10311 shell pairs
 There are     61255 function pairs (     78361 Cartesian)
 Smallest overlap matrix eigenvalue = 7.28E-05

 Q-Chem warning in module stvman/mkSTV.C, line 323:

 Overlap eigenvalue is smaller than square root of threshold
 Use THRESH >= 12 to get rid of this warning


 Scale SEOQF with 1.000000e-01/1.000000e-01/1.000000e-01

 Standard Electronic Orientation quadrupole field applied
 Nucleus-field energy     =     0.0000000047 hartrees
 Guess from superposition of atomic densities
 Warning:  Energy on first SCF cycle will be non-variational
 SAD guess density has 76.000000 electrons

 -----------------------------------------------------------------------
  General SCF calculation program by
  Eric Jon Sundstrom, Paul Horn, Yuezhi Mao, Dmitri Zuev, Alec White,
  David Stuck, Shaama M.S., Shane Yost, Joonho Lee, David Small,
  Daniel Levine, Susi Lehtola, Hugh Burton, Evgeny Epifanovsky,
  Bang C. Huynh
 -----------------------------------------------------------------------
 Exchange:     0.1670 Hartree-Fock + 1.0000 wB97X-V + LR-HF
 Correlation:  1.0000 wB97X-V
 Using Euler-Maclaurin-Lebedev (99,590) quadrature formula
 Nonlocal Correlation:  VV10 with C = 0.0100 and b = 6.00 and scale = 1.00000
 Grid used for NLC:  SG-1 standard quadrature
 using 16 threads for integral computing
 -------------------------------------------------------
 OpenMP Integral computing Module                
 Release: version 1.0, May 2013, Q-Chem Inc. Pittsburgh 
 -------------------------------------------------------
 -------------------------------------------------------
 OpenMP BLAS3 based DFT computing Module                
 Release: version 1.0, May 2013, Q-Chem Inc. Pittsburgh 
 -------------------------------------------------------
 A restricted SCF calculation will be
 performed using DIIS
 SCF converges when DIIS error is below 1.0e-05
 ---------------------------------------
  Cycle       Energy         DIIS error
 ---------------------------------------
    1    -464.9578398206      2.77e-02  
    2    -462.2946253502      2.89e-03  
    3    -462.2770181528      3.49e-03  
    4    -462.4301947820      4.51e-04  
    5    -462.4329898287      2.10e-04  
    6    -462.4337746622      5.59e-05  
    7    -462.4338632118      2.04e-05  
    8    -462.4338869013      9.92e-06  Convergence criterion met
 ---------------------------------------
 SCF time:   CPU 639.28s  wall 41.00s 
 SCF   energy in the final basis set =     -462.4338869013
 Total energy in the final basis set =     -462.4338869013
 
 --------------------------------------------------------------
 
                    Orbital Energies (a.u.)
 --------------------------------------------------------------
 
 Alpha MOs
 -- Occupied --
-19.2536 -19.1702 -10.3530 -10.3252 -10.3141 -10.2921 -10.2894 -10.2849
-10.2795 -10.2524  -1.2118  -1.1370  -0.9606  -0.9048  -0.8856  -0.8207
 -0.7680  -0.7603  -0.6651  -0.6511  -0.6313  -0.6177  -0.5963  -0.5932
 -0.5464  -0.5362  -0.5270  -0.5174  -0.5061  -0.5036  -0.4877  -0.4738
 -0.4605  -0.4355  -0.4002  -0.3736  -0.3400  -0.2854
 -- Virtual --
  0.0112   0.0645   0.1165   0.1268   0.1365   0.1507   0.1598   0.1645
  0.1739   0.1765   0.1864   0.1943   0.1984   0.2136   0.2181   0.2336
  0.2511   0.2634   0.2650   0.2764   0.2879   0.2938   0.2956   0.3100
  0.3170   0.3315   0.3441   0.3584   0.3654   0.3710   0.3933   0.3960
  0.4056   0.4123   0.4285   0.4496   0.4564   0.4586   0.4639   0.4752
  0.4916   0.4950   0.5002   0.5104   0.5122   0.5211   0.5260   0.5285
  0.5387   0.5482   0.5551   0.5594   0.5625   0.5817   0.5942   0.5982
  0.6091   0.6156   0.6273   0.6435   0.6642   0.6702   0.6757   0.6937
  0.7059   0.7070   0.7188   0.7356   0.7703   0.7863   0.7980   0.8063
  0.8226   0.8346   0.8528   0.8690   0.8973   0.9166   0.9292   0.9461
  0.9540   0.9609   0.9741   1.0001   1.0134   1.0218   1.0247   1.0609
  1.0695   1.0813   1.0877   1.1141   1.1206   1.1477   1.1649   1.1786
  1.1862   1.2024   1.2127   1.2322   1.2454   1.2667   1.2823   1.2902
  1.3188   1.3216   1.3576   1.3727   1.3810   1.3911   1.4049   1.4351
  1.4491   1.4623   1.4992   1.5200   1.5653   1.5877   1.5891   1.5948
  1.6024   1.6187   1.6271   1.6466   1.6604   1.6665   1.6745   1.6828
  1.6904   1.7199   1.7260   1.7287   1.7452   1.7751   1.7805   1.8013
  1.8087   1.8242   1.8473   1.8530   1.8663   1.8788   1.9087   1.9157
  1.9375   1.9424   1.9728   1.9886   2.0029   2.0178   2.0295   2.0388
  2.0608   2.0895   2.1038   2.1127   2.1413   2.1627   2.1793   2.2000
  2.2124   2.2335   2.2473   2.2563   2.3101   2.3310   2.3411   2.3507
  2.3654   2.3864   2.4242   2.4339   2.4481   2.4691   2.4757   2.4984
  2.5044   2.5258   2.5451   2.5611   2.5656   2.5801   2.5989   2.6095
  2.6333   2.6411   2.6521   2.6732   2.6800   2.6919   2.7107   2.7170
  2.7315   2.7487   2.7605   2.7675   2.7880   2.8002   2.8117   2.8243
  2.8404   2.8641   2.8731   2.8912   2.9124   2.9316   2.9432   2.9648
  2.9736   2.9846   2.9947   3.0022   3.0218   3.0481   3.0527   3.0921
  3.1013   3.1125   3.1464   3.1545   3.1644   3.1769   3.2081   3.2097
  3.2306   3.2490   3.2590   3.2690   3.2775   3.2981   3.3084   3.3112
  3.3243   3.3372   3.3546   3.3653   3.3726   3.3836   3.3967   3.4025
  3.4196   3.4288   3.4410   3.4641   3.4699   3.4748   3.4882   3.4885
  3.5253   3.5332   3.5575   3.5795   3.5920   3.5951   3.6122   3.6259
  3.6329   3.6651   3.6682   3.6779   3.6893   3.7123   3.7243   3.7455
  3.7666   3.7872   3.8177   3.8228   3.8625   3.8823   3.9186   3.9342
  3.9498   3.9949   4.0681   4.1196   4.1491   4.1507   4.1808   4.2122
  4.2334   4.2395   4.2687   4.2910   4.3024   4.3604   4.3666   4.3844
  4.4156   4.4436   4.4568   4.4811   4.5292   4.5616   4.5927   4.6200
  4.6670   4.6981   4.7426   4.8020   4.8577   4.8667   4.9248   4.9431
  4.9860   5.0197   5.0369   5.0673   5.1830   5.2569   5.3412   5.3457
  5.4656   5.5708   5.6797   5.7916   5.8929   6.0273   6.0477   6.2006
  6.3896   6.4251   6.5327   6.5857   6.5943   6.6368   6.7705   6.8866
  6.9750   6.9990   7.1205   7.2334   7.2676   7.4900  22.3861  22.4549
 22.4728  22.6368  22.7667  22.8050  22.9942  23.1645  44.0163  44.2945
 --------------------------------------------------------------
 
          Ground-State Mulliken Net Atomic Charges

     Atom                 Charge (a.u.)
  ----------------------------------------
      1 C                    -0.186415
      2 C                    -0.342609
      3 C                    -0.285238
      4 C                    -0.247769
      5 H                     0.166675
      6 H                     0.147004
      7 H                     0.129770
      8 C                     0.276264
      9 C                    -0.157148
     10 H                     0.151976
     11 H                     0.141229
     12 H                     0.137857
     13 H                     0.157915
     14 H                     0.138812
     15 O                    -0.222460
     16 C                    -0.232739
     17 H                     0.118983
     18 H                     0.133325
     19 H                     0.164173
     20 C                     0.145031
     21 O                    -0.398763
     22 H                     0.064126
  ----------------------------------------
  Sum of atomic charges =     0.000000

 -----------------------------------------------------------------
                    Cartesian Multipole Moments
 -----------------------------------------------------------------
    Charge (ESU x 10^10)
                 0.0000
    Dipole Moment (Debye)
         X       0.1060      Y       1.9353      Z       1.3560
       Tot       2.3655
    Quadrupole Moments (Debye-Ang)
        XX     -56.9479     XY       5.3305     YY     -63.9477
        XZ       0.9147     YZ      -3.7594     ZZ     -58.7566
    Octopole Moments (Debye-Ang^2)
       XXX     -16.6421    XXY     -10.1769    XYY       0.8276
       YYY       7.1537    XXZ       4.3503    XYZ      -2.6197
       YYZ      -2.2703    XZZ      -0.8283    YZZ      -2.3276
       ZZZ      -2.5943
    Hexadecapole Moments (Debye-Ang^3)
      XXXX    -879.6406   XXXY      30.0606   XXYY    -223.2231
      XYYY       9.6250   YYYY    -532.9294   XXXZ      18.6851
      XXYZ      -1.1122   XYYZ       7.6254   YYYZ     -14.0893
      XXZZ    -223.2882   XYZZ       8.1716   YYZZ    -159.9061
      XZZZ      16.0851   YZZZ     -15.8873   ZZZZ    -427.3003
 -----------------------------------------------------------------
 Total job time:  40.74s(wall), 643.95s(cpu) 
 Tue Jun 21 14:56:14 2022

        *************************************************************
        *                                                           *
        *  Thank you very much for using Q-Chem.  Have a nice day.  *
        *                                                           *
        *************************************************************


remove work dirs /tmp/qchem4111593.0 -- /tmp/qchem4111593.-1
rm -rf /tmp/qchem4111593
