You are running Q-Chem version: 5.4.1

#
# job setting
#
local host:  node01.cluster
current dir: /home/rpaton/opt
input file:  /home/rpaton/opt/DATS_13_exo_iii_TZVP.qcin
output file: 
nprocs     : 0
nthreads   : 16
#
# qchem installation setting
#
QC:          /opt/apps/qchem
QCAUX:       /opt/apps/qchem/qcaux
QCPROG:      /opt/apps/qchem/exe/qcprog.exe_s
QCPROG_S:    /opt/apps/qchem/exe/qcprog.exe_s
PARALLEL:    -DSERIAL
QCMPI:       seq
#
# qchem directory setting
#
qcrun:       qchem3968213
QCSCRATCH:   /tmp
QCLOCALSCR:  
QCTMPDIR:    /tmp
QCFILEPREF:  /tmp/qchem3968213
QCSAVEDIR:   
workdirs:    /tmp/qchem3968213
workdir0:    /tmp/qchem3968213
partmpdirs =  
#
# parallel setting
#
QCRSH:           ssh
QCMPI:           seq
QCMPIRUN:        
QCMACHINEFILE:   /tmp/qchem3968213/hostfile

#
# env setting
#
exported envs:   QC QCAUX QCSCRATCH QCRUNNAME QCFILEPREF QCPROG QCPROG_S GUIFILE

Running Job 1 of 1 /home/rpaton/opt/DATS_13_exo_iii_TZVP.qcin
qchem /home/rpaton/opt/DATS_13_exo_iii_TZVP.qcin_3968213.0 /tmp/qchem3968213/ 0
/opt/apps/qchem/exe/qcprog.exe_s /home/rpaton/opt/DATS_13_exo_iii_TZVP.qcin_3968213.0 /tmp/qchem3968213/
                  Welcome to Q-Chem
     A Quantum Leap Into The Future Of Chemistry


 Q-Chem 5.4, Q-Chem, Inc., Pleasanton, CA (2021)

 E. Epifanovsky,  A. T. B. Gilbert,  Xintian Feng,  Joonho Lee,  Yuezhi Mao,  
 N. Mardirossian,  P. Pokhilko,  A. White,  M. Wormit,  M. P. Coons,  
 A. L. Dempwolff,  Zhengting Gan,  D. Hait,  P. R. Horn,  L. D. Jacobson,  
 I. Kaliman,  J. Kussmann,  A. W. Lange,  Ka Un Lao,  D. S. Levine,  Jie Liu,  
 S. C. McKenzie,  A. F. Morrison,  K. Nanda,  F. Plasser,  D. R. Rehn,  
 M. L. Vidal,  Zhi-Qiang You,  Ying Zhu,  B. Alam,  B. Albrecht,  
 A. Aldossary,  E. Alguire,  J. H. Andersen,  D. Barton,  K. Begam,  A. Behn,  
 Y. A. Bernard,  E. J. Berquist,  H. Burton,  A. Carreras,  K. Carter-Fenk,  
 R. Chakraborty,  A. D. Chien,  K. D. Closser,  V. Cofer-Shabica,  
 S. Dasgupta,  Jia Deng,  M. de Wergifosse,  M. Diedenhofen,  Hainam Do,  
 S. Ehlert,  Po-Tung Fang,  S. Fatehi,  Qingguo Feng,  T. Friedhoff,  
 J. Gayvert,  Qinghui Ge,  G. Gidofalvi,  M. Goldey,  J. Gomes,  
 C. Gonzalez-Espinoza,  S. Gulania,  A. Gunina,  M. W. D. Hanson-Heine,  
 P. H. P. Harbach,  A. W. Hauser,  M. F. Herbst,  M. Hernandez Vera,  
 M. Hodecker,  Z. C. Holden,  S. Houck,  Xunkun Huang,  Kerwin Hui,  
 B. C. Huynh,  M. Ivanov,  Hyunjun Ji,  Hanjie Jiang,  B. Kaduk,  S. Kaehler,  
 K. Khistyaev,  Jaehoon Kim,  P. Klunzinger,  Z. Koczor-Benda,  
 Joong Hoon Koh,  D. Kosenkov,  L. Koulias,  T. Kowalczyk,  C. M. Krauter,  
 K. Kue,  A. Kunitsa,  T. Kus,  A. Landau,  K. V. Lawler,  D. Lefrancois,  
 S. Lehtola,  Rain Li,  Yi-Pei Li,  Jiashu Liang,  M. Liebenthal,  
 Hung-Hsuan Lin,  You-Sheng Lin,  Fenglai Liu,  Kuan-Yu Liu,  
 M. Loipersberger,  A. Luenser,  A. Manjanath,  P. Manohar,  E. Mansoor,  
 S. F. Manzer,  Shan-Ping Mao,  A. V. Marenich,  T. Markovich,  S. Mason,  
 S. A. Maurer,  P. F. McLaughlin,  M. F. S. J. Menger,  J.-M. Mewes,  
 S. A. Mewes,  P. Morgante,  J. W. Mullinax,  K. J. Oosterbaan,  G. Paran,  
 Alexander C. Paul,  Suranjan K. Paul,  F. Pavosevic,  Zheng Pei,  S. Prager,  
 E. I. Proynov,  E. Ramos,  B. Rana,  A. E. Rask,  A. Rettig,  R. M. Richard,  
 F. Rob,  E. Rossomme,  T. Scheele,  M. Scheurer,  M. Schneider,  
 N. Sergueev,  S. M. Sharada,  W. Skomorowski,  D. W. Small,  C. J. Stein,  
 Yu-Chuan Su,  E. J. Sundstrom,  Zhen Tao,  J. Thirman,  T. Tsuchimochi,  
 N. M. Tubman,  S. P. Veccham,  O. Vydrov,  J. Wenzel,  J. Witte,  A. Yamada,  
 Kun Yao,  S. Yeganeh,  S. R. Yost,  A. Zech,  Igor Ying Zhang,  Xing Zhang,  
 Yu Zhang,  D. Zuev,  A. Aspuru-Guzik,  A. T. Bell,  N. A. Besley,  
 K. B. Bravaya,  B. R. Brooks,  D. Casanova,  Jeng-Da Chai,  S. Coriani,  
 C. J. Cramer,  A. E. DePrince, III,  R. A. DiStasio Jr.,  A. Dreuw,  
 B. D. Dunietz,  T. R. Furlani,  W. A. Goddard III,  S. Grimme,  
 S. Hammes-Schiffer,  T. Head-Gordon,  W. J. Hehre,  Chao-Ping Hsu,  
 T.-C. Jagau,  Yousung Jung,  A. Klamt,  Jing Kong,  D. S. Lambrecht,  
 WanZhen Liang,  N. J. Mayhall,  C. W. McCurdy,  J. B. Neaton,  
 C. Ochsenfeld,  J. A. Parkhill,  R. Peverati,  V. A. Rassolov,  Yihan Shao,  
 L. V. Slipchenko,  T. Stauch,  R. P. Steele,  J. E. Subotnik,  
 A. J. W. Thom,  A. Tkatchenko,  D. G. Truhlar,  T. Van Voorhis,  
 T. A. Wesolowski,  K. B. Whaley,  H. L. Woodcock III,  P. M. Zimmerman,  
 S. Faraji,  P. M. W. Gill,  M. Head-Gordon,  J. M. Herbert,  A. I. Krylov

 Additional authors for Version 5.4.1: 
 S. Kotaru,  Shaozhi Li,  Xiangyuan Li,  F. Matz,  A. Molle,  Haisheng Ren,  
 Yingli Su,  Hung-Yi Tsai,  C. Utku,  Fang Wang

 Contributors to earlier versions of Q-Chem not listed above: 
 R. D. Adamson,  B. Austin,  R. Baer,  J. Baker,  G. J. O. Beran,  
 K. Brandhorst,  S. T. Brown,  E. F. C. Byrd,  A. K. Chakraborty,  
 G. K. L. Chan,  Chun-Min Chang,  Yunqing Chen,  C.-L. Cheng,  
 Siu Hung Chien,  D. M. Chipman,  D. L. Crittenden,  H. Dachsel,  
 R. J. Doerksen,  A. D. Dutoi,  R. G. Edgar,  J. Fosso-Tande,  
 L. Fusti-Molnar,  D. Ghosh,  A. Ghysels,  A. Golubeva-Zadorozhnaya,  
 J. Gonthier,  M. S. Gordon,  S. R. Gwaltney,  G. Hawkins,  J. E. Herr,  
 A. Heyden,  S. Hirata,  E. G. Hohenstein,  G. Kedziora,  F. J. Keil,  
 C. Kelley,  Jihan Kim,  R. A. King,  R. Z. Khaliullin,  P. P. Korambath,  
 W. Kurlancheek,  A. Laurent,  A. M. Lee,  M. S. Lee,  S. V. Levchenko,  
 Ching Yeh Lin,  D. Liotard,  E. Livshits,  R. C. Lochan,  I. Lotan,  
 L. A. Martinez-Martinez,  P. E. Maslen,  N. Nair,  D. P. O'Neill,  
 D. Neuhauser,  E. Neuscamman,  C. M. Oana,  R. Olivares-Amaya,  R. Olson,  
 T. M. Perrine,  B. Peters,  P. A. Pieniazek,  A. Prociuk,  Y. M. Rhee,  
 J. Ritchie,  M. A. Rohrdanz,  E. Rosta,  N. J. Russ,  H. F. Schaefer III,  
 M. W. Schmidt,  N. E. Schultz,  S. Sharma,  N. Shenvi,  C. D. Sherrill,  
 A. C. Simmonett,  A. Sodt,  T. Stein,  D. Stuck,  K. S. Thanthiriwatte,  
 V. Vanovschi,  L. Vogt,  Tao Wang,  A. Warshel,  M. A. Watson,  
 C. F. Williams,  Q. Wu,  X. Xu,  Jun Yang,  W. Zhang,  Yan Zhao

 Please cite Q-Chem as follows:
 Y. Shao et al., Mol. Phys. 113, 184-215 (2015)
 DOI: 10.1080/00268976.2014.952696

 Q-Chem 5.4.1 for Intel X86 EM64T Linux

 Parts of Q-Chem use Armadillo 9.800.1 (Horizon Scraper).
 http://arma.sourceforge.net/

 Q-Chem begins on Tue Jun 21 14:55:34 2022  

 Host: 
0

     Scratch files written to /tmp/qchem3968213//
 Aug1521 |scratch|qcdevops|jenkins|workspace|build_RNUM 8286   
 Processing $rem in /opt/apps/qchem/config/preferences:
 Processing $rem in /home/rpaton/.qchemrc:

 Checking the input file for inconsistencies... 	...done.

--------------------------------------------------------------
User input:
--------------------------------------------------------------
$molecule
0 1
C  -1.213433  1.454079  0.860923
C  0.337991  2.025288  -0.610598
C  -0.061607  -0.762828  -0.978283
C  -1.45372  0.09898  0.743487
H  -0.634345  1.837234  1.692012
H  -1.923199  2.153874  0.424333
H  -1.008344  -0.619358  1.423404
C  1.342336  1.119667  -0.35842
C  1.137403  -0.272715  -0.522677
H  0.504496  3.076204  -0.393556
H  -0.250394  -1.830513  -0.950747
H  -0.415347  1.831278  -1.364967
H  -0.66805  -0.176684  -1.654842
C  -2.635173  -0.359062  -0.003857
O  -3.100541  -1.475241  0.034356
H  -3.097639  0.429175  -0.643866
O  2.01392  -1.204192  -0.041983
C  3.14847  -0.759462  0.665421
H  3.694821  -1.658593  0.950473
H  3.794361  -0.1308  0.040328
H  2.871457  -0.203689  1.570114
H  2.211549  1.463651  0.192362
$end

$rem
METHOD wB97X-V
BASIS def2-TZVP
XC_GRID 000099000590
MEM_TOTAL          8000
MEM_STATIC         4000
$end

--------------------------------------------------------------
 ----------------------------------------------------------------
             Standard Nuclear Orientation (Angstroms)
    I     Atom           X                Y                Z
 ----------------------------------------------------------------
    1      C       1.2134331196     1.4540790344    -0.8609227347
    2      C      -0.3379909274     2.0252880161     0.6105982228
    3      C       0.0616069099    -0.7628280290     0.9782830576
    4      C       1.4537200437     0.0989800142    -0.7434868126
    5      H       0.6343451825     1.8372341197    -1.6920117392
    6      H       1.9231991330     2.1538739687    -0.4243326511
    7      H       1.0083440420    -0.6193579175    -1.4234038837
    8      C      -1.3423359609     1.1196670847     0.3584201102
    9      C      -1.1374030412    -0.2727149368     0.5226770280
   10      H      -0.5044958619     3.0762040392     0.3935562843
   11      H       0.2503938563    -1.8305130369     0.9507469961
   12      H       0.4153470235     1.8312779270     1.3649672490
   13      H       0.6680499049    -0.1766841054     1.6548421282
   14      C       2.6351729813    -0.3590620966     0.0038572182
   15      O       3.1005409258    -1.4752411180    -0.0343558321
   16      H       3.0976389887     0.4291748369     0.6438662948
   17      O      -2.0139200642    -1.2041918596     0.0419829203
   18      C      -3.1484700046    -0.7594617539    -0.6654211089
   19      H      -3.6948210361    -1.6585927067    -0.9504731973
   20      H      -3.7943610046    -0.1307997623    -0.0403281005
   21      H      -2.8714569289    -0.2036887078    -1.5701140575
   22      H      -2.2115489146     1.4636511663    -0.1923619119
 ----------------------------------------------------------------
 Molecular Point Group                 C1    NOp =  1
 Largest Abelian Subgroup              C1    NOp =  1
 Nuclear Repulsion Energy =         521.36547458 hartrees
 There are       38 alpha and       38 beta electrons
 Requested basis set is def2-TZVP
 There are 158 shells and 382 basis functions

 Total QAlloc Memory Limit   8000 MB
 Mega-Array Size      3911 MB
 MEM_STATIC part      4000 MB
 A cutoff of  1.0D-08 yielded   9796 shell pairs
 There are     56590 function pairs (     71876 Cartesian)
 Smallest overlap matrix eigenvalue = 5.49E-05

 Q-Chem warning in module stvman/mkSTV.C, line 323:

 Overlap eigenvalue is smaller than square root of threshold
 Use THRESH >= 12 to get rid of this warning


 Scale SEOQF with 1.000000e-01/1.000000e-01/1.000000e-01

 Standard Electronic Orientation quadrupole field applied
 Nucleus-field energy     =     0.0000000152 hartrees
 Guess from superposition of atomic densities
 Warning:  Energy on first SCF cycle will be non-variational
 SAD guess density has 76.000000 electrons

 -----------------------------------------------------------------------
  General SCF calculation program by
  Eric Jon Sundstrom, Paul Horn, Yuezhi Mao, Dmitri Zuev, Alec White,
  David Stuck, Shaama M.S., Shane Yost, Joonho Lee, David Small,
  Daniel Levine, Susi Lehtola, Hugh Burton, Evgeny Epifanovsky,
  Bang C. Huynh
 -----------------------------------------------------------------------
 Exchange:     0.1670 Hartree-Fock + 1.0000 wB97X-V + LR-HF
 Correlation:  1.0000 wB97X-V
 Using Euler-Maclaurin-Lebedev (99,590) quadrature formula
 Nonlocal Correlation:  VV10 with C = 0.0100 and b = 6.00 and scale = 1.00000
 Grid used for NLC:  SG-1 standard quadrature
 using 16 threads for integral computing
 -------------------------------------------------------
 OpenMP Integral computing Module                
 Release: version 1.0, May 2013, Q-Chem Inc. Pittsburgh 
 -------------------------------------------------------
 -------------------------------------------------------
 OpenMP BLAS3 based DFT computing Module                
 Release: version 1.0, May 2013, Q-Chem Inc. Pittsburgh 
 -------------------------------------------------------
 A restricted SCF calculation will be
 performed using DIIS
 SCF converges when DIIS error is below 1.0e-05
 ---------------------------------------
  Cycle       Energy         DIIS error
 ---------------------------------------
    1    -464.9181179955      2.76e-02  
    2    -462.2855276989      2.87e-03  
    3    -462.2660180904      3.52e-03  
    4    -462.4173267684      4.29e-04  
    5    -462.4200230725      1.92e-04  
    6    -462.4206674357      4.76e-05  
    7    -462.4207211503      1.85e-05  
    8    -462.4207321304      7.62e-06  Convergence criterion met
 ---------------------------------------
 SCF time:   CPU 593.55s  wall 38.00s 
 SCF   energy in the final basis set =     -462.4207321304
 Total energy in the final basis set =     -462.4207321304
 
 --------------------------------------------------------------
 
                    Orbital Energies (a.u.)
 --------------------------------------------------------------
 
 Alpha MOs
 -- Occupied --
-19.2466 -19.1939 -10.3497 -10.3376 -10.3273 -10.2970 -10.2891 -10.2853
-10.2826 -10.2778  -1.2044  -1.1641  -0.9649  -0.9172  -0.8866  -0.8202
 -0.7734  -0.7588  -0.6871  -0.6635  -0.6440  -0.6085  -0.5928  -0.5771
 -0.5759  -0.5459  -0.5292  -0.5190  -0.5171  -0.5101  -0.4976  -0.4812
 -0.4751  -0.4422  -0.4263  -0.3550  -0.3307  -0.3153
 -- Virtual --
  0.0162   0.0559   0.1030   0.1161   0.1194   0.1362   0.1461   0.1610
  0.1679   0.1785   0.1817   0.1887   0.1925   0.2038   0.2139   0.2153
  0.2292   0.2553   0.2651   0.2746   0.2787   0.2870   0.2906   0.3087
  0.3160   0.3296   0.3439   0.3515   0.3557   0.3749   0.3824   0.3904
  0.4020   0.4048   0.4143   0.4254   0.4420   0.4489   0.4629   0.4734
  0.4856   0.4893   0.4997   0.5009   0.5096   0.5099   0.5277   0.5301
  0.5371   0.5403   0.5429   0.5492   0.5644   0.5755   0.5814   0.5899
  0.6072   0.6116   0.6292   0.6377   0.6514   0.6560   0.6620   0.6764
  0.6905   0.7079   0.7167   0.7309   0.7365   0.7496   0.7669   0.7797
  0.7938   0.8004   0.8299   0.8572   0.8673   0.8808   0.9039   0.9083
  0.9329   0.9589   0.9630   0.9829   0.9967   1.0183   1.0299   1.0417
  1.0503   1.0547   1.0887   1.0922   1.1122   1.1149   1.1385   1.1472
  1.1638   1.1805   1.1881   1.2077   1.2498   1.2531   1.2616   1.2747
  1.2861   1.3114   1.3316   1.3444   1.3668   1.3702   1.4195   1.4230
  1.4321   1.4730   1.4918   1.5159   1.5241   1.5597   1.5627   1.5759
  1.5806   1.5905   1.6132   1.6218   1.6376   1.6476   1.6611   1.6664
  1.6794   1.6927   1.7035   1.7149   1.7395   1.7463   1.7552   1.7694
  1.7792   1.7863   1.7919   1.8366   1.8558   1.8725   1.8908   1.8969
  1.9090   1.9439   1.9479   1.9739   2.0036   2.0252   2.0302   2.0518
  2.0704   2.0884   2.0985   2.1056   2.1217   2.1551   2.1708   2.1769
  2.1952   2.2238   2.2522   2.2760   2.3035   2.3120   2.3435   2.3566
  2.3624   2.3745   2.3978   2.4008   2.4135   2.4404   2.4420   2.4620
  2.4939   2.5104   2.5154   2.5404   2.5521   2.5631   2.5689   2.5914
  2.6054   2.6268   2.6470   2.6636   2.6682   2.6820   2.6943   2.7060
  2.7211   2.7277   2.7508   2.7616   2.7806   2.7879   2.8029   2.8122
  2.8247   2.8327   2.8688   2.8731   2.8794   2.9069   2.9250   2.9298
  2.9504   2.9660   2.9863   3.0024   3.0219   3.0392   3.0549   3.0641
  3.0773   3.0997   3.1358   3.1393   3.1483   3.1718   3.1769   3.1824
  3.1998   3.2066   3.2298   3.2465   3.2588   3.2675   3.2988   3.3071
  3.3174   3.3265   3.3383   3.3450   3.3568   3.3743   3.3801   3.4027
  3.4148   3.4286   3.4435   3.4474   3.4592   3.4802   3.4889   3.5076
  3.5096   3.5237   3.5463   3.5585   3.5689   3.5808   3.5845   3.6097
  3.6318   3.6424   3.6481   3.6606   3.6856   3.6892   3.7148   3.7200
  3.7523   3.7835   3.7920   3.8301   3.8518   3.8891   3.8997   3.9272
  3.9589   4.0129   4.0468   4.0500   4.1388   4.1526   4.1859   4.2142
  4.2402   4.2531   4.2682   4.2751   4.2918   4.3332   4.3462   4.3660
  4.3854   4.4159   4.4364   4.4575   4.4890   4.5647   4.5985   4.6359
  4.6653   4.6829   4.7217   4.7850   4.8217   4.8725   4.8919   4.9518
  4.9553   4.9853   5.0348   5.0682   5.1709   5.2492   5.3087   5.3264
  5.4588   5.5845   5.6805   5.7878   5.8739   6.0100   6.0267   6.2201
  6.3976   6.4633   6.4738   6.5581   6.5649   6.5920   6.7552   6.8777
  6.9278   6.9737   7.0738   7.1802   7.2651   7.4761  22.3459  22.4280
 22.4785  22.5632  22.7323  22.8210  22.9986  23.1349  43.9342  44.2885
 --------------------------------------------------------------
 
          Ground-State Mulliken Net Atomic Charges

     Atom                 Charge (a.u.)
  ----------------------------------------
      1 C                    -0.302354
      2 C                    -0.273688
      3 C                    -0.340754
      4 C                    -0.095534
      5 H                     0.142288
      6 H                     0.161176
      7 H                     0.140054
      8 C                    -0.194895
      9 C                     0.263657
     10 H                     0.146303
     11 H                     0.164243
     12 H                     0.143752
     13 H                     0.155156
     14 C                     0.073723
     15 O                    -0.290248
     16 H                     0.060810
     17 O                    -0.243248
     18 C                    -0.231207
     19 H                     0.141511
     20 H                     0.126662
     21 H                     0.119940
     22 H                     0.132653
  ----------------------------------------
  Sum of atomic charges =     0.000000

 -----------------------------------------------------------------
                    Cartesian Multipole Moments
 -----------------------------------------------------------------
    Charge (ESU x 10^10)
                 0.0000
    Dipole Moment (Debye)
         X      -3.3203      Y       3.6922      Z      -0.6197
       Tot       5.0040
    Quadrupole Moments (Debye-Ang)
        XX     -65.2121     XY       7.8756     YY     -62.9988
        XZ       5.3078     YZ       0.2891     ZZ     -61.0382
    Octopole Moments (Debye-Ang^2)
       XXX     -60.6122    XXY      21.8204    XYY     -11.3659
       YYY       5.2717    XXZ      -6.2375    XYZ       0.1860
       YYZ      -2.0054    XZZ       1.2036    YZZ      -4.5711
       ZZZ      -3.9798
    Hexadecapole Moments (Debye-Ang^3)
      XXXX   -1531.5178   XXXY     105.5262   XXYY    -385.4861
      XYYY      19.1754   YYYY    -569.7270   XXXZ      34.5679
      XXYZ      11.1166   XYYZ      12.2292   YYYZ      -3.1796
      XXZZ    -292.3869   XYZZ       1.1417   YYZZ    -139.6524
      XZZZ      15.7535   YZZZ       0.3225   ZZZZ    -243.1325
 -----------------------------------------------------------------
 Total job time:  37.75s(wall), 597.55s(cpu) 
 Tue Jun 21 14:56:12 2022

        *************************************************************
        *                                                           *
        *  Thank you very much for using Q-Chem.  Have a nice day.  *
        *                                                           *
        *************************************************************


remove work dirs /tmp/qchem3968213.0 -- /tmp/qchem3968213.-1
rm -rf /tmp/qchem3968213
