You are running Q-Chem version: 5.4.1

#
# job setting
#
local host:  node16.cluster
current dir: /home/rpaton/opt
input file:  /home/rpaton/opt/DATS_13_endo_i_TZVP.qcin
output file: 
nprocs     : 0
nthreads   : 16
#
# qchem installation setting
#
QC:          /opt/apps/qchem
QCAUX:       /opt/apps/qchem/qcaux
QCPROG:      /opt/apps/qchem/exe/qcprog.exe_s
QCPROG_S:    /opt/apps/qchem/exe/qcprog.exe_s
PARALLEL:    -DSERIAL
QCMPI:       seq
#
# qchem directory setting
#
qcrun:       qchem2917286
QCSCRATCH:   /tmp
QCLOCALSCR:  
QCTMPDIR:    /tmp
QCFILEPREF:  /tmp/qchem2917286
QCSAVEDIR:   
workdirs:    /tmp/qchem2917286
workdir0:    /tmp/qchem2917286
partmpdirs =  
#
# parallel setting
#
QCRSH:           ssh
QCMPI:           seq
QCMPIRUN:        
QCMACHINEFILE:   /tmp/qchem2917286/hostfile

#
# env setting
#
exported envs:   QC QCAUX QCSCRATCH QCRUNNAME QCFILEPREF QCPROG QCPROG_S GUIFILE

Running Job 1 of 1 /home/rpaton/opt/DATS_13_endo_i_TZVP.qcin
qchem /home/rpaton/opt/DATS_13_endo_i_TZVP.qcin_2917286.0 /tmp/qchem2917286/ 0
/opt/apps/qchem/exe/qcprog.exe_s /home/rpaton/opt/DATS_13_endo_i_TZVP.qcin_2917286.0 /tmp/qchem2917286/
                  Welcome to Q-Chem
     A Quantum Leap Into The Future Of Chemistry


 Q-Chem 5.4, Q-Chem, Inc., Pleasanton, CA (2021)

 E. Epifanovsky,  A. T. B. Gilbert,  Xintian Feng,  Joonho Lee,  Yuezhi Mao,  
 N. Mardirossian,  P. Pokhilko,  A. White,  M. Wormit,  M. P. Coons,  
 A. L. Dempwolff,  Zhengting Gan,  D. Hait,  P. R. Horn,  L. D. Jacobson,  
 I. Kaliman,  J. Kussmann,  A. W. Lange,  Ka Un Lao,  D. S. Levine,  Jie Liu,  
 S. C. McKenzie,  A. F. Morrison,  K. Nanda,  F. Plasser,  D. R. Rehn,  
 M. L. Vidal,  Zhi-Qiang You,  Ying Zhu,  B. Alam,  B. Albrecht,  
 A. Aldossary,  E. Alguire,  J. H. Andersen,  D. Barton,  K. Begam,  A. Behn,  
 Y. A. Bernard,  E. J. Berquist,  H. Burton,  A. Carreras,  K. Carter-Fenk,  
 R. Chakraborty,  A. D. Chien,  K. D. Closser,  V. Cofer-Shabica,  
 S. Dasgupta,  Jia Deng,  M. de Wergifosse,  M. Diedenhofen,  Hainam Do,  
 S. Ehlert,  Po-Tung Fang,  S. Fatehi,  Qingguo Feng,  T. Friedhoff,  
 J. Gayvert,  Qinghui Ge,  G. Gidofalvi,  M. Goldey,  J. Gomes,  
 C. Gonzalez-Espinoza,  S. Gulania,  A. Gunina,  M. W. D. Hanson-Heine,  
 P. H. P. Harbach,  A. W. Hauser,  M. F. Herbst,  M. Hernandez Vera,  
 M. Hodecker,  Z. C. Holden,  S. Houck,  Xunkun Huang,  Kerwin Hui,  
 B. C. Huynh,  M. Ivanov,  Hyunjun Ji,  Hanjie Jiang,  B. Kaduk,  S. Kaehler,  
 K. Khistyaev,  Jaehoon Kim,  P. Klunzinger,  Z. Koczor-Benda,  
 Joong Hoon Koh,  D. Kosenkov,  L. Koulias,  T. Kowalczyk,  C. M. Krauter,  
 K. Kue,  A. Kunitsa,  T. Kus,  A. Landau,  K. V. Lawler,  D. Lefrancois,  
 S. Lehtola,  Rain Li,  Yi-Pei Li,  Jiashu Liang,  M. Liebenthal,  
 Hung-Hsuan Lin,  You-Sheng Lin,  Fenglai Liu,  Kuan-Yu Liu,  
 M. Loipersberger,  A. Luenser,  A. Manjanath,  P. Manohar,  E. Mansoor,  
 S. F. Manzer,  Shan-Ping Mao,  A. V. Marenich,  T. Markovich,  S. Mason,  
 S. A. Maurer,  P. F. McLaughlin,  M. F. S. J. Menger,  J.-M. Mewes,  
 S. A. Mewes,  P. Morgante,  J. W. Mullinax,  K. J. Oosterbaan,  G. Paran,  
 Alexander C. Paul,  Suranjan K. Paul,  F. Pavosevic,  Zheng Pei,  S. Prager,  
 E. I. Proynov,  E. Ramos,  B. Rana,  A. E. Rask,  A. Rettig,  R. M. Richard,  
 F. Rob,  E. Rossomme,  T. Scheele,  M. Scheurer,  M. Schneider,  
 N. Sergueev,  S. M. Sharada,  W. Skomorowski,  D. W. Small,  C. J. Stein,  
 Yu-Chuan Su,  E. J. Sundstrom,  Zhen Tao,  J. Thirman,  T. Tsuchimochi,  
 N. M. Tubman,  S. P. Veccham,  O. Vydrov,  J. Wenzel,  J. Witte,  A. Yamada,  
 Kun Yao,  S. Yeganeh,  S. R. Yost,  A. Zech,  Igor Ying Zhang,  Xing Zhang,  
 Yu Zhang,  D. Zuev,  A. Aspuru-Guzik,  A. T. Bell,  N. A. Besley,  
 K. B. Bravaya,  B. R. Brooks,  D. Casanova,  Jeng-Da Chai,  S. Coriani,  
 C. J. Cramer,  A. E. DePrince, III,  R. A. DiStasio Jr.,  A. Dreuw,  
 B. D. Dunietz,  T. R. Furlani,  W. A. Goddard III,  S. Grimme,  
 S. Hammes-Schiffer,  T. Head-Gordon,  W. J. Hehre,  Chao-Ping Hsu,  
 T.-C. Jagau,  Yousung Jung,  A. Klamt,  Jing Kong,  D. S. Lambrecht,  
 WanZhen Liang,  N. J. Mayhall,  C. W. McCurdy,  J. B. Neaton,  
 C. Ochsenfeld,  J. A. Parkhill,  R. Peverati,  V. A. Rassolov,  Yihan Shao,  
 L. V. Slipchenko,  T. Stauch,  R. P. Steele,  J. E. Subotnik,  
 A. J. W. Thom,  A. Tkatchenko,  D. G. Truhlar,  T. Van Voorhis,  
 T. A. Wesolowski,  K. B. Whaley,  H. L. Woodcock III,  P. M. Zimmerman,  
 S. Faraji,  P. M. W. Gill,  M. Head-Gordon,  J. M. Herbert,  A. I. Krylov

 Additional authors for Version 5.4.1: 
 S. Kotaru,  Shaozhi Li,  Xiangyuan Li,  F. Matz,  A. Molle,  Haisheng Ren,  
 Yingli Su,  Hung-Yi Tsai,  C. Utku,  Fang Wang

 Contributors to earlier versions of Q-Chem not listed above: 
 R. D. Adamson,  B. Austin,  R. Baer,  J. Baker,  G. J. O. Beran,  
 K. Brandhorst,  S. T. Brown,  E. F. C. Byrd,  A. K. Chakraborty,  
 G. K. L. Chan,  Chun-Min Chang,  Yunqing Chen,  C.-L. Cheng,  
 Siu Hung Chien,  D. M. Chipman,  D. L. Crittenden,  H. Dachsel,  
 R. J. Doerksen,  A. D. Dutoi,  R. G. Edgar,  J. Fosso-Tande,  
 L. Fusti-Molnar,  D. Ghosh,  A. Ghysels,  A. Golubeva-Zadorozhnaya,  
 J. Gonthier,  M. S. Gordon,  S. R. Gwaltney,  G. Hawkins,  J. E. Herr,  
 A. Heyden,  S. Hirata,  E. G. Hohenstein,  G. Kedziora,  F. J. Keil,  
 C. Kelley,  Jihan Kim,  R. A. King,  R. Z. Khaliullin,  P. P. Korambath,  
 W. Kurlancheek,  A. Laurent,  A. M. Lee,  M. S. Lee,  S. V. Levchenko,  
 Ching Yeh Lin,  D. Liotard,  E. Livshits,  R. C. Lochan,  I. Lotan,  
 L. A. Martinez-Martinez,  P. E. Maslen,  N. Nair,  D. P. O'Neill,  
 D. Neuhauser,  E. Neuscamman,  C. M. Oana,  R. Olivares-Amaya,  R. Olson,  
 T. M. Perrine,  B. Peters,  P. A. Pieniazek,  A. Prociuk,  Y. M. Rhee,  
 J. Ritchie,  M. A. Rohrdanz,  E. Rosta,  N. J. Russ,  H. F. Schaefer III,  
 M. W. Schmidt,  N. E. Schultz,  S. Sharma,  N. Shenvi,  C. D. Sherrill,  
 A. C. Simmonett,  A. Sodt,  T. Stein,  D. Stuck,  K. S. Thanthiriwatte,  
 V. Vanovschi,  L. Vogt,  Tao Wang,  A. Warshel,  M. A. Watson,  
 C. F. Williams,  Q. Wu,  X. Xu,  Jun Yang,  W. Zhang,  Yan Zhao

 Please cite Q-Chem as follows:
 Y. Shao et al., Mol. Phys. 113, 184-215 (2015)
 DOI: 10.1080/00268976.2014.952696

 Q-Chem 5.4.1 for Intel X86 EM64T Linux

 Parts of Q-Chem use Armadillo 9.800.1 (Horizon Scraper).
 http://arma.sourceforge.net/

 Q-Chem begins on Tue Jun 21 14:55:35 2022  

 Host: 
0

     Scratch files written to /tmp/qchem2917286//
 Aug1521 |scratch|qcdevops|jenkins|workspace|build_RNUM 8286   
 Processing $rem in /opt/apps/qchem/config/preferences:
 Processing $rem in /home/rpaton/.qchemrc:

 Checking the input file for inconsistencies... 	...done.

--------------------------------------------------------------
User input:
--------------------------------------------------------------
$molecule
0 1
C  2.265477  0.137456  -0.524106
C  0.983396  1.814014  -0.580965
C  -0.031263  0.455733  1.706779
C  1.832974  -0.717741  0.472848
H  2.004618  -0.127621  -1.542723
H  3.17978  0.707609  -0.389757
H  2.324105  -0.790708  1.4372
C  -0.297846  1.299345  -0.555166
C  -0.806208  0.63722  0.590596
H  1.334629  2.288555  -1.492316
H  -0.404651  -0.172459  2.508494
H  1.440207  2.192152  0.326908
H  0.795912  1.112059  1.932223
C  0.786533  -1.67591  0.134072
O  0.19951  -1.658415  -0.937154
H  0.515726  -2.415171  0.912534
O  -1.991385  -0.031614  0.581308
C  -2.650271  -0.222891  -0.656549
H  -3.521413  -0.839121  -0.432977
H  -2.990237  0.730652  -1.079185
H  -2.002537  -0.744273  -1.36736
H  -0.837892  1.2152  -1.491338
$end

$rem
METHOD wB97X-V
BASIS def2-TZVP
XC_GRID 000099000590
MEM_TOTAL          8000
MEM_STATIC         4000
$end

--------------------------------------------------------------
 ----------------------------------------------------------------
             Standard Nuclear Orientation (Angstroms)
    I     Atom           X                Y                Z
 ----------------------------------------------------------------
    1      C       2.2654769779     0.1374559690    -0.5241060228
    2      C       0.9833959711     1.8140139600    -0.5809651334
    3      C      -0.0312628736     0.4557332261     1.7067790935
    4      C       1.8329740460    -0.7177409151     0.4728481063
    5      H       2.0046179103    -0.1276211508    -1.5427229743
    6      H       3.1797799859     0.7076089863    -0.3897571507
    7      H       2.3241051106    -0.7907078012     1.4372000820
    8      C      -0.2978460263     1.2993449608    -0.5551659875
    9      C      -0.8062079485     0.6372200941     0.5905961240
   10      H       1.3346289094     2.2885548539    -1.4923162125
   11      H      -0.4046508189    -0.1724586806     2.5084941920
   12      H       1.4402070311     2.1921520672     0.3269077917
   13      H       0.7959121403     1.1120592540     1.9322229613
   14      C       0.7865330251    -1.6759099566     0.1340722884
   15      O       0.1995099535    -1.6584150831    -0.9371536744
   16      H       0.5157260784    -2.4151708659     0.9125343931
   17      O      -1.9913849479    -0.0316139091     0.5813082815
   18      C      -2.6502710303    -0.2228910553    -0.6565486520
   19      H      -3.5214130143    -0.8391210306    -0.4329765216
   20      H      -2.9902370603     0.7306518946    -1.0791847410
   21      H      -2.0025370769    -0.7442731374    -1.3673596343
   22      H      -0.8378920887     1.2151998502    -1.4913379416
 ----------------------------------------------------------------
 Molecular Point Group                 C1    NOp =  1
 Largest Abelian Subgroup              C1    NOp =  1
 Nuclear Repulsion Energy =         550.55404669 hartrees
 There are       38 alpha and       38 beta electrons
 Requested basis set is def2-TZVP
 There are 158 shells and 382 basis functions

 Total QAlloc Memory Limit   8000 MB
 Mega-Array Size      3911 MB
 MEM_STATIC part      4000 MB
 A cutoff of  1.0D-08 yielded  10314 shell pairs
 There are     61114 function pairs (     78170 Cartesian)
 Smallest overlap matrix eigenvalue = 6.10E-05

 Q-Chem warning in module stvman/mkSTV.C, line 323:

 Overlap eigenvalue is smaller than square root of threshold
 Use THRESH >= 12 to get rid of this warning


 Scale SEOQF with 1.000000e-01/1.000000e-01/1.000000e-01

 Standard Electronic Orientation quadrupole field applied
 Nucleus-field energy     =     0.0000000071 hartrees
 Guess from superposition of atomic densities
 Warning:  Energy on first SCF cycle will be non-variational
 SAD guess density has 76.000000 electrons

 -----------------------------------------------------------------------
  General SCF calculation program by
  Eric Jon Sundstrom, Paul Horn, Yuezhi Mao, Dmitri Zuev, Alec White,
  David Stuck, Shaama M.S., Shane Yost, Joonho Lee, David Small,
  Daniel Levine, Susi Lehtola, Hugh Burton, Evgeny Epifanovsky,
  Bang C. Huynh
 -----------------------------------------------------------------------
 Exchange:     0.1670 Hartree-Fock + 1.0000 wB97X-V + LR-HF
 Correlation:  1.0000 wB97X-V
 Using Euler-Maclaurin-Lebedev (99,590) quadrature formula
 Nonlocal Correlation:  VV10 with C = 0.0100 and b = 6.00 and scale = 1.00000
 Grid used for NLC:  SG-1 standard quadrature
 using 16 threads for integral computing
 -------------------------------------------------------
 OpenMP Integral computing Module                
 Release: version 1.0, May 2013, Q-Chem Inc. Pittsburgh 
 -------------------------------------------------------
 -------------------------------------------------------
 OpenMP BLAS3 based DFT computing Module                
 Release: version 1.0, May 2013, Q-Chem Inc. Pittsburgh 
 -------------------------------------------------------
 A restricted SCF calculation will be
 performed using DIIS
 SCF converges when DIIS error is below 1.0e-05
 ---------------------------------------
  Cycle       Energy         DIIS error
 ---------------------------------------
    1    -464.9660472208      2.77e-02  
    2    -462.2972107471      2.84e-03  
    3    -462.2780935826      3.45e-03  
    4    -462.4243216410      4.44e-04  
    5    -462.4270688035      1.98e-04  
    6    -462.4277305514      4.83e-05  
    7    -462.4277854091      1.97e-05  
    8    -462.4277979977      7.67e-06  Convergence criterion met
 ---------------------------------------
 SCF time:   CPU 690.26s  wall 44.00s 
 SCF   energy in the final basis set =     -462.4277979977
 Total energy in the final basis set =     -462.4277979977
 
 --------------------------------------------------------------
 
                    Orbital Energies (a.u.)
 --------------------------------------------------------------
 
 Alpha MOs
 -- Occupied --
-19.2353 -19.1862 -10.3408 -10.3328 -10.3086 -10.2937 -10.2854 -10.2807
-10.2765 -10.2735  -1.1937  -1.1546  -0.9585  -0.9078  -0.8796  -0.8098
 -0.7773  -0.7576  -0.6617  -0.6439  -0.6379  -0.6211  -0.5939  -0.5848
 -0.5489  -0.5377  -0.5220  -0.5164  -0.5094  -0.5063  -0.4950  -0.4707
 -0.4551  -0.4305  -0.4179  -0.3524  -0.3212  -0.3160
 -- Virtual --
  0.0126   0.0667   0.1140   0.1241   0.1371   0.1418   0.1573   0.1660
  0.1717   0.1794   0.1908   0.1946   0.1975   0.2083   0.2244   0.2340
  0.2455   0.2614   0.2660   0.2712   0.2877   0.2893   0.3017   0.3048
  0.3184   0.3333   0.3471   0.3551   0.3657   0.3743   0.3865   0.3964
  0.4035   0.4168   0.4395   0.4496   0.4516   0.4680   0.4701   0.4784
  0.4887   0.4954   0.5030   0.5061   0.5105   0.5249   0.5283   0.5351
  0.5467   0.5480   0.5523   0.5622   0.5726   0.5839   0.5883   0.6035
  0.6144   0.6218   0.6299   0.6439   0.6614   0.6667   0.6804   0.6898
  0.7022   0.7220   0.7368   0.7465   0.7592   0.7835   0.7864   0.8035
  0.8117   0.8301   0.8586   0.8850   0.8949   0.9116   0.9316   0.9452
  0.9546   0.9690   0.9780   0.9891   1.0095   1.0241   1.0371   1.0549
  1.0603   1.0861   1.0895   1.1214   1.1314   1.1420   1.1643   1.1694
  1.1798   1.2039   1.2091   1.2225   1.2522   1.2718   1.2784   1.2889
  1.2973   1.3156   1.3420   1.3638   1.3832   1.3943   1.4303   1.4423
  1.4543   1.4663   1.4905   1.5209   1.5567   1.5650   1.5793   1.6017
  1.6136   1.6188   1.6213   1.6427   1.6557   1.6646   1.6714   1.6899
  1.7003   1.7044   1.7227   1.7361   1.7623   1.7672   1.7818   1.7942
  1.8024   1.8290   1.8442   1.8584   1.8689   1.8786   1.9095   1.9192
  1.9237   1.9591   1.9844   2.0109   2.0188   2.0276   2.0532   2.0642
  2.0717   2.1090   2.1240   2.1299   2.1535   2.1730   2.1871   2.2021
  2.2144   2.2538   2.2570   2.2754   2.3057   2.3357   2.3568   2.3689
  2.3786   2.3938   2.4240   2.4333   2.4364   2.4488   2.4765   2.5102
  2.5225   2.5249   2.5472   2.5528   2.5710   2.5822   2.6063   2.6206
  2.6371   2.6441   2.6593   2.6795   2.6902   2.7050   2.7122   2.7177
  2.7296   2.7458   2.7583   2.7756   2.7933   2.8026   2.8201   2.8359
  2.8409   2.8561   2.8880   2.8981   2.9047   2.9338   2.9393   2.9566
  2.9683   2.9764   2.9931   3.0161   3.0406   3.0512   3.0642   3.0824
  3.1179   3.1313   3.1518   3.1558   3.1627   3.1958   3.2010   3.2111
  3.2135   3.2322   3.2405   3.2678   3.2695   3.2816   3.3126   3.3229
  3.3348   3.3419   3.3507   3.3790   3.3832   3.4001   3.4101   3.4172
  3.4214   3.4471   3.4604   3.4639   3.4712   3.4803   3.4967   3.5005
  3.5118   3.5499   3.5530   3.5706   3.6093   3.6175   3.6221   3.6357
  3.6531   3.6617   3.6787   3.6860   3.7113   3.7247   3.7375   3.7716
  3.7871   3.7922   3.8061   3.8318   3.8412   3.8929   3.9180   3.9370
  3.9811   4.0250   4.0568   4.0996   4.1490   4.1508   4.1861   4.2333
  4.2355   4.2628   4.2789   4.2813   4.2822   4.3478   4.3644   4.3751
  4.4367   4.4388   4.4446   4.4764   4.5262   4.5677   4.6158   4.6322
  4.6838   4.6959   4.7299   4.8192   4.8733   4.8934   4.9388   4.9728
  4.9914   5.0256   5.0298   5.0595   5.1634   5.2512   5.3301   5.3341
  5.4785   5.5816   5.6740   5.7917   5.9010   6.0314   6.0455   6.1957
  6.4181   6.4396   6.5309   6.5437   6.5806   6.6451   6.7807   6.9027
  6.9658   7.0249   7.1147   7.2111   7.2800   7.4985  22.4326  22.4591
 22.4854  22.5671  22.7880  22.8116  22.9819  23.1626  44.0122  44.3455
 --------------------------------------------------------------
 
          Ground-State Mulliken Net Atomic Charges

     Atom                 Charge (a.u.)
  ----------------------------------------
      1 C                    -0.250547
      2 C                    -0.295430
      3 C                    -0.365763
      4 C                    -0.144539
      5 H                     0.164694
      6 H                     0.148293
      7 H                     0.138968
      8 C                    -0.151925
      9 C                     0.248526
     10 H                     0.148097
     11 H                     0.146183
     12 H                     0.151804
     13 H                     0.146729
     14 C                     0.134615
     15 O                    -0.356025
     16 H                     0.078379
     17 O                    -0.249380
     18 C                    -0.236487
     19 H                     0.131611
     20 H                     0.117048
     21 H                     0.156958
     22 H                     0.138190
  ----------------------------------------
  Sum of atomic charges =     0.000000

 -----------------------------------------------------------------
                    Cartesian Multipole Moments
 -----------------------------------------------------------------
    Charge (ESU x 10^10)
                 0.0000
    Dipole Moment (Debye)
         X       1.2581      Y       1.6986      Z       0.5096
       Tot       2.1743
    Quadrupole Moments (Debye-Ang)
        XX     -56.6277     XY       2.9679     YY     -63.2569
        XZ       4.3380     YZ      -5.0977     ZZ     -59.7840
    Octopole Moments (Debye-Ang^2)
       XXX     -13.8815    XXY       0.9402    XYY       2.4096
       YYY      -7.4553    XXZ      -8.5505    XYZ      -0.5400
       YYZ       4.9503    XZZ       1.0668    YZZ       1.5872
       ZZZ      -0.2954
    Hexadecapole Moments (Debye-Ang^3)
      XXXX    -925.7096   XXXY      34.0317   XXYY    -243.5898
      XYYY      11.1005   YYYY    -550.1642   XXXZ      20.6303
      XXYZ      -1.5858   XYYZ       1.3904   YYYZ     -12.4640
      XXZZ    -217.2047   XYZZ       5.1160   YYZZ    -149.6697
      XZZZ      -0.8342   YZZZ      -9.2539   ZZZZ    -345.5989
 -----------------------------------------------------------------
 Total job time:  44.18s(wall), 695.83s(cpu) 
 Tue Jun 21 14:56:19 2022

        *************************************************************
        *                                                           *
        *  Thank you very much for using Q-Chem.  Have a nice day.  *
        *                                                           *
        *************************************************************


remove work dirs /tmp/qchem2917286.0 -- /tmp/qchem2917286.-1
rm -rf /tmp/qchem2917286
