You are running Q-Chem version: 5.4.1

#
# job setting
#
local host:  node06.cluster
current dir: /home/rpaton/opt
input file:  /home/rpaton/opt/DATS_14_exo_iii_TZVP.qcin
output file: 
nprocs     : 0
nthreads   : 16
#
# qchem installation setting
#
QC:          /opt/apps/qchem
QCAUX:       /opt/apps/qchem/qcaux
QCPROG:      /opt/apps/qchem/exe/qcprog.exe_s
QCPROG_S:    /opt/apps/qchem/exe/qcprog.exe_s
PARALLEL:    -DSERIAL
QCMPI:       seq
#
# qchem directory setting
#
qcrun:       qchem3813507
QCSCRATCH:   /tmp
QCLOCALSCR:  
QCTMPDIR:    /tmp
QCFILEPREF:  /tmp/qchem3813507
QCSAVEDIR:   
workdirs:    /tmp/qchem3813507
workdir0:    /tmp/qchem3813507
partmpdirs =  
#
# parallel setting
#
QCRSH:           ssh
QCMPI:           seq
QCMPIRUN:        
QCMACHINEFILE:   /tmp/qchem3813507/hostfile

#
# env setting
#
exported envs:   QC QCAUX QCSCRATCH QCRUNNAME QCFILEPREF QCPROG QCPROG_S GUIFILE

Running Job 1 of 1 /home/rpaton/opt/DATS_14_exo_iii_TZVP.qcin
qchem /home/rpaton/opt/DATS_14_exo_iii_TZVP.qcin_3813507.0 /tmp/qchem3813507/ 0
/opt/apps/qchem/exe/qcprog.exe_s /home/rpaton/opt/DATS_14_exo_iii_TZVP.qcin_3813507.0 /tmp/qchem3813507/
                  Welcome to Q-Chem
     A Quantum Leap Into The Future Of Chemistry


 Q-Chem 5.4, Q-Chem, Inc., Pleasanton, CA (2021)

 E. Epifanovsky,  A. T. B. Gilbert,  Xintian Feng,  Joonho Lee,  Yuezhi Mao,  
 N. Mardirossian,  P. Pokhilko,  A. White,  M. Wormit,  M. P. Coons,  
 A. L. Dempwolff,  Zhengting Gan,  D. Hait,  P. R. Horn,  L. D. Jacobson,  
 I. Kaliman,  J. Kussmann,  A. W. Lange,  Ka Un Lao,  D. S. Levine,  Jie Liu,  
 S. C. McKenzie,  A. F. Morrison,  K. Nanda,  F. Plasser,  D. R. Rehn,  
 M. L. Vidal,  Zhi-Qiang You,  Ying Zhu,  B. Alam,  B. Albrecht,  
 A. Aldossary,  E. Alguire,  J. H. Andersen,  D. Barton,  K. Begam,  A. Behn,  
 Y. A. Bernard,  E. J. Berquist,  H. Burton,  A. Carreras,  K. Carter-Fenk,  
 R. Chakraborty,  A. D. Chien,  K. D. Closser,  V. Cofer-Shabica,  
 S. Dasgupta,  Jia Deng,  M. de Wergifosse,  M. Diedenhofen,  Hainam Do,  
 S. Ehlert,  Po-Tung Fang,  S. Fatehi,  Qingguo Feng,  T. Friedhoff,  
 J. Gayvert,  Qinghui Ge,  G. Gidofalvi,  M. Goldey,  J. Gomes,  
 C. Gonzalez-Espinoza,  S. Gulania,  A. Gunina,  M. W. D. Hanson-Heine,  
 P. H. P. Harbach,  A. W. Hauser,  M. F. Herbst,  M. Hernandez Vera,  
 M. Hodecker,  Z. C. Holden,  S. Houck,  Xunkun Huang,  Kerwin Hui,  
 B. C. Huynh,  M. Ivanov,  Hyunjun Ji,  Hanjie Jiang,  B. Kaduk,  S. Kaehler,  
 K. Khistyaev,  Jaehoon Kim,  P. Klunzinger,  Z. Koczor-Benda,  
 Joong Hoon Koh,  D. Kosenkov,  L. Koulias,  T. Kowalczyk,  C. M. Krauter,  
 K. Kue,  A. Kunitsa,  T. Kus,  A. Landau,  K. V. Lawler,  D. Lefrancois,  
 S. Lehtola,  Rain Li,  Yi-Pei Li,  Jiashu Liang,  M. Liebenthal,  
 Hung-Hsuan Lin,  You-Sheng Lin,  Fenglai Liu,  Kuan-Yu Liu,  
 M. Loipersberger,  A. Luenser,  A. Manjanath,  P. Manohar,  E. Mansoor,  
 S. F. Manzer,  Shan-Ping Mao,  A. V. Marenich,  T. Markovich,  S. Mason,  
 S. A. Maurer,  P. F. McLaughlin,  M. F. S. J. Menger,  J.-M. Mewes,  
 S. A. Mewes,  P. Morgante,  J. W. Mullinax,  K. J. Oosterbaan,  G. Paran,  
 Alexander C. Paul,  Suranjan K. Paul,  F. Pavosevic,  Zheng Pei,  S. Prager,  
 E. I. Proynov,  E. Ramos,  B. Rana,  A. E. Rask,  A. Rettig,  R. M. Richard,  
 F. Rob,  E. Rossomme,  T. Scheele,  M. Scheurer,  M. Schneider,  
 N. Sergueev,  S. M. Sharada,  W. Skomorowski,  D. W. Small,  C. J. Stein,  
 Yu-Chuan Su,  E. J. Sundstrom,  Zhen Tao,  J. Thirman,  T. Tsuchimochi,  
 N. M. Tubman,  S. P. Veccham,  O. Vydrov,  J. Wenzel,  J. Witte,  A. Yamada,  
 Kun Yao,  S. Yeganeh,  S. R. Yost,  A. Zech,  Igor Ying Zhang,  Xing Zhang,  
 Yu Zhang,  D. Zuev,  A. Aspuru-Guzik,  A. T. Bell,  N. A. Besley,  
 K. B. Bravaya,  B. R. Brooks,  D. Casanova,  Jeng-Da Chai,  S. Coriani,  
 C. J. Cramer,  A. E. DePrince, III,  R. A. DiStasio Jr.,  A. Dreuw,  
 B. D. Dunietz,  T. R. Furlani,  W. A. Goddard III,  S. Grimme,  
 S. Hammes-Schiffer,  T. Head-Gordon,  W. J. Hehre,  Chao-Ping Hsu,  
 T.-C. Jagau,  Yousung Jung,  A. Klamt,  Jing Kong,  D. S. Lambrecht,  
 WanZhen Liang,  N. J. Mayhall,  C. W. McCurdy,  J. B. Neaton,  
 C. Ochsenfeld,  J. A. Parkhill,  R. Peverati,  V. A. Rassolov,  Yihan Shao,  
 L. V. Slipchenko,  T. Stauch,  R. P. Steele,  J. E. Subotnik,  
 A. J. W. Thom,  A. Tkatchenko,  D. G. Truhlar,  T. Van Voorhis,  
 T. A. Wesolowski,  K. B. Whaley,  H. L. Woodcock III,  P. M. Zimmerman,  
 S. Faraji,  P. M. W. Gill,  M. Head-Gordon,  J. M. Herbert,  A. I. Krylov

 Additional authors for Version 5.4.1: 
 S. Kotaru,  Shaozhi Li,  Xiangyuan Li,  F. Matz,  A. Molle,  Haisheng Ren,  
 Yingli Su,  Hung-Yi Tsai,  C. Utku,  Fang Wang

 Contributors to earlier versions of Q-Chem not listed above: 
 R. D. Adamson,  B. Austin,  R. Baer,  J. Baker,  G. J. O. Beran,  
 K. Brandhorst,  S. T. Brown,  E. F. C. Byrd,  A. K. Chakraborty,  
 G. K. L. Chan,  Chun-Min Chang,  Yunqing Chen,  C.-L. Cheng,  
 Siu Hung Chien,  D. M. Chipman,  D. L. Crittenden,  H. Dachsel,  
 R. J. Doerksen,  A. D. Dutoi,  R. G. Edgar,  J. Fosso-Tande,  
 L. Fusti-Molnar,  D. Ghosh,  A. Ghysels,  A. Golubeva-Zadorozhnaya,  
 J. Gonthier,  M. S. Gordon,  S. R. Gwaltney,  G. Hawkins,  J. E. Herr,  
 A. Heyden,  S. Hirata,  E. G. Hohenstein,  G. Kedziora,  F. J. Keil,  
 C. Kelley,  Jihan Kim,  R. A. King,  R. Z. Khaliullin,  P. P. Korambath,  
 W. Kurlancheek,  A. Laurent,  A. M. Lee,  M. S. Lee,  S. V. Levchenko,  
 Ching Yeh Lin,  D. Liotard,  E. Livshits,  R. C. Lochan,  I. Lotan,  
 L. A. Martinez-Martinez,  P. E. Maslen,  N. Nair,  D. P. O'Neill,  
 D. Neuhauser,  E. Neuscamman,  C. M. Oana,  R. Olivares-Amaya,  R. Olson,  
 T. M. Perrine,  B. Peters,  P. A. Pieniazek,  A. Prociuk,  Y. M. Rhee,  
 J. Ritchie,  M. A. Rohrdanz,  E. Rosta,  N. J. Russ,  H. F. Schaefer III,  
 M. W. Schmidt,  N. E. Schultz,  S. Sharma,  N. Shenvi,  C. D. Sherrill,  
 A. C. Simmonett,  A. Sodt,  T. Stein,  D. Stuck,  K. S. Thanthiriwatte,  
 V. Vanovschi,  L. Vogt,  Tao Wang,  A. Warshel,  M. A. Watson,  
 C. F. Williams,  Q. Wu,  X. Xu,  Jun Yang,  W. Zhang,  Yan Zhao

 Please cite Q-Chem as follows:
 Y. Shao et al., Mol. Phys. 113, 184-215 (2015)
 DOI: 10.1080/00268976.2014.952696

 Q-Chem 5.4.1 for Intel X86 EM64T Linux

 Parts of Q-Chem use Armadillo 9.800.1 (Horizon Scraper).
 http://arma.sourceforge.net/

 Q-Chem begins on Tue Jun 21 14:55:34 2022  

 Host: 
0

     Scratch files written to /tmp/qchem3813507//
 Aug1521 |scratch|qcdevops|jenkins|workspace|build_RNUM 8286   
 Processing $rem in /opt/apps/qchem/config/preferences:
 Processing $rem in /home/rpaton/.qchemrc:

 Checking the input file for inconsistencies... 	...done.

--------------------------------------------------------------
User input:
--------------------------------------------------------------
$molecule
0 1
C  -0.812507  -1.490551  -0.535187
C  0.688053  -1.221747  0.98202
C  -0.500346  1.354575  0.724203
C  -1.554528  -0.340578  -0.742816
H  -0.087138  -1.810566  -1.274961
H  -1.259606  -2.296474  0.043839
H  -1.340707  0.33618  -1.562318
C  1.399987  -0.1409  0.49956
C  0.792672  1.136092  0.351506
H  1.189717  -2.183685  1.012368
H  -1.009316  2.276276  0.461563
H  1.285604  1.885185  -0.259064
H  -0.083525  -1.062257  1.722528
H  -0.990233  0.754694  1.481016
O  2.610277  -0.437065  -0.046583
C  3.313052  0.57574  -0.734758
H  3.50987  1.437928  -0.087244
H  4.260212  0.128715  -1.035919
H  2.770711  0.908983  -1.627584
C  -2.832378  -0.16354  -0.058167
O  -3.631955  0.725048  -0.26802
H  -3.036193  -0.933396  0.724431
$end

$rem
METHOD wB97X-V
BASIS def2-TZVP
XC_GRID 000099000590
MEM_TOTAL          8000
MEM_STATIC         4000
$end

--------------------------------------------------------------
 ----------------------------------------------------------------
             Standard Nuclear Orientation (Angstroms)
    I     Atom           X                Y                Z
 ----------------------------------------------------------------
    1      C       0.8125069261     1.4905509406    -0.5351870216
    2      C      -0.6880530146     1.2217468935     0.9820200287
    3      C       0.5003461243    -1.3545750454     0.7242030591
    4      C       1.5545279854     0.3405779775    -0.7428160142
    5      H       0.0871378864     1.8105658807    -1.2749610086
    6      H       1.2596058971     2.2964739806     0.0438389451
    7      H       1.3407070001    -0.3361800552    -1.5623179910
    8      C      -1.3999869672     0.1408998409     0.4995600765
    9      C      -0.7926718989    -1.1360921283     0.3515060911
   10      H      -1.1897170684     2.1836848658     1.0123680190
   11      H       1.0093161691    -2.2762760231     0.4615630675
   12      H      -1.2856038741    -1.8851851717    -0.2590638758
   13      H       0.0835250159     1.0622569560     1.7225280103
   14      H       0.9902331122    -0.7546939985     1.4810160297
   15      O      -2.6102769999     0.4370647584    -0.0465828958
   16      C      -3.3130519623    -0.5757402989    -0.7347578499
   17      H      -3.5098698945    -1.4379282938    -0.0872438225
   18      H      -4.2602119964    -0.1287153603    -1.0359188337
   19      H      -2.7707109692    -0.9089832906    -1.6275838573
   20      C       2.8323780153     0.1635400674    -0.0581670468
   21      O       3.6319550597    -0.7250478924    -0.2680200476
   22      H       3.0361929943     0.9333960987     0.7244309279
 ----------------------------------------------------------------
 Molecular Point Group                 C1    NOp =  1
 Largest Abelian Subgroup              C1    NOp =  1
 Nuclear Repulsion Energy =         518.69361150 hartrees
 There are       38 alpha and       38 beta electrons
 Requested basis set is def2-TZVP
 There are 158 shells and 382 basis functions

 Total QAlloc Memory Limit   8000 MB
 Mega-Array Size      3911 MB
 MEM_STATIC part      4000 MB
 A cutoff of  1.0D-08 yielded   9709 shell pairs
 There are     56105 function pairs (     71254 Cartesian)
 Smallest overlap matrix eigenvalue = 5.96E-05

 Q-Chem warning in module stvman/mkSTV.C, line 323:

 Overlap eigenvalue is smaller than square root of threshold
 Use THRESH >= 12 to get rid of this warning


 Scale SEOQF with 1.000000e-01/1.000000e-01/1.000000e-01

 Standard Electronic Orientation quadrupole field applied
 Nucleus-field energy     =     0.0000000149 hartrees
 Guess from superposition of atomic densities
 Warning:  Energy on first SCF cycle will be non-variational
 SAD guess density has 76.000000 electrons

 -----------------------------------------------------------------------
  General SCF calculation program by
  Eric Jon Sundstrom, Paul Horn, Yuezhi Mao, Dmitri Zuev, Alec White,
  David Stuck, Shaama M.S., Shane Yost, Joonho Lee, David Small,
  Daniel Levine, Susi Lehtola, Hugh Burton, Evgeny Epifanovsky,
  Bang C. Huynh
 -----------------------------------------------------------------------
 Exchange:     0.1670 Hartree-Fock + 1.0000 wB97X-V + LR-HF
 Correlation:  1.0000 wB97X-V
 Using Euler-Maclaurin-Lebedev (99,590) quadrature formula
 Nonlocal Correlation:  VV10 with C = 0.0100 and b = 6.00 and scale = 1.00000
 Grid used for NLC:  SG-1 standard quadrature
 using 16 threads for integral computing
 -------------------------------------------------------
 OpenMP Integral computing Module                
 Release: version 1.0, May 2013, Q-Chem Inc. Pittsburgh 
 -------------------------------------------------------
 -------------------------------------------------------
 OpenMP BLAS3 based DFT computing Module                
 Release: version 1.0, May 2013, Q-Chem Inc. Pittsburgh 
 -------------------------------------------------------
 A restricted SCF calculation will be
 performed using DIIS
 SCF converges when DIIS error is below 1.0e-05
 ---------------------------------------
  Cycle       Energy         DIIS error
 ---------------------------------------
    1    -464.9224241617      2.76e-02  
    2    -462.2837878241      2.90e-03  
    3    -462.2633468186      3.57e-03  
    4    -462.4206767179      4.36e-04  
    5    -462.4235109067      2.04e-04  
    6    -462.4242605743      5.31e-05  
    7    -462.4243398156      2.04e-05  
    8    -462.4243598464      9.45e-06  Convergence criterion met
 ---------------------------------------
 SCF time:   CPU 589.42s  wall 37.00s 
 SCF   energy in the final basis set =     -462.4243598464
 Total energy in the final basis set =     -462.4243598464
 
 --------------------------------------------------------------
 
                    Orbital Energies (a.u.)
 --------------------------------------------------------------
 
 Alpha MOs
 -- Occupied --
-19.2578 -19.1834 -10.3488 -10.3408 -10.3338 -10.2976 -10.2959 -10.2850
-10.2813 -10.2674  -1.2153  -1.1532  -0.9673  -0.9140  -0.8920  -0.8276
 -0.7714  -0.7591  -0.6819  -0.6681  -0.6474  -0.6142  -0.6007  -0.5725
 -0.5710  -0.5471  -0.5338  -0.5225  -0.5107  -0.5040  -0.5006  -0.4803
 -0.4794  -0.4481  -0.4213  -0.3579  -0.3461  -0.2980
 -- Virtual --
  0.0169   0.0547   0.1052   0.1159   0.1201   0.1392   0.1466   0.1572
  0.1647   0.1779   0.1805   0.1879   0.2001   0.2033   0.2042   0.2155
  0.2391   0.2547   0.2644   0.2727   0.2785   0.2835   0.2902   0.2997
  0.3165   0.3307   0.3407   0.3514   0.3689   0.3726   0.3828   0.3863
  0.4015   0.4099   0.4166   0.4205   0.4415   0.4451   0.4639   0.4673
  0.4737   0.4856   0.4910   0.4999   0.5074   0.5142   0.5280   0.5290
  0.5316   0.5350   0.5485   0.5552   0.5613   0.5721   0.5769   0.5922
  0.6049   0.6118   0.6250   0.6260   0.6474   0.6547   0.6718   0.6743
  0.6911   0.7117   0.7249   0.7257   0.7398   0.7598   0.7671   0.7759
  0.7910   0.8114   0.8296   0.8338   0.8577   0.8809   0.8903   0.9115
  0.9302   0.9561   0.9734   0.9775   1.0007   1.0093   1.0354   1.0403
  1.0578   1.0692   1.0773   1.0931   1.1028   1.1295   1.1414   1.1474
  1.1546   1.1763   1.1806   1.2043   1.2473   1.2564   1.2684   1.2762
  1.2848   1.3137   1.3281   1.3451   1.3701   1.3821   1.4091   1.4347
  1.4432   1.4638   1.4774   1.5177   1.5371   1.5578   1.5658   1.5744
  1.5916   1.5979   1.6064   1.6215   1.6402   1.6451   1.6619   1.6645
  1.6773   1.6915   1.7011   1.7163   1.7274   1.7469   1.7569   1.7672
  1.7709   1.7817   1.8025   1.8170   1.8573   1.8745   1.8831   1.8978
  1.9178   1.9356   1.9477   1.9711   1.9949   2.0137   2.0371   2.0409
  2.0575   2.0869   2.0979   2.1172   2.1303   2.1412   2.1676   2.1851
  2.2023   2.2302   2.2407   2.2534   2.2938   2.3291   2.3358   2.3578
  2.3622   2.3756   2.3781   2.4025   2.4108   2.4367   2.4572   2.4681
  2.4982   2.4986   2.5202   2.5400   2.5461   2.5566   2.5632   2.5967
  2.6012   2.6285   2.6384   2.6508   2.6605   2.6696   2.6906   2.6974
  2.7253   2.7433   2.7579   2.7649   2.7753   2.7847   2.7970   2.8127
  2.8339   2.8396   2.8569   2.8772   2.8799   2.9106   2.9184   2.9364
  2.9459   2.9722   2.9902   3.0116   3.0226   3.0463   3.0520   3.0690
  3.1026   3.1070   3.1287   3.1382   3.1514   3.1614   3.1693   3.2002
  3.2092   3.2190   3.2274   3.2512   3.2623   3.2807   3.2838   3.3054
  3.3086   3.3128   3.3324   3.3389   3.3473   3.3734   3.3861   3.3990
  3.4177   3.4218   3.4372   3.4508   3.4531   3.4683   3.4706   3.4842
  3.5054   3.5259   3.5340   3.5540   3.5611   3.5769   3.5785   3.6100
  3.6231   3.6302   3.6499   3.6538   3.6783   3.6850   3.7120   3.7246
  3.7360   3.7812   3.8225   3.8239   3.8573   3.8783   3.8842   3.9299
  3.9652   4.0068   4.0318   4.0668   4.1398   4.1506   4.1987   4.2173
  4.2358   4.2431   4.2514   4.2798   4.2969   4.3478   4.3543   4.3772
  4.3843   4.4150   4.4320   4.4615   4.4849   4.5651   4.6003   4.6356
  4.6515   4.6880   4.7261   4.7885   4.8081   4.8771   4.8971   4.9446
  4.9643   4.9816   5.0432   5.0717   5.1687   5.2552   5.3171   5.3364
  5.4478   5.5741   5.6854   5.7898   5.8603   6.0052   6.0190   6.2210
  6.3886   6.4653   6.4815   6.5612   6.5673   6.5986   6.7456   6.8676
  6.9318   6.9660   7.0817   7.1860   7.2546   7.4660  22.3454  22.4409
 22.4635  22.5897  22.7374  22.8089  23.0178  23.1248  43.9409  44.2766
 --------------------------------------------------------------
 
          Ground-State Mulliken Net Atomic Charges

     Atom                 Charge (a.u.)
  ----------------------------------------
      1 C                    -0.269329
      2 C                    -0.335244
      3 C                    -0.274775
      4 C                    -0.125807
      5 H                     0.149465
      6 H                     0.161049
      7 H                     0.127595
      8 C                     0.284839
      9 C                    -0.197097
     10 H                     0.148950
     11 H                     0.164039
     12 H                     0.133697
     13 H                     0.156161
     14 H                     0.143446
     15 O                    -0.239485
     16 C                    -0.234707
     17 H                     0.132376
     18 H                     0.143029
     19 H                     0.126479
     20 C                     0.060683
     21 O                    -0.310727
     22 H                     0.055364
  ----------------------------------------
  Sum of atomic charges =     0.000000

 -----------------------------------------------------------------
                    Cartesian Multipole Moments
 -----------------------------------------------------------------
    Charge (ESU x 10^10)
                 0.0000
    Dipole Moment (Debye)
         X      -4.4512      Y       0.7122      Z       0.0161
       Tot       4.5079
    Quadrupole Moments (Debye-Ang)
        XX     -74.3926     XY       8.8795     YY     -58.5884
        XZ       6.8712     YZ       1.7378     ZZ     -60.7656
    Octopole Moments (Debye-Ang^2)
       XXX     -97.7213    XXY      11.4270    XYY      -4.1067
       YYY       0.9800    XXZ      -1.9108    XYZ      -2.1422
       YYZ      -0.2064    XZZ      -0.8464    YZZ       0.8478
       ZZZ      -4.5375
    Hexadecapole Moments (Debye-Ang^3)
      XXXX   -1956.5525   XXXY     104.6449   XXYY    -376.2999
      XYYY     -14.0019   YYYY    -416.2018   XXXZ      67.9709
      XXYZ       0.6434   XYYZ       7.1986   YYYZ      10.6091
      XXZZ    -329.9609   XYZZ      -5.6464   YYZZ    -116.0843
      XZZZ      13.2740   YZZZ       7.1966   ZZZZ    -237.2526
 -----------------------------------------------------------------
 Total job time:  37.50s(wall), 593.38s(cpu) 
 Tue Jun 21 14:56:11 2022

        *************************************************************
        *                                                           *
        *  Thank you very much for using Q-Chem.  Have a nice day.  *
        *                                                           *
        *************************************************************


remove work dirs /tmp/qchem3813507.0 -- /tmp/qchem3813507.-1
rm -rf /tmp/qchem3813507
