You are running Q-Chem version: 5.4.1

#
# job setting
#
local host:  node04.cluster
current dir: /home/rpaton/opt
input file:  /home/rpaton/opt/DATS_14_endo_ii_TZVP.qcin
output file: 
nprocs     : 0
nthreads   : 16
#
# qchem installation setting
#
QC:          /opt/apps/qchem
QCAUX:       /opt/apps/qchem/qcaux
QCPROG:      /opt/apps/qchem/exe/qcprog.exe_s
QCPROG_S:    /opt/apps/qchem/exe/qcprog.exe_s
PARALLEL:    -DSERIAL
QCMPI:       seq
#
# qchem directory setting
#
qcrun:       qchem3829988
QCSCRATCH:   /tmp
QCLOCALSCR:  
QCTMPDIR:    /tmp
QCFILEPREF:  /tmp/qchem3829988
QCSAVEDIR:   
workdirs:    /tmp/qchem3829988
workdir0:    /tmp/qchem3829988
partmpdirs =  
#
# parallel setting
#
QCRSH:           ssh
QCMPI:           seq
QCMPIRUN:        
QCMACHINEFILE:   /tmp/qchem3829988/hostfile

#
# env setting
#
exported envs:   QC QCAUX QCSCRATCH QCRUNNAME QCFILEPREF QCPROG QCPROG_S GUIFILE

Running Job 1 of 1 /home/rpaton/opt/DATS_14_endo_ii_TZVP.qcin
qchem /home/rpaton/opt/DATS_14_endo_ii_TZVP.qcin_3829988.0 /tmp/qchem3829988/ 0
/opt/apps/qchem/exe/qcprog.exe_s /home/rpaton/opt/DATS_14_endo_ii_TZVP.qcin_3829988.0 /tmp/qchem3829988/
                  Welcome to Q-Chem
     A Quantum Leap Into The Future Of Chemistry


 Q-Chem 5.4, Q-Chem, Inc., Pleasanton, CA (2021)

 E. Epifanovsky,  A. T. B. Gilbert,  Xintian Feng,  Joonho Lee,  Yuezhi Mao,  
 N. Mardirossian,  P. Pokhilko,  A. White,  M. Wormit,  M. P. Coons,  
 A. L. Dempwolff,  Zhengting Gan,  D. Hait,  P. R. Horn,  L. D. Jacobson,  
 I. Kaliman,  J. Kussmann,  A. W. Lange,  Ka Un Lao,  D. S. Levine,  Jie Liu,  
 S. C. McKenzie,  A. F. Morrison,  K. Nanda,  F. Plasser,  D. R. Rehn,  
 M. L. Vidal,  Zhi-Qiang You,  Ying Zhu,  B. Alam,  B. Albrecht,  
 A. Aldossary,  E. Alguire,  J. H. Andersen,  D. Barton,  K. Begam,  A. Behn,  
 Y. A. Bernard,  E. J. Berquist,  H. Burton,  A. Carreras,  K. Carter-Fenk,  
 R. Chakraborty,  A. D. Chien,  K. D. Closser,  V. Cofer-Shabica,  
 S. Dasgupta,  Jia Deng,  M. de Wergifosse,  M. Diedenhofen,  Hainam Do,  
 S. Ehlert,  Po-Tung Fang,  S. Fatehi,  Qingguo Feng,  T. Friedhoff,  
 J. Gayvert,  Qinghui Ge,  G. Gidofalvi,  M. Goldey,  J. Gomes,  
 C. Gonzalez-Espinoza,  S. Gulania,  A. Gunina,  M. W. D. Hanson-Heine,  
 P. H. P. Harbach,  A. W. Hauser,  M. F. Herbst,  M. Hernandez Vera,  
 M. Hodecker,  Z. C. Holden,  S. Houck,  Xunkun Huang,  Kerwin Hui,  
 B. C. Huynh,  M. Ivanov,  Hyunjun Ji,  Hanjie Jiang,  B. Kaduk,  S. Kaehler,  
 K. Khistyaev,  Jaehoon Kim,  P. Klunzinger,  Z. Koczor-Benda,  
 Joong Hoon Koh,  D. Kosenkov,  L. Koulias,  T. Kowalczyk,  C. M. Krauter,  
 K. Kue,  A. Kunitsa,  T. Kus,  A. Landau,  K. V. Lawler,  D. Lefrancois,  
 S. Lehtola,  Rain Li,  Yi-Pei Li,  Jiashu Liang,  M. Liebenthal,  
 Hung-Hsuan Lin,  You-Sheng Lin,  Fenglai Liu,  Kuan-Yu Liu,  
 M. Loipersberger,  A. Luenser,  A. Manjanath,  P. Manohar,  E. Mansoor,  
 S. F. Manzer,  Shan-Ping Mao,  A. V. Marenich,  T. Markovich,  S. Mason,  
 S. A. Maurer,  P. F. McLaughlin,  M. F. S. J. Menger,  J.-M. Mewes,  
 S. A. Mewes,  P. Morgante,  J. W. Mullinax,  K. J. Oosterbaan,  G. Paran,  
 Alexander C. Paul,  Suranjan K. Paul,  F. Pavosevic,  Zheng Pei,  S. Prager,  
 E. I. Proynov,  E. Ramos,  B. Rana,  A. E. Rask,  A. Rettig,  R. M. Richard,  
 F. Rob,  E. Rossomme,  T. Scheele,  M. Scheurer,  M. Schneider,  
 N. Sergueev,  S. M. Sharada,  W. Skomorowski,  D. W. Small,  C. J. Stein,  
 Yu-Chuan Su,  E. J. Sundstrom,  Zhen Tao,  J. Thirman,  T. Tsuchimochi,  
 N. M. Tubman,  S. P. Veccham,  O. Vydrov,  J. Wenzel,  J. Witte,  A. Yamada,  
 Kun Yao,  S. Yeganeh,  S. R. Yost,  A. Zech,  Igor Ying Zhang,  Xing Zhang,  
 Yu Zhang,  D. Zuev,  A. Aspuru-Guzik,  A. T. Bell,  N. A. Besley,  
 K. B. Bravaya,  B. R. Brooks,  D. Casanova,  Jeng-Da Chai,  S. Coriani,  
 C. J. Cramer,  A. E. DePrince, III,  R. A. DiStasio Jr.,  A. Dreuw,  
 B. D. Dunietz,  T. R. Furlani,  W. A. Goddard III,  S. Grimme,  
 S. Hammes-Schiffer,  T. Head-Gordon,  W. J. Hehre,  Chao-Ping Hsu,  
 T.-C. Jagau,  Yousung Jung,  A. Klamt,  Jing Kong,  D. S. Lambrecht,  
 WanZhen Liang,  N. J. Mayhall,  C. W. McCurdy,  J. B. Neaton,  
 C. Ochsenfeld,  J. A. Parkhill,  R. Peverati,  V. A. Rassolov,  Yihan Shao,  
 L. V. Slipchenko,  T. Stauch,  R. P. Steele,  J. E. Subotnik,  
 A. J. W. Thom,  A. Tkatchenko,  D. G. Truhlar,  T. Van Voorhis,  
 T. A. Wesolowski,  K. B. Whaley,  H. L. Woodcock III,  P. M. Zimmerman,  
 S. Faraji,  P. M. W. Gill,  M. Head-Gordon,  J. M. Herbert,  A. I. Krylov

 Additional authors for Version 5.4.1: 
 S. Kotaru,  Shaozhi Li,  Xiangyuan Li,  F. Matz,  A. Molle,  Haisheng Ren,  
 Yingli Su,  Hung-Yi Tsai,  C. Utku,  Fang Wang

 Contributors to earlier versions of Q-Chem not listed above: 
 R. D. Adamson,  B. Austin,  R. Baer,  J. Baker,  G. J. O. Beran,  
 K. Brandhorst,  S. T. Brown,  E. F. C. Byrd,  A. K. Chakraborty,  
 G. K. L. Chan,  Chun-Min Chang,  Yunqing Chen,  C.-L. Cheng,  
 Siu Hung Chien,  D. M. Chipman,  D. L. Crittenden,  H. Dachsel,  
 R. J. Doerksen,  A. D. Dutoi,  R. G. Edgar,  J. Fosso-Tande,  
 L. Fusti-Molnar,  D. Ghosh,  A. Ghysels,  A. Golubeva-Zadorozhnaya,  
 J. Gonthier,  M. S. Gordon,  S. R. Gwaltney,  G. Hawkins,  J. E. Herr,  
 A. Heyden,  S. Hirata,  E. G. Hohenstein,  G. Kedziora,  F. J. Keil,  
 C. Kelley,  Jihan Kim,  R. A. King,  R. Z. Khaliullin,  P. P. Korambath,  
 W. Kurlancheek,  A. Laurent,  A. M. Lee,  M. S. Lee,  S. V. Levchenko,  
 Ching Yeh Lin,  D. Liotard,  E. Livshits,  R. C. Lochan,  I. Lotan,  
 L. A. Martinez-Martinez,  P. E. Maslen,  N. Nair,  D. P. O'Neill,  
 D. Neuhauser,  E. Neuscamman,  C. M. Oana,  R. Olivares-Amaya,  R. Olson,  
 T. M. Perrine,  B. Peters,  P. A. Pieniazek,  A. Prociuk,  Y. M. Rhee,  
 J. Ritchie,  M. A. Rohrdanz,  E. Rosta,  N. J. Russ,  H. F. Schaefer III,  
 M. W. Schmidt,  N. E. Schultz,  S. Sharma,  N. Shenvi,  C. D. Sherrill,  
 A. C. Simmonett,  A. Sodt,  T. Stein,  D. Stuck,  K. S. Thanthiriwatte,  
 V. Vanovschi,  L. Vogt,  Tao Wang,  A. Warshel,  M. A. Watson,  
 C. F. Williams,  Q. Wu,  X. Xu,  Jun Yang,  W. Zhang,  Yan Zhao

 Please cite Q-Chem as follows:
 Y. Shao et al., Mol. Phys. 113, 184-215 (2015)
 DOI: 10.1080/00268976.2014.952696

 Q-Chem 5.4.1 for Intel X86 EM64T Linux

 Parts of Q-Chem use Armadillo 9.800.1 (Horizon Scraper).
 http://arma.sourceforge.net/

 Q-Chem begins on Tue Jun 21 14:55:34 2022  

 Host: 
0

     Scratch files written to /tmp/qchem3829988//
 Aug1521 |scratch|qcdevops|jenkins|workspace|build_RNUM 8286   
 Processing $rem in /opt/apps/qchem/config/preferences:
 Processing $rem in /home/rpaton/.qchemrc:

 Checking the input file for inconsistencies... 	...done.

--------------------------------------------------------------
User input:
--------------------------------------------------------------
$molecule
0 1
C  -0.892267  -1.197547  1.224135
C  0.539899  0.151552  1.457718
C  -1.270803  1.942485  0.091217
C  -1.932399  -0.759725  0.400445
H  -0.224527  -1.926373  0.775528
H  -1.091801  -1.353571  2.281513
H  -2.883796  -0.409916  0.78487
C  0.839562  0.722757  0.217597
C  -0.060126  1.631199  -0.420681
H  1.300652  -0.439746  1.956554
H  -1.976553  2.534195  -0.482423
H  0.204994  1.920022  -1.433294
H  -0.031637  0.779796  2.130228
H  -1.553307  1.715907  1.111349
O  1.911474  0.412518  -0.529557
C  2.672754  -0.71878  -0.159097
H  2.034907  -1.607039  -0.122071
H  3.424132  -0.841909  -0.938084
H  3.171291  -0.568521  0.806058
C  -1.673717  -0.790886  -1.010963
O  -0.562334  -1.058664  -1.468103
H  -2.504908  -0.520009  -1.691167
$end

$rem
METHOD wB97X-V
BASIS def2-TZVP
XC_GRID 000099000590
MEM_TOTAL          8000
MEM_STATIC         4000
$end

--------------------------------------------------------------
 ----------------------------------------------------------------
             Standard Nuclear Orientation (Angstroms)
    I     Atom           X                Y                Z
 ----------------------------------------------------------------
    1      C      -0.8922666417     1.1975474037    -1.2241346045
    2      C       0.5398993488    -0.1515515551    -1.4577179008
    3      C      -1.2708028424    -1.9424849636    -0.0912176896
    4      C      -1.9323987406     0.7597251561    -0.4004448610
    5      H      -0.2245266709     1.9263732374    -0.7755272909
    6      H      -1.0918005251     1.3535717605    -2.2815125739
    7      H      -2.8837957086     0.4099163083    -0.7848700788
    8      C       0.8395622021    -0.7227569753    -0.2175970589
    9      C      -0.0601258890    -1.6311991647     0.4206805430
   10      H       1.3006524170     0.4397465915    -1.9565536230
   11      H      -1.9765529186    -2.5341951365     0.4824220384
   12      H       0.2049939957    -1.9200225084     1.4332934752
   13      H      -0.0316365955    -0.7797953168    -2.1302281707
   14      H      -1.5533067279    -1.7159066170    -1.1113496443
   15      O       1.9114741304    -0.4125182512     0.5295571585
   16      C       2.6727541987     0.7187798527     0.1590976160
   17      H       2.0349072253     1.6070388812     0.1220718436
   18      H       3.4241321189     0.8419085744     0.9380847371
   19      H       3.1712912977     0.5685211611    -0.8060573808
   20      C      -1.6737168902     0.7908856800     1.0109631769
   21      O      -0.5623339321     1.0586634996     1.4681033844
   22      H      -2.5049079696     0.5200084748     1.6911669982
 ----------------------------------------------------------------
 Molecular Point Group                 C1    NOp =  1
 Largest Abelian Subgroup              C1    NOp =  1
 Nuclear Repulsion Energy =         549.34722422 hartrees
 There are       38 alpha and       38 beta electrons
 Requested basis set is def2-TZVP
 There are 158 shells and 382 basis functions

 Total QAlloc Memory Limit   8000 MB
 Mega-Array Size      3911 MB
 MEM_STATIC part      4000 MB
 A cutoff of  1.0D-08 yielded  10293 shell pairs
 There are     60937 function pairs (     77882 Cartesian)
 Smallest overlap matrix eigenvalue = 6.09E-05

 Q-Chem warning in module stvman/mkSTV.C, line 323:

 Overlap eigenvalue is smaller than square root of threshold
 Use THRESH >= 12 to get rid of this warning


 Scale SEOQF with 1.000000e-01/1.000000e-01/1.000000e-01

 Standard Electronic Orientation quadrupole field applied
 Nucleus-field energy     =     0.0000000056 hartrees
 Guess from superposition of atomic densities
 Warning:  Energy on first SCF cycle will be non-variational
 SAD guess density has 76.000000 electrons

 -----------------------------------------------------------------------
  General SCF calculation program by
  Eric Jon Sundstrom, Paul Horn, Yuezhi Mao, Dmitri Zuev, Alec White,
  David Stuck, Shaama M.S., Shane Yost, Joonho Lee, David Small,
  Daniel Levine, Susi Lehtola, Hugh Burton, Evgeny Epifanovsky,
  Bang C. Huynh
 -----------------------------------------------------------------------
 Exchange:     0.1670 Hartree-Fock + 1.0000 wB97X-V + LR-HF
 Correlation:  1.0000 wB97X-V
 Using Euler-Maclaurin-Lebedev (99,590) quadrature formula
 Nonlocal Correlation:  VV10 with C = 0.0100 and b = 6.00 and scale = 1.00000
 Grid used for NLC:  SG-1 standard quadrature
 using 16 threads for integral computing
 -------------------------------------------------------
 OpenMP Integral computing Module                
 Release: version 1.0, May 2013, Q-Chem Inc. Pittsburgh 
 -------------------------------------------------------
 -------------------------------------------------------
 OpenMP BLAS3 based DFT computing Module                
 Release: version 1.0, May 2013, Q-Chem Inc. Pittsburgh 
 -------------------------------------------------------
 A restricted SCF calculation will be
 performed using DIIS
 SCF converges when DIIS error is below 1.0e-05
 ---------------------------------------
  Cycle       Energy         DIIS error
 ---------------------------------------
    1    -464.9961478973      2.77e-02  
    2    -462.2844751183      2.94e-03  
    3    -462.2595958352      3.61e-03  
    4    -462.4260574154      4.58e-04  
    5    -462.4289091508      2.20e-04  
    6    -462.4297645178      6.03e-05  
    7    -462.4298654128      2.16e-05  
    8    -462.4298921674      1.08e-05  
    9    -462.4299025610      4.44e-06  Convergence criterion met
 ---------------------------------------
 SCF time:   CPU 740.23s  wall 51.00s 
 SCF   energy in the final basis set =     -462.4299025610
 Total energy in the final basis set =     -462.4299025610
 
 --------------------------------------------------------------
 
                    Orbital Energies (a.u.)
 --------------------------------------------------------------
 
 Alpha MOs
 -- Occupied --
-19.2564 -19.1648 -10.3570 -10.3248 -10.3180 -10.2925 -10.2877 -10.2850
-10.2788 -10.2491  -1.2172  -1.1313  -0.9621  -0.9052  -0.8709  -0.8507
 -0.7639  -0.7480  -0.6710  -0.6528  -0.6248  -0.6210  -0.5976  -0.5944
 -0.5568  -0.5361  -0.5261  -0.5157  -0.5090  -0.4981  -0.4789  -0.4667
 -0.4575  -0.4466  -0.4106  -0.3710  -0.3344  -0.2798
 -- Virtual --
  0.0085   0.0765   0.1103   0.1265   0.1373   0.1487   0.1569   0.1623
  0.1678   0.1718   0.1885   0.1909   0.1996   0.2086   0.2143   0.2454
  0.2525   0.2640   0.2701   0.2831   0.2884   0.2997   0.3023   0.3136
  0.3182   0.3237   0.3369   0.3538   0.3627   0.3725   0.3862   0.4055
  0.4131   0.4196   0.4385   0.4473   0.4550   0.4632   0.4699   0.4795
  0.4887   0.4954   0.4993   0.5083   0.5119   0.5160   0.5228   0.5317
  0.5353   0.5485   0.5498   0.5612   0.5693   0.5769   0.5852   0.5957
  0.5992   0.6245   0.6285   0.6422   0.6516   0.6650   0.6781   0.6892
  0.7042   0.7135   0.7259   0.7392   0.7517   0.7730   0.7933   0.8076
  0.8218   0.8304   0.8477   0.8703   0.8800   0.9167   0.9367   0.9459
  0.9584   0.9726   0.9774   0.9977   1.0151   1.0263   1.0497   1.0585
  1.0802   1.0873   1.0959   1.1162   1.1532   1.1542   1.1656   1.1722
  1.1800   1.1876   1.2158   1.2476   1.2605   1.2657   1.2851   1.2920
  1.2963   1.3267   1.3440   1.3667   1.3791   1.3957   1.4202   1.4568
  1.4597   1.4660   1.5017   1.5237   1.5577   1.5733   1.5828   1.6014
  1.6079   1.6279   1.6371   1.6455   1.6579   1.6628   1.6786   1.6880
  1.7082   1.7163   1.7266   1.7383   1.7558   1.7685   1.7808   1.8049
  1.8100   1.8376   1.8466   1.8674   1.8702   1.8848   1.8903   1.9156
  1.9293   1.9570   1.9786   1.9926   2.0110   2.0230   2.0320   2.0494
  2.0667   2.0900   2.0962   2.1250   2.1409   2.1575   2.1792   2.1906
  2.2179   2.2349   2.2441   2.2628   2.3075   2.3259   2.3419   2.3546
  2.3611   2.3893   2.4183   2.4383   2.4524   2.4625   2.4740   2.4839
  2.5137   2.5230   2.5421   2.5539   2.5755   2.5903   2.6115   2.6299
  2.6382   2.6503   2.6671   2.6798   2.6833   2.6892   2.7064   2.7321
  2.7367   2.7520   2.7662   2.7748   2.7990   2.8029   2.8120   2.8342
  2.8431   2.8600   2.8823   2.9023   2.9113   2.9288   2.9419   2.9521
  2.9649   2.9726   2.9921   3.0105   3.0352   3.0603   3.0678   3.0855
  3.1020   3.1097   3.1330   3.1695   3.1743   3.1888   3.1963   3.2039
  3.2255   3.2439   3.2584   3.2723   3.2848   3.2974   3.3145   3.3271
  3.3384   3.3489   3.3553   3.3638   3.3736   3.3783   3.3885   3.4029
  3.4228   3.4392   3.4466   3.4744   3.4751   3.4866   3.4981   3.5075
  3.5274   3.5411   3.5624   3.5699   3.5884   3.6047   3.6198   3.6217
  3.6398   3.6615   3.6719   3.6805   3.7025   3.7211   3.7385   3.7537
  3.7625   3.7936   3.8140   3.8545   3.8843   3.8906   3.9197   3.9453
  3.9673   3.9999   4.1011   4.1370   4.1514   4.1571   4.1686   4.2062
  4.2263   4.2459   4.2650   4.2902   4.3344   4.3479   4.3701   4.3995
  4.4294   4.4408   4.4668   4.5078   4.5234   4.5629   4.5921   4.6160
  4.6828   4.6860   4.7287   4.7562   4.8421   4.8664   4.9064   4.9562
  4.9894   5.0093   5.0419   5.0677   5.2200   5.2420   5.3461   5.3584
  5.4697   5.5985   5.6852   5.7991   5.8922   6.0343   6.0499   6.1928
  6.4129   6.4313   6.5337   6.5733   6.6093   6.6466   6.7688   6.8728
  6.9779   6.9971   7.1347   7.2140   7.2693   7.4882  22.3981  22.4639
 22.4979  22.6706  22.7613  22.8022  22.9964  23.1833  44.0264  44.3305
 --------------------------------------------------------------
 
          Ground-State Mulliken Net Atomic Charges

     Atom                 Charge (a.u.)
  ----------------------------------------
      1 C                    -0.165149
      2 C                    -0.387212
      3 C                    -0.264594
      4 C                    -0.237139
      5 H                     0.151864
      6 H                     0.139706
      7 H                     0.130666
      8 C                     0.256733
      9 C                    -0.122635
     10 H                     0.153137
     11 H                     0.141457
     12 H                     0.134993
     13 H                     0.156444
     14 H                     0.139299
     15 O                    -0.208471
     16 C                    -0.221389
     17 H                     0.139866
     18 H                     0.142503
     19 H                     0.120957
     20 C                     0.118844
     21 O                    -0.383649
     22 H                     0.063768
  ----------------------------------------
  Sum of atomic charges =     0.000000

 -----------------------------------------------------------------
                    Cartesian Multipole Moments
 -----------------------------------------------------------------
    Charge (ESU x 10^10)
                -0.0000
    Dipole Moment (Debye)
         X       0.5678      Y      -0.8513      Z      -2.9819
       Tot       3.1526
    Quadrupole Moments (Debye-Ang)
        XX     -54.5072     XY       6.3757     YY     -62.7504
        XZ      -0.4264     YZ      -3.9017     ZZ     -61.6092
    Octopole Moments (Debye-Ang^2)
       XXX      19.2209    XXY       4.4164    XYY       3.3661
       YYY       2.6854    XXZ       5.4404    XYZ       0.6623
       YYZ       3.1980    XZZ       0.7354    YZZ      -4.4616
       ZZZ      -5.0033
    Hexadecapole Moments (Debye-Ang^3)
      XXXX    -879.1171   XXXY      36.6386   XXYY    -244.6636
      XYYY      20.1403   YYYY    -551.1090   XXXZ       2.3013
      XXYZ       7.5872   XYYZ      -0.9325   YYYZ     -10.2853
      XXZZ    -210.2209   XYZZ       4.6536   YYZZ    -155.5889
      XZZZ       8.7424   YZZZ     -11.3186   ZZZZ    -400.0710
 -----------------------------------------------------------------
 Total job time:  51.26s(wall), 744.51s(cpu) 
 Tue Jun 21 14:56:25 2022

        *************************************************************
        *                                                           *
        *  Thank you very much for using Q-Chem.  Have a nice day.  *
        *                                                           *
        *************************************************************


remove work dirs /tmp/qchem3829988.0 -- /tmp/qchem3829988.-1
rm -rf /tmp/qchem3829988
