You are running Q-Chem version: 5.4.1

#
# job setting
#
local host:  node03.cluster
current dir: /home/rpaton/opt
input file:  /home/rpaton/opt/DATS_14_endo_iii_TZVP.qcin
output file: 
nprocs     : 0
nthreads   : 16
#
# qchem installation setting
#
QC:          /opt/apps/qchem
QCAUX:       /opt/apps/qchem/qcaux
QCPROG:      /opt/apps/qchem/exe/qcprog.exe_s
QCPROG_S:    /opt/apps/qchem/exe/qcprog.exe_s
PARALLEL:    -DSERIAL
QCMPI:       seq
#
# qchem directory setting
#
qcrun:       qchem3180377
QCSCRATCH:   /tmp
QCLOCALSCR:  
QCTMPDIR:    /tmp
QCFILEPREF:  /tmp/qchem3180377
QCSAVEDIR:   
workdirs:    /tmp/qchem3180377
workdir0:    /tmp/qchem3180377
partmpdirs =  
#
# parallel setting
#
QCRSH:           ssh
QCMPI:           seq
QCMPIRUN:        
QCMACHINEFILE:   /tmp/qchem3180377/hostfile

#
# env setting
#
exported envs:   QC QCAUX QCSCRATCH QCRUNNAME QCFILEPREF QCPROG QCPROG_S GUIFILE

Running Job 1 of 1 /home/rpaton/opt/DATS_14_endo_iii_TZVP.qcin
qchem /home/rpaton/opt/DATS_14_endo_iii_TZVP.qcin_3180377.0 /tmp/qchem3180377/ 0
/opt/apps/qchem/exe/qcprog.exe_s /home/rpaton/opt/DATS_14_endo_iii_TZVP.qcin_3180377.0 /tmp/qchem3180377/
                  Welcome to Q-Chem
     A Quantum Leap Into The Future Of Chemistry


 Q-Chem 5.4, Q-Chem, Inc., Pleasanton, CA (2021)

 E. Epifanovsky,  A. T. B. Gilbert,  Xintian Feng,  Joonho Lee,  Yuezhi Mao,  
 N. Mardirossian,  P. Pokhilko,  A. White,  M. Wormit,  M. P. Coons,  
 A. L. Dempwolff,  Zhengting Gan,  D. Hait,  P. R. Horn,  L. D. Jacobson,  
 I. Kaliman,  J. Kussmann,  A. W. Lange,  Ka Un Lao,  D. S. Levine,  Jie Liu,  
 S. C. McKenzie,  A. F. Morrison,  K. Nanda,  F. Plasser,  D. R. Rehn,  
 M. L. Vidal,  Zhi-Qiang You,  Ying Zhu,  B. Alam,  B. Albrecht,  
 A. Aldossary,  E. Alguire,  J. H. Andersen,  D. Barton,  K. Begam,  A. Behn,  
 Y. A. Bernard,  E. J. Berquist,  H. Burton,  A. Carreras,  K. Carter-Fenk,  
 R. Chakraborty,  A. D. Chien,  K. D. Closser,  V. Cofer-Shabica,  
 S. Dasgupta,  Jia Deng,  M. de Wergifosse,  M. Diedenhofen,  Hainam Do,  
 S. Ehlert,  Po-Tung Fang,  S. Fatehi,  Qingguo Feng,  T. Friedhoff,  
 J. Gayvert,  Qinghui Ge,  G. Gidofalvi,  M. Goldey,  J. Gomes,  
 C. Gonzalez-Espinoza,  S. Gulania,  A. Gunina,  M. W. D. Hanson-Heine,  
 P. H. P. Harbach,  A. W. Hauser,  M. F. Herbst,  M. Hernandez Vera,  
 M. Hodecker,  Z. C. Holden,  S. Houck,  Xunkun Huang,  Kerwin Hui,  
 B. C. Huynh,  M. Ivanov,  Hyunjun Ji,  Hanjie Jiang,  B. Kaduk,  S. Kaehler,  
 K. Khistyaev,  Jaehoon Kim,  P. Klunzinger,  Z. Koczor-Benda,  
 Joong Hoon Koh,  D. Kosenkov,  L. Koulias,  T. Kowalczyk,  C. M. Krauter,  
 K. Kue,  A. Kunitsa,  T. Kus,  A. Landau,  K. V. Lawler,  D. Lefrancois,  
 S. Lehtola,  Rain Li,  Yi-Pei Li,  Jiashu Liang,  M. Liebenthal,  
 Hung-Hsuan Lin,  You-Sheng Lin,  Fenglai Liu,  Kuan-Yu Liu,  
 M. Loipersberger,  A. Luenser,  A. Manjanath,  P. Manohar,  E. Mansoor,  
 S. F. Manzer,  Shan-Ping Mao,  A. V. Marenich,  T. Markovich,  S. Mason,  
 S. A. Maurer,  P. F. McLaughlin,  M. F. S. J. Menger,  J.-M. Mewes,  
 S. A. Mewes,  P. Morgante,  J. W. Mullinax,  K. J. Oosterbaan,  G. Paran,  
 Alexander C. Paul,  Suranjan K. Paul,  F. Pavosevic,  Zheng Pei,  S. Prager,  
 E. I. Proynov,  E. Ramos,  B. Rana,  A. E. Rask,  A. Rettig,  R. M. Richard,  
 F. Rob,  E. Rossomme,  T. Scheele,  M. Scheurer,  M. Schneider,  
 N. Sergueev,  S. M. Sharada,  W. Skomorowski,  D. W. Small,  C. J. Stein,  
 Yu-Chuan Su,  E. J. Sundstrom,  Zhen Tao,  J. Thirman,  T. Tsuchimochi,  
 N. M. Tubman,  S. P. Veccham,  O. Vydrov,  J. Wenzel,  J. Witte,  A. Yamada,  
 Kun Yao,  S. Yeganeh,  S. R. Yost,  A. Zech,  Igor Ying Zhang,  Xing Zhang,  
 Yu Zhang,  D. Zuev,  A. Aspuru-Guzik,  A. T. Bell,  N. A. Besley,  
 K. B. Bravaya,  B. R. Brooks,  D. Casanova,  Jeng-Da Chai,  S. Coriani,  
 C. J. Cramer,  A. E. DePrince, III,  R. A. DiStasio Jr.,  A. Dreuw,  
 B. D. Dunietz,  T. R. Furlani,  W. A. Goddard III,  S. Grimme,  
 S. Hammes-Schiffer,  T. Head-Gordon,  W. J. Hehre,  Chao-Ping Hsu,  
 T.-C. Jagau,  Yousung Jung,  A. Klamt,  Jing Kong,  D. S. Lambrecht,  
 WanZhen Liang,  N. J. Mayhall,  C. W. McCurdy,  J. B. Neaton,  
 C. Ochsenfeld,  J. A. Parkhill,  R. Peverati,  V. A. Rassolov,  Yihan Shao,  
 L. V. Slipchenko,  T. Stauch,  R. P. Steele,  J. E. Subotnik,  
 A. J. W. Thom,  A. Tkatchenko,  D. G. Truhlar,  T. Van Voorhis,  
 T. A. Wesolowski,  K. B. Whaley,  H. L. Woodcock III,  P. M. Zimmerman,  
 S. Faraji,  P. M. W. Gill,  M. Head-Gordon,  J. M. Herbert,  A. I. Krylov

 Additional authors for Version 5.4.1: 
 S. Kotaru,  Shaozhi Li,  Xiangyuan Li,  F. Matz,  A. Molle,  Haisheng Ren,  
 Yingli Su,  Hung-Yi Tsai,  C. Utku,  Fang Wang

 Contributors to earlier versions of Q-Chem not listed above: 
 R. D. Adamson,  B. Austin,  R. Baer,  J. Baker,  G. J. O. Beran,  
 K. Brandhorst,  S. T. Brown,  E. F. C. Byrd,  A. K. Chakraborty,  
 G. K. L. Chan,  Chun-Min Chang,  Yunqing Chen,  C.-L. Cheng,  
 Siu Hung Chien,  D. M. Chipman,  D. L. Crittenden,  H. Dachsel,  
 R. J. Doerksen,  A. D. Dutoi,  R. G. Edgar,  J. Fosso-Tande,  
 L. Fusti-Molnar,  D. Ghosh,  A. Ghysels,  A. Golubeva-Zadorozhnaya,  
 J. Gonthier,  M. S. Gordon,  S. R. Gwaltney,  G. Hawkins,  J. E. Herr,  
 A. Heyden,  S. Hirata,  E. G. Hohenstein,  G. Kedziora,  F. J. Keil,  
 C. Kelley,  Jihan Kim,  R. A. King,  R. Z. Khaliullin,  P. P. Korambath,  
 W. Kurlancheek,  A. Laurent,  A. M. Lee,  M. S. Lee,  S. V. Levchenko,  
 Ching Yeh Lin,  D. Liotard,  E. Livshits,  R. C. Lochan,  I. Lotan,  
 L. A. Martinez-Martinez,  P. E. Maslen,  N. Nair,  D. P. O'Neill,  
 D. Neuhauser,  E. Neuscamman,  C. M. Oana,  R. Olivares-Amaya,  R. Olson,  
 T. M. Perrine,  B. Peters,  P. A. Pieniazek,  A. Prociuk,  Y. M. Rhee,  
 J. Ritchie,  M. A. Rohrdanz,  E. Rosta,  N. J. Russ,  H. F. Schaefer III,  
 M. W. Schmidt,  N. E. Schultz,  S. Sharma,  N. Shenvi,  C. D. Sherrill,  
 A. C. Simmonett,  A. Sodt,  T. Stein,  D. Stuck,  K. S. Thanthiriwatte,  
 V. Vanovschi,  L. Vogt,  Tao Wang,  A. Warshel,  M. A. Watson,  
 C. F. Williams,  Q. Wu,  X. Xu,  Jun Yang,  W. Zhang,  Yan Zhao

 Please cite Q-Chem as follows:
 Y. Shao et al., Mol. Phys. 113, 184-215 (2015)
 DOI: 10.1080/00268976.2014.952696

 Q-Chem 5.4.1 for Intel X86 EM64T Linux

 Parts of Q-Chem use Armadillo 9.800.1 (Horizon Scraper).
 http://arma.sourceforge.net/

 Q-Chem begins on Tue Jun 21 14:55:34 2022  

 Host: 
0

     Scratch files written to /tmp/qchem3180377//
 Aug1521 |scratch|qcdevops|jenkins|workspace|build_RNUM 8286   
 Processing $rem in /opt/apps/qchem/config/preferences:
 Processing $rem in /home/rpaton/.qchemrc:

 Checking the input file for inconsistencies... 	...done.

--------------------------------------------------------------
User input:
--------------------------------------------------------------
$molecule
0 1
C  0.848114  1.510121  -0.8465
C  -0.932682  1.677895  0.326947
C  0.58663  -0.325261  1.667397
C  1.8204  0.752866  -0.218291
H  0.331426  1.089993  -1.706309
H  0.934598  2.592133  -0.853301
H  2.558291  1.212215  0.433752
C  -1.353929  0.363085  0.379268
C  -0.584381  -0.63286  1.038624
H  -1.53496  2.375573  -0.246163
H  1.239056  -1.113284  2.029183
H  -0.816667  -1.678848  0.870075
H  -0.378507  2.094885  1.156802
H  0.807247  0.671623  2.026157
O  -2.394677  0.053007  -0.439878
C  -2.708498  -1.306997  -0.656797
H  -2.992782  -1.8075  0.275886
H  -3.558227  -1.311074  -1.339093
H  -1.870597  -1.844552  -1.116866
C  2.089085  -0.618003  -0.651008
O  3.070021  -1.273735  -0.367861
H  1.289939  -1.040416  -1.306052
$end

$rem
METHOD wB97X-V
BASIS def2-TZVP
XC_GRID 000099000590
MEM_TOTAL          8000
MEM_STATIC         4000
$end

--------------------------------------------------------------
 ----------------------------------------------------------------
             Standard Nuclear Orientation (Angstroms)
    I     Atom           X                Y                Z
 ----------------------------------------------------------------
    1      C       0.8481138695    -1.5101209328     0.8465001980
    2      C      -0.9326821651    -1.6778949829    -0.3269467423
    3      C       0.5866299514     0.3252607070    -1.6673970735
    4      C       1.8203999112    -0.7528660966     0.2182910650
    5      H       0.3314259160    -1.0899927665     1.7063091447
    6      H       0.9345977927    -2.5921329379     0.8533013593
    7      H       2.5582908659    -1.2122152473    -0.4337518801
    8      C      -1.3539290726    -0.3630849608    -0.3792679322
    9      C      -0.5843810146     0.6328598851    -1.0386240972
   10      H      -1.5349602037    -2.3755728537     0.2461633745
   11      H       1.2390560004     1.1132836061    -2.0291832049
   12      H      -0.8166669369     1.6788479270    -0.8700752503
   13      H      -0.3785072109    -2.0948851474    -1.1568016902
   14      H       0.8072468735    -0.6716233627    -2.0261569276
   15      O      -2.3946770347    -0.0530067634     0.4398780412
   16      C      -2.7084979338     1.3069972916     0.6567968424
   17      H      -2.9927819163     1.8075001713    -0.2758862275
   18      H      -3.5582269203     1.3110744549     1.3390928582
   19      H      -1.8705968866     1.8445523013     1.1168657451
   20      C       2.0890850171     0.6180029495     0.6510078533
   21      O       3.0700210582     1.2737348371     0.3678607355
   22      H       1.2899390598     1.0404161050     1.3060518051
 ----------------------------------------------------------------
 Molecular Point Group                 C1    NOp =  1
 Largest Abelian Subgroup              C1    NOp =  1
 Nuclear Repulsion Energy =         526.25158744 hartrees
 There are       38 alpha and       38 beta electrons
 Requested basis set is def2-TZVP
 There are 158 shells and 382 basis functions

 Total QAlloc Memory Limit   8000 MB
 Mega-Array Size      3911 MB
 MEM_STATIC part      4000 MB
 A cutoff of  1.0D-08 yielded   9915 shell pairs
 There are     57475 function pairs (     73042 Cartesian)
 Smallest overlap matrix eigenvalue = 6.53E-05

 Q-Chem warning in module stvman/mkSTV.C, line 323:

 Overlap eigenvalue is smaller than square root of threshold
 Use THRESH >= 12 to get rid of this warning


 Scale SEOQF with 1.000000e-01/1.000000e-01/1.000000e-01

 Standard Electronic Orientation quadrupole field applied
 Nucleus-field energy     =     0.0000000108 hartrees
 Guess from superposition of atomic densities
 Warning:  Energy on first SCF cycle will be non-variational
 SAD guess density has 76.000000 electrons

 -----------------------------------------------------------------------
  General SCF calculation program by
  Eric Jon Sundstrom, Paul Horn, Yuezhi Mao, Dmitri Zuev, Alec White,
  David Stuck, Shaama M.S., Shane Yost, Joonho Lee, David Small,
  Daniel Levine, Susi Lehtola, Hugh Burton, Evgeny Epifanovsky,
  Bang C. Huynh
 -----------------------------------------------------------------------
 Exchange:     0.1670 Hartree-Fock + 1.0000 wB97X-V + LR-HF
 Correlation:  1.0000 wB97X-V
 Using Euler-Maclaurin-Lebedev (99,590) quadrature formula
 Nonlocal Correlation:  VV10 with C = 0.0100 and b = 6.00 and scale = 1.00000
 Grid used for NLC:  SG-1 standard quadrature
 using 16 threads for integral computing
 -------------------------------------------------------
 OpenMP Integral computing Module                
 Release: version 1.0, May 2013, Q-Chem Inc. Pittsburgh 
 -------------------------------------------------------
 -------------------------------------------------------
 OpenMP BLAS3 based DFT computing Module                
 Release: version 1.0, May 2013, Q-Chem Inc. Pittsburgh 
 -------------------------------------------------------
 A restricted SCF calculation will be
 performed using DIIS
 SCF converges when DIIS error is below 1.0e-05
 ---------------------------------------
  Cycle       Energy         DIIS error
 ---------------------------------------
    1    -464.9288219977      2.76e-02  
    2    -462.2850317552      2.91e-03  
    3    -462.2636897430      3.58e-03  
    4    -462.4221106997      4.36e-04  
    5    -462.4249724013      1.97e-04  
    6    -462.4256796927      5.27e-05  
    7    -462.4257562407      2.10e-05  
    8    -462.4257759022      8.93e-06  Convergence criterion met
 ---------------------------------------
 SCF time:   CPU 607.62s  wall 39.00s 
 SCF   energy in the final basis set =     -462.4257759022
 Total energy in the final basis set =     -462.4257759022
 
 --------------------------------------------------------------
 
                    Orbital Energies (a.u.)
 --------------------------------------------------------------
 
 Alpha MOs
 -- Occupied --
-19.2581 -19.1784 -10.3491 -10.3389 -10.3335 -10.2988 -10.2961 -10.2860
-10.2833 -10.2690  -1.2155  -1.1494  -0.9686  -0.9135  -0.8930  -0.8283
 -0.7730  -0.7577  -0.6822  -0.6692  -0.6466  -0.6141  -0.6005  -0.5739
 -0.5679  -0.5479  -0.5336  -0.5219  -0.5120  -0.5082  -0.5007  -0.4785
 -0.4771  -0.4479  -0.4193  -0.3616  -0.3430  -0.2973
 -- Virtual --
  0.0178   0.0605   0.1033   0.1111   0.1260   0.1322   0.1519   0.1546
  0.1620   0.1737   0.1772   0.1811   0.1952   0.2070   0.2147   0.2282
  0.2417   0.2522   0.2626   0.2672   0.2772   0.2857   0.2923   0.2988
  0.3101   0.3261   0.3431   0.3464   0.3641   0.3754   0.3832   0.3926
  0.4055   0.4090   0.4235   0.4303   0.4370   0.4479   0.4653   0.4669
  0.4823   0.4900   0.4962   0.5048   0.5080   0.5183   0.5201   0.5284
  0.5293   0.5392   0.5498   0.5548   0.5658   0.5672   0.5781   0.5887
  0.6111   0.6169   0.6316   0.6354   0.6365   0.6525   0.6753   0.6834
  0.6950   0.7024   0.7116   0.7236   0.7364   0.7664   0.7747   0.8013
  0.8077   0.8138   0.8249   0.8533   0.8766   0.8838   0.9135   0.9279
  0.9419   0.9491   0.9633   0.9755   1.0058   1.0112   1.0142   1.0269
  1.0457   1.0703   1.0852   1.1027   1.1120   1.1340   1.1429   1.1694
  1.1796   1.1852   1.1939   1.2129   1.2283   1.2485   1.2822   1.2957
  1.3026   1.3207   1.3422   1.3485   1.3679   1.3888   1.4043   1.4288
  1.4404   1.4514   1.4891   1.5130   1.5509   1.5550   1.5733   1.5802
  1.5946   1.6064   1.6149   1.6308   1.6419   1.6560   1.6643   1.6768
  1.6800   1.6954   1.7079   1.7098   1.7331   1.7411   1.7582   1.7672
  1.7737   1.7920   1.7985   1.8204   1.8617   1.8792   1.8941   1.8957
  1.9173   1.9347   1.9529   1.9879   2.0034   2.0125   2.0249   2.0395
  2.0687   2.0931   2.1058   2.1173   2.1439   2.1484   2.1659   2.1820
  2.2064   2.2378   2.2412   2.2810   2.2983   2.3132   2.3248   2.3525
  2.3808   2.3897   2.4024   2.4112   2.4180   2.4429   2.4512   2.4779
  2.4957   2.5069   2.5254   2.5302   2.5640   2.5660   2.5729   2.5906
  2.5999   2.6188   2.6436   2.6537   2.6667   2.6906   2.6979   2.7026
  2.7126   2.7386   2.7536   2.7589   2.7648   2.7857   2.7873   2.8226
  2.8319   2.8403   2.8662   2.8901   2.8914   2.9060   2.9255   2.9378
  2.9535   2.9691   2.9807   3.0038   3.0378   3.0461   3.0597   3.0900
  3.0985   3.1155   3.1235   3.1492   3.1571   3.1674   3.1912   3.1948
  3.2066   3.2264   3.2428   3.2435   3.2663   3.2793   3.2835   3.3022
  3.3096   3.3170   3.3392   3.3434   3.3582   3.3683   3.3923   3.4042
  3.4125   3.4340   3.4387   3.4460   3.4578   3.4619   3.4929   3.4952
  3.5087   3.5234   3.5425   3.5517   3.5810   3.5864   3.5986   3.6085
  3.6129   3.6298   3.6492   3.6619   3.6791   3.6878   3.7031   3.7282
  3.7374   3.7943   3.8091   3.8362   3.8583   3.8729   3.8957   3.9306
  3.9795   3.9987   4.0187   4.0652   4.1399   4.1675   4.1807   4.2265
  4.2420   4.2499   4.2594   4.2758   4.2868   4.3382   4.3520   4.3763
  4.4044   4.4178   4.4315   4.4607   4.4902   4.5624   4.5986   4.6443
  4.6522   4.6829   4.7304   4.7944   4.8006   4.8724   4.8985   4.9316
  4.9572   4.9958   5.0403   5.0596   5.1695   5.2553   5.3228   5.3398
  5.4477   5.5694   5.6904   5.7963   5.8659   6.0064   6.0187   6.2353
  6.3869   6.4732   6.4846   6.5606   6.5705   6.5980   6.7453   6.8716
  6.9434   6.9699   7.0872   7.1947   7.2546   7.4646  22.4020  22.4372
 22.4652  22.5903  22.7524  22.8115  23.0490  23.1224  43.9591  44.2779
 --------------------------------------------------------------
 
          Ground-State Mulliken Net Atomic Charges

     Atom                 Charge (a.u.)
  ----------------------------------------
      1 C                    -0.263656
      2 C                    -0.326735
      3 C                    -0.244649
      4 C                    -0.146710
      5 H                     0.156037
      6 H                     0.154219
      7 H                     0.138790
      8 C                     0.248597
      9 C                    -0.216784
     10 H                     0.149391
     11 H                     0.165737
     12 H                     0.143842
     13 H                     0.160834
     14 H                     0.142544
     15 O                    -0.237108
     16 C                    -0.235840
     17 H                     0.132279
     18 H                     0.142920
     19 H                     0.128349
     20 C                     0.080622
     21 O                    -0.314977
     22 H                     0.042297
  ----------------------------------------
  Sum of atomic charges =     0.000000

 -----------------------------------------------------------------
                    Cartesian Multipole Moments
 -----------------------------------------------------------------
    Charge (ESU x 10^10)
                 0.0000
    Dipole Moment (Debye)
         X      -3.8352      Y      -1.2169      Z      -0.3262
       Tot       4.0369
    Quadrupole Moments (Debye-Ang)
        XX     -74.7257     XY     -11.2051     YY     -57.7916
        XZ      -4.5489     YZ       0.4046     ZZ     -60.0208
    Octopole Moments (Debye-Ang^2)
       XXX     -60.1604    XXY      -9.1960    XYY     -15.6832
       YYY      -5.7726    XXZ      -1.6701    XYZ      -3.1256
       YYZ      -0.5895    XZZ       2.5631    YZZ       2.3737
       ZZZ       6.4118
    Hexadecapole Moments (Debye-Ang^3)
      XXXX   -1480.3976   XXXY    -105.9386   XXYY    -327.2630
      XYYY     -12.7733   YYYY    -502.5854   XXXZ     -46.0598
      XXYZ       2.2876   XYYZ     -15.1369   YYYZ      -4.7836
      XXZZ    -273.0194   XYZZ       1.6811   YYZZ    -139.1069
      XZZZ     -20.2822   YZZZ       7.6928   ZZZZ    -347.0808
 -----------------------------------------------------------------
 Total job time:  38.88s(wall), 611.98s(cpu) 
 Tue Jun 21 14:56:13 2022

        *************************************************************
        *                                                           *
        *  Thank you very much for using Q-Chem.  Have a nice day.  *
        *                                                           *
        *************************************************************


remove work dirs /tmp/qchem3180377.0 -- /tmp/qchem3180377.-1
rm -rf /tmp/qchem3180377
