You are running Q-Chem version: 5.4.1

#
# job setting
#
local host:  node16.cluster
current dir: /home/rpaton/opt
input file:  /home/rpaton/opt/DATS_13_endo_iv_TZVP.qcin
output file: 
nprocs     : 0
nthreads   : 16
#
# qchem installation setting
#
QC:          /opt/apps/qchem
QCAUX:       /opt/apps/qchem/qcaux
QCPROG:      /opt/apps/qchem/exe/qcprog.exe_s
QCPROG_S:    /opt/apps/qchem/exe/qcprog.exe_s
PARALLEL:    -DSERIAL
QCMPI:       seq
#
# qchem directory setting
#
qcrun:       qchem2917285
QCSCRATCH:   /tmp
QCLOCALSCR:  
QCTMPDIR:    /tmp
QCFILEPREF:  /tmp/qchem2917285
QCSAVEDIR:   
workdirs:    /tmp/qchem2917285
workdir0:    /tmp/qchem2917285
partmpdirs =  
#
# parallel setting
#
QCRSH:           ssh
QCMPI:           seq
QCMPIRUN:        
QCMACHINEFILE:   /tmp/qchem2917285/hostfile

#
# env setting
#
exported envs:   QC QCAUX QCSCRATCH QCRUNNAME QCFILEPREF QCPROG QCPROG_S GUIFILE

Running Job 1 of 1 /home/rpaton/opt/DATS_13_endo_iv_TZVP.qcin
qchem /home/rpaton/opt/DATS_13_endo_iv_TZVP.qcin_2917285.0 /tmp/qchem2917285/ 0
/opt/apps/qchem/exe/qcprog.exe_s /home/rpaton/opt/DATS_13_endo_iv_TZVP.qcin_2917285.0 /tmp/qchem2917285/
                  Welcome to Q-Chem
     A Quantum Leap Into The Future Of Chemistry


 Q-Chem 5.4, Q-Chem, Inc., Pleasanton, CA (2021)

 E. Epifanovsky,  A. T. B. Gilbert,  Xintian Feng,  Joonho Lee,  Yuezhi Mao,  
 N. Mardirossian,  P. Pokhilko,  A. White,  M. Wormit,  M. P. Coons,  
 A. L. Dempwolff,  Zhengting Gan,  D. Hait,  P. R. Horn,  L. D. Jacobson,  
 I. Kaliman,  J. Kussmann,  A. W. Lange,  Ka Un Lao,  D. S. Levine,  Jie Liu,  
 S. C. McKenzie,  A. F. Morrison,  K. Nanda,  F. Plasser,  D. R. Rehn,  
 M. L. Vidal,  Zhi-Qiang You,  Ying Zhu,  B. Alam,  B. Albrecht,  
 A. Aldossary,  E. Alguire,  J. H. Andersen,  D. Barton,  K. Begam,  A. Behn,  
 Y. A. Bernard,  E. J. Berquist,  H. Burton,  A. Carreras,  K. Carter-Fenk,  
 R. Chakraborty,  A. D. Chien,  K. D. Closser,  V. Cofer-Shabica,  
 S. Dasgupta,  Jia Deng,  M. de Wergifosse,  M. Diedenhofen,  Hainam Do,  
 S. Ehlert,  Po-Tung Fang,  S. Fatehi,  Qingguo Feng,  T. Friedhoff,  
 J. Gayvert,  Qinghui Ge,  G. Gidofalvi,  M. Goldey,  J. Gomes,  
 C. Gonzalez-Espinoza,  S. Gulania,  A. Gunina,  M. W. D. Hanson-Heine,  
 P. H. P. Harbach,  A. W. Hauser,  M. F. Herbst,  M. Hernandez Vera,  
 M. Hodecker,  Z. C. Holden,  S. Houck,  Xunkun Huang,  Kerwin Hui,  
 B. C. Huynh,  M. Ivanov,  Hyunjun Ji,  Hanjie Jiang,  B. Kaduk,  S. Kaehler,  
 K. Khistyaev,  Jaehoon Kim,  P. Klunzinger,  Z. Koczor-Benda,  
 Joong Hoon Koh,  D. Kosenkov,  L. Koulias,  T. Kowalczyk,  C. M. Krauter,  
 K. Kue,  A. Kunitsa,  T. Kus,  A. Landau,  K. V. Lawler,  D. Lefrancois,  
 S. Lehtola,  Rain Li,  Yi-Pei Li,  Jiashu Liang,  M. Liebenthal,  
 Hung-Hsuan Lin,  You-Sheng Lin,  Fenglai Liu,  Kuan-Yu Liu,  
 M. Loipersberger,  A. Luenser,  A. Manjanath,  P. Manohar,  E. Mansoor,  
 S. F. Manzer,  Shan-Ping Mao,  A. V. Marenich,  T. Markovich,  S. Mason,  
 S. A. Maurer,  P. F. McLaughlin,  M. F. S. J. Menger,  J.-M. Mewes,  
 S. A. Mewes,  P. Morgante,  J. W. Mullinax,  K. J. Oosterbaan,  G. Paran,  
 Alexander C. Paul,  Suranjan K. Paul,  F. Pavosevic,  Zheng Pei,  S. Prager,  
 E. I. Proynov,  E. Ramos,  B. Rana,  A. E. Rask,  A. Rettig,  R. M. Richard,  
 F. Rob,  E. Rossomme,  T. Scheele,  M. Scheurer,  M. Schneider,  
 N. Sergueev,  S. M. Sharada,  W. Skomorowski,  D. W. Small,  C. J. Stein,  
 Yu-Chuan Su,  E. J. Sundstrom,  Zhen Tao,  J. Thirman,  T. Tsuchimochi,  
 N. M. Tubman,  S. P. Veccham,  O. Vydrov,  J. Wenzel,  J. Witte,  A. Yamada,  
 Kun Yao,  S. Yeganeh,  S. R. Yost,  A. Zech,  Igor Ying Zhang,  Xing Zhang,  
 Yu Zhang,  D. Zuev,  A. Aspuru-Guzik,  A. T. Bell,  N. A. Besley,  
 K. B. Bravaya,  B. R. Brooks,  D. Casanova,  Jeng-Da Chai,  S. Coriani,  
 C. J. Cramer,  A. E. DePrince, III,  R. A. DiStasio Jr.,  A. Dreuw,  
 B. D. Dunietz,  T. R. Furlani,  W. A. Goddard III,  S. Grimme,  
 S. Hammes-Schiffer,  T. Head-Gordon,  W. J. Hehre,  Chao-Ping Hsu,  
 T.-C. Jagau,  Yousung Jung,  A. Klamt,  Jing Kong,  D. S. Lambrecht,  
 WanZhen Liang,  N. J. Mayhall,  C. W. McCurdy,  J. B. Neaton,  
 C. Ochsenfeld,  J. A. Parkhill,  R. Peverati,  V. A. Rassolov,  Yihan Shao,  
 L. V. Slipchenko,  T. Stauch,  R. P. Steele,  J. E. Subotnik,  
 A. J. W. Thom,  A. Tkatchenko,  D. G. Truhlar,  T. Van Voorhis,  
 T. A. Wesolowski,  K. B. Whaley,  H. L. Woodcock III,  P. M. Zimmerman,  
 S. Faraji,  P. M. W. Gill,  M. Head-Gordon,  J. M. Herbert,  A. I. Krylov

 Additional authors for Version 5.4.1: 
 S. Kotaru,  Shaozhi Li,  Xiangyuan Li,  F. Matz,  A. Molle,  Haisheng Ren,  
 Yingli Su,  Hung-Yi Tsai,  C. Utku,  Fang Wang

 Contributors to earlier versions of Q-Chem not listed above: 
 R. D. Adamson,  B. Austin,  R. Baer,  J. Baker,  G. J. O. Beran,  
 K. Brandhorst,  S. T. Brown,  E. F. C. Byrd,  A. K. Chakraborty,  
 G. K. L. Chan,  Chun-Min Chang,  Yunqing Chen,  C.-L. Cheng,  
 Siu Hung Chien,  D. M. Chipman,  D. L. Crittenden,  H. Dachsel,  
 R. J. Doerksen,  A. D. Dutoi,  R. G. Edgar,  J. Fosso-Tande,  
 L. Fusti-Molnar,  D. Ghosh,  A. Ghysels,  A. Golubeva-Zadorozhnaya,  
 J. Gonthier,  M. S. Gordon,  S. R. Gwaltney,  G. Hawkins,  J. E. Herr,  
 A. Heyden,  S. Hirata,  E. G. Hohenstein,  G. Kedziora,  F. J. Keil,  
 C. Kelley,  Jihan Kim,  R. A. King,  R. Z. Khaliullin,  P. P. Korambath,  
 W. Kurlancheek,  A. Laurent,  A. M. Lee,  M. S. Lee,  S. V. Levchenko,  
 Ching Yeh Lin,  D. Liotard,  E. Livshits,  R. C. Lochan,  I. Lotan,  
 L. A. Martinez-Martinez,  P. E. Maslen,  N. Nair,  D. P. O'Neill,  
 D. Neuhauser,  E. Neuscamman,  C. M. Oana,  R. Olivares-Amaya,  R. Olson,  
 T. M. Perrine,  B. Peters,  P. A. Pieniazek,  A. Prociuk,  Y. M. Rhee,  
 J. Ritchie,  M. A. Rohrdanz,  E. Rosta,  N. J. Russ,  H. F. Schaefer III,  
 M. W. Schmidt,  N. E. Schultz,  S. Sharma,  N. Shenvi,  C. D. Sherrill,  
 A. C. Simmonett,  A. Sodt,  T. Stein,  D. Stuck,  K. S. Thanthiriwatte,  
 V. Vanovschi,  L. Vogt,  Tao Wang,  A. Warshel,  M. A. Watson,  
 C. F. Williams,  Q. Wu,  X. Xu,  Jun Yang,  W. Zhang,  Yan Zhao

 Please cite Q-Chem as follows:
 Y. Shao et al., Mol. Phys. 113, 184-215 (2015)
 DOI: 10.1080/00268976.2014.952696

 Q-Chem 5.4.1 for Intel X86 EM64T Linux

 Parts of Q-Chem use Armadillo 9.800.1 (Horizon Scraper).
 http://arma.sourceforge.net/

 Q-Chem begins on Tue Jun 21 14:55:35 2022  

 Host: 
0

     Scratch files written to /tmp/qchem2917285//
 Aug1521 |scratch|qcdevops|jenkins|workspace|build_RNUM 8286   
 Processing $rem in /opt/apps/qchem/config/preferences:
 Processing $rem in /home/rpaton/.qchemrc:

 Checking the input file for inconsistencies... 	...done.

--------------------------------------------------------------
User input:
--------------------------------------------------------------
$molecule
0 1
C  -2.226258  0.398227  -0.369848
C  -1.842722  -1.643016  0.059106
C  0.282917  -0.2257  1.273293
C  -1.293201  1.197469  0.278895
H  -2.145034  0.279533  -1.44638
H  -3.237572  0.340653  0.02009
H  -1.513654  1.657068  1.23813
C  -0.536273  -1.819467  -0.352997
C  0.520656  -1.086944  0.223499
H  -2.634616  -2.157352  -0.477956
H  1.034658  0.460009  1.644739
H  -2.070644  -1.44195  1.100513
H  -0.53073  -0.442446  1.950905
C  -0.176568  1.776505  -0.47937
O  0.524552  2.697536  -0.115488
H  0.003365  1.276293  -1.458992
O  1.675077  -1.108275  -0.500524
H  -0.325902  -2.301798  -1.303854
C  2.733209  -0.286766  -0.049381
H  2.464306  0.775349  -0.102802
H  3.015642  -0.537845  0.980573
H  3.572596  -0.483441  -0.716056
$end

$rem
METHOD wB97X-V
BASIS def2-TZVP
XC_GRID 000099000590
MEM_TOTAL          8000
MEM_STATIC         4000
$end

--------------------------------------------------------------
 ----------------------------------------------------------------
             Standard Nuclear Orientation (Angstroms)
    I     Atom           X                Y                Z
 ----------------------------------------------------------------
    1      C       2.2262581650    -0.3982266432    -0.3698477650
    2      C       1.8427219405     1.6430162751     0.0591064230
    3      C      -0.2829170575     0.2256999517     1.2732930489
    4      C       1.2932011698    -1.1974687980     0.2788950511
    5      H       2.1450342641    -0.2795325306    -1.4463797601
    6      H       3.2375721202    -0.3406525969     0.0200903443
    7      H       1.5136541129    -1.6570678852     1.2381300224
    8      C       0.5362729668     1.8194672052    -0.3529966903
    9      C      -0.5206560270     1.0869440474     0.2234991206
   10      H       2.6346159496     2.1573524050    -0.4779554391
   11      H      -1.0346580346    -0.4600091562     1.6447388961
   12      H       2.0706438523     1.4419501795     1.1005134239
   13      H       0.5307298543     0.4424459484     1.9509051559
   14      C       0.1765682983    -1.7765048126    -0.4793701270
   15      O      -0.5245516571    -2.6975359152    -0.1154883009
   16      H      -0.0033646463    -1.2762927196    -1.4589920897
   17      O      -1.6750769551     1.1082750257    -0.5005239946
   18      H       0.3259020209     2.3017982924    -1.3038536581
   19      C      -2.7332089283     0.2867658817    -0.0493811937
   20      H      -2.4643058287    -0.7753490885    -0.1028022845
   21      H      -3.0156420554     0.5378447421     0.9805728055
   22      H      -3.5725958778     0.4834408815    -0.7160562573
 ----------------------------------------------------------------
 Molecular Point Group                 C1    NOp =  1
 Largest Abelian Subgroup              C1    NOp =  1
 Nuclear Repulsion Energy =         538.31489917 hartrees
 There are       38 alpha and       38 beta electrons
 Requested basis set is def2-TZVP
 There are 158 shells and 382 basis functions

 Total QAlloc Memory Limit   8000 MB
 Mega-Array Size      3911 MB
 MEM_STATIC part      4000 MB
 A cutoff of  1.0D-08 yielded  10138 shell pairs
 There are     58994 function pairs (     75066 Cartesian)
 Smallest overlap matrix eigenvalue = 5.55E-05

 Q-Chem warning in module stvman/mkSTV.C, line 323:

 Overlap eigenvalue is smaller than square root of threshold
 Use THRESH >= 12 to get rid of this warning


 Scale SEOQF with 1.000000e-01/1.000000e-01/1.000000e-01

 Standard Electronic Orientation quadrupole field applied
 Nucleus-field energy     =     0.0000000147 hartrees
 Guess from superposition of atomic densities
 Warning:  Energy on first SCF cycle will be non-variational
 SAD guess density has 76.000000 electrons

 -----------------------------------------------------------------------
  General SCF calculation program by
  Eric Jon Sundstrom, Paul Horn, Yuezhi Mao, Dmitri Zuev, Alec White,
  David Stuck, Shaama M.S., Shane Yost, Joonho Lee, David Small,
  Daniel Levine, Susi Lehtola, Hugh Burton, Evgeny Epifanovsky,
  Bang C. Huynh
 -----------------------------------------------------------------------
 Exchange:     0.1670 Hartree-Fock + 1.0000 wB97X-V + LR-HF
 Correlation:  1.0000 wB97X-V
 Using Euler-Maclaurin-Lebedev (99,590) quadrature formula
 Nonlocal Correlation:  VV10 with C = 0.0100 and b = 6.00 and scale = 1.00000
 Grid used for NLC:  SG-1 standard quadrature
 using 16 threads for integral computing
 -------------------------------------------------------
 OpenMP Integral computing Module                
 Release: version 1.0, May 2013, Q-Chem Inc. Pittsburgh 
 -------------------------------------------------------
 -------------------------------------------------------
 OpenMP BLAS3 based DFT computing Module                
 Release: version 1.0, May 2013, Q-Chem Inc. Pittsburgh 
 -------------------------------------------------------
 A restricted SCF calculation will be
 performed using DIIS
 SCF converges when DIIS error is below 1.0e-05
 ---------------------------------------
  Cycle       Energy         DIIS error
 ---------------------------------------
    1    -464.9700402224      2.76e-02  
    2    -462.2951053931      2.84e-03  
    3    -462.2773812789      3.46e-03  
    4    -462.4226148738      4.22e-04  
    5    -462.4252560780      1.86e-04  
    6    -462.4258579309      4.27e-05  
    7    -462.4259028727      1.87e-05  
    8    -462.4259124690      7.55e-06  Convergence criterion met
 ---------------------------------------
 SCF time:   CPU 676.11s  wall 43.00s 
 SCF   energy in the final basis set =     -462.4259124690
 Total energy in the final basis set =     -462.4259124690
 
 --------------------------------------------------------------
 
                    Orbital Energies (a.u.)
 --------------------------------------------------------------
 
 Alpha MOs
 -- Occupied --
-19.2461 -19.1908 -10.3484 -10.3375 -10.3187 -10.2972 -10.2904 -10.2851
-10.2841 -10.2796  -1.2039  -1.1610  -0.9673  -0.9163  -0.8711  -0.8439
 -0.7703  -0.7454  -0.6903  -0.6604  -0.6410  -0.6089  -0.5917  -0.5777
 -0.5735  -0.5530  -0.5243  -0.5208  -0.5113  -0.5097  -0.4880  -0.4797
 -0.4762  -0.4474  -0.4227  -0.3556  -0.3288  -0.3164
 -- Virtual --
  0.0140   0.0708   0.1039   0.1182   0.1310   0.1356   0.1487   0.1626
  0.1664   0.1752   0.1805   0.1883   0.2003   0.2083   0.2162   0.2230
  0.2435   0.2527   0.2593   0.2666   0.2834   0.2860   0.2980   0.3126
  0.3215   0.3290   0.3431   0.3523   0.3638   0.3694   0.3917   0.3958
  0.4076   0.4192   0.4213   0.4367   0.4398   0.4543   0.4618   0.4738
  0.4889   0.4914   0.4966   0.5032   0.5048   0.5126   0.5151   0.5267
  0.5367   0.5441   0.5538   0.5579   0.5729   0.5780   0.5818   0.5967
  0.6085   0.6238   0.6344   0.6378   0.6460   0.6580   0.6672   0.6732
  0.7017   0.7060   0.7308   0.7355   0.7554   0.7645   0.7791   0.7926
  0.8146   0.8234   0.8273   0.8650   0.8790   0.9137   0.9279   0.9339
  0.9397   0.9715   0.9761   0.9892   1.0151   1.0279   1.0371   1.0552
  1.0720   1.0750   1.0882   1.0985   1.1129   1.1453   1.1657   1.1681
  1.1708   1.1948   1.2092   1.2161   1.2221   1.2693   1.2795   1.2917
  1.2995   1.3285   1.3317   1.3527   1.3687   1.3857   1.4137   1.4241
  1.4562   1.4717   1.4932   1.5165   1.5495   1.5577   1.5857   1.5991
  1.5992   1.6147   1.6180   1.6359   1.6468   1.6564   1.6749   1.6775
  1.6937   1.7072   1.7172   1.7293   1.7427   1.7529   1.7685   1.7801
  1.7925   1.8044   1.8141   1.8470   1.8566   1.8791   1.8912   1.9067
  1.9154   1.9312   1.9626   1.9973   2.0209   2.0227   2.0458   2.0654
  2.0708   2.0994   2.1023   2.1296   2.1511   2.1694   2.1759   2.2037
  2.2234   2.2409   2.2692   2.2891   2.3125   2.3207   2.3469   2.3541
  2.3762   2.3906   2.3974   2.4238   2.4363   2.4493   2.4708   2.4841
  2.5048   2.5123   2.5366   2.5489   2.5775   2.5879   2.5929   2.6164
  2.6230   2.6324   2.6381   2.6644   2.6767   2.6819   2.7046   2.7228
  2.7380   2.7493   2.7688   2.7767   2.7884   2.7924   2.8100   2.8252
  2.8436   2.8603   2.8638   2.8839   2.8884   2.9198   2.9336   2.9407
  2.9539   2.9693   2.9854   3.0129   3.0499   3.0643   3.0713   3.0909
  3.0962   3.1321   3.1478   3.1641   3.1680   3.1776   3.1927   3.2061
  3.2249   3.2347   3.2453   3.2545   3.2717   3.2922   3.3047   3.3127
  3.3170   3.3374   3.3483   3.3746   3.3802   3.3823   3.3911   3.4105
  3.4209   3.4279   3.4442   3.4667   3.4683   3.4797   3.4905   3.5184
  3.5339   3.5416   3.5585   3.5760   3.5813   3.5936   3.6094   3.6186
  3.6355   3.6533   3.6590   3.6727   3.6805   3.7120   3.7174   3.7492
  3.7826   3.8040   3.8242   3.8411   3.8490   3.8819   3.9381   3.9597
  3.9999   4.0184   4.0499   4.0754   4.1403   4.1496   4.1765   4.2159
  4.2284   4.2769   4.2818   4.2892   4.3122   4.3357   4.3609   4.3756
  4.4047   4.4088   4.4320   4.4828   4.5089   4.5406   4.6273   4.6564
  4.6766   4.7029   4.7215   4.7740   4.7920   4.8331   4.8802   4.9307
  4.9606   4.9748   5.0436   5.0897   5.1858   5.2430   5.3113   5.3283
  5.4696   5.6186   5.6790   5.7854   5.8731   6.0093   6.0292   6.2274
  6.4155   6.4606   6.4831   6.5493   6.5588   6.5914   6.7701   6.8746
  6.9460   6.9740   7.0819   7.1882   7.2703   7.4873  22.3898  22.4573
 22.4841  22.5872  22.7318  22.8404  23.0705  23.1730  43.9769  44.3089
 --------------------------------------------------------------
 
          Ground-State Mulliken Net Atomic Charges

     Atom                 Charge (a.u.)
  ----------------------------------------
      1 C                    -0.307329
      2 C                    -0.248196
      3 C                    -0.365014
      4 C                    -0.050979
      5 H                     0.151026
      6 H                     0.153563
      7 H                     0.136107
      8 C                    -0.169454
      9 C                     0.202737
     10 H                     0.145273
     11 H                     0.181623
     12 H                     0.148877
     13 H                     0.143765
     14 C                     0.052689
     15 O                    -0.308863
     16 H                     0.082296
     17 O                    -0.248487
     18 H                     0.128036
     19 C                    -0.234625
     20 H                     0.145890
     21 H                     0.125104
     22 H                     0.135961
  ----------------------------------------
  Sum of atomic charges =     0.000000

 -----------------------------------------------------------------
                    Cartesian Multipole Moments
 -----------------------------------------------------------------
    Charge (ESU x 10^10)
                 0.0000
    Dipole Moment (Debye)
         X       1.6017      Y       2.4309      Z       0.4620
       Tot       2.9476
    Quadrupole Moments (Debye-Ang)
        XX     -53.2459     XY       0.0792     YY     -74.9873
        XZ      -0.4713     YZ      -0.9997     ZZ     -58.5489
    Octopole Moments (Debye-Ang^2)
       XXX     -16.5307    XXY       3.5756    XYY       9.7002
       YYY      24.4514    XXZ       1.8338    XYZ      -2.1070
       YYZ      -4.2729    XZZ       0.5208    YZZ      -2.9209
       ZZZ      -1.9604
    Hexadecapole Moments (Debye-Ang^3)
      XXXX    -884.1524   XXXY      10.5427   XXYY    -307.5803
      XYYY     -19.6889   YYYY    -934.7868   XXXZ      13.7429
      XXYZ      -6.0236   XYYZ      -3.3084   YYYZ     -16.7110
      XXZZ    -191.5821   XYZZ       1.9975   YYZZ    -167.1058
      XZZZ       6.8478   YZZZ      -6.6865   ZZZZ    -210.7331
 -----------------------------------------------------------------
 Total job time:  43.05s(wall), 681.60s(cpu) 
 Tue Jun 21 14:56:18 2022

        *************************************************************
        *                                                           *
        *  Thank you very much for using Q-Chem.  Have a nice day.  *
        *                                                           *
        *************************************************************


remove work dirs /tmp/qchem2917285.0 -- /tmp/qchem2917285.-1
rm -rf /tmp/qchem2917285
