You are running Q-Chem version: 5.4.1

#
# job setting
#
local host:  node13.cluster
current dir: /home/rpaton/opt
input file:  /home/rpaton/opt/DATS_13_endo_ii_TZVP.qcin
output file: 
nprocs     : 0
nthreads   : 16
#
# qchem installation setting
#
QC:          /opt/apps/qchem
QCAUX:       /opt/apps/qchem/qcaux
QCPROG:      /opt/apps/qchem/exe/qcprog.exe_s
QCPROG_S:    /opt/apps/qchem/exe/qcprog.exe_s
PARALLEL:    -DSERIAL
QCMPI:       seq
#
# qchem directory setting
#
qcrun:       qchem2396142
QCSCRATCH:   /tmp
QCLOCALSCR:  
QCTMPDIR:    /tmp
QCFILEPREF:  /tmp/qchem2396142
QCSAVEDIR:   
workdirs:    /tmp/qchem2396142
workdir0:    /tmp/qchem2396142
partmpdirs =  
#
# parallel setting
#
QCRSH:           ssh
QCMPI:           seq
QCMPIRUN:        
QCMACHINEFILE:   /tmp/qchem2396142/hostfile

#
# env setting
#
exported envs:   QC QCAUX QCSCRATCH QCRUNNAME QCFILEPREF QCPROG QCPROG_S GUIFILE

Running Job 1 of 1 /home/rpaton/opt/DATS_13_endo_ii_TZVP.qcin
qchem /home/rpaton/opt/DATS_13_endo_ii_TZVP.qcin_2396142.0 /tmp/qchem2396142/ 0
/opt/apps/qchem/exe/qcprog.exe_s /home/rpaton/opt/DATS_13_endo_ii_TZVP.qcin_2396142.0 /tmp/qchem2396142/
                  Welcome to Q-Chem
     A Quantum Leap Into The Future Of Chemistry


 Q-Chem 5.4, Q-Chem, Inc., Pleasanton, CA (2021)

 E. Epifanovsky,  A. T. B. Gilbert,  Xintian Feng,  Joonho Lee,  Yuezhi Mao,  
 N. Mardirossian,  P. Pokhilko,  A. White,  M. Wormit,  M. P. Coons,  
 A. L. Dempwolff,  Zhengting Gan,  D. Hait,  P. R. Horn,  L. D. Jacobson,  
 I. Kaliman,  J. Kussmann,  A. W. Lange,  Ka Un Lao,  D. S. Levine,  Jie Liu,  
 S. C. McKenzie,  A. F. Morrison,  K. Nanda,  F. Plasser,  D. R. Rehn,  
 M. L. Vidal,  Zhi-Qiang You,  Ying Zhu,  B. Alam,  B. Albrecht,  
 A. Aldossary,  E. Alguire,  J. H. Andersen,  D. Barton,  K. Begam,  A. Behn,  
 Y. A. Bernard,  E. J. Berquist,  H. Burton,  A. Carreras,  K. Carter-Fenk,  
 R. Chakraborty,  A. D. Chien,  K. D. Closser,  V. Cofer-Shabica,  
 S. Dasgupta,  Jia Deng,  M. de Wergifosse,  M. Diedenhofen,  Hainam Do,  
 S. Ehlert,  Po-Tung Fang,  S. Fatehi,  Qingguo Feng,  T. Friedhoff,  
 J. Gayvert,  Qinghui Ge,  G. Gidofalvi,  M. Goldey,  J. Gomes,  
 C. Gonzalez-Espinoza,  S. Gulania,  A. Gunina,  M. W. D. Hanson-Heine,  
 P. H. P. Harbach,  A. W. Hauser,  M. F. Herbst,  M. Hernandez Vera,  
 M. Hodecker,  Z. C. Holden,  S. Houck,  Xunkun Huang,  Kerwin Hui,  
 B. C. Huynh,  M. Ivanov,  Hyunjun Ji,  Hanjie Jiang,  B. Kaduk,  S. Kaehler,  
 K. Khistyaev,  Jaehoon Kim,  P. Klunzinger,  Z. Koczor-Benda,  
 Joong Hoon Koh,  D. Kosenkov,  L. Koulias,  T. Kowalczyk,  C. M. Krauter,  
 K. Kue,  A. Kunitsa,  T. Kus,  A. Landau,  K. V. Lawler,  D. Lefrancois,  
 S. Lehtola,  Rain Li,  Yi-Pei Li,  Jiashu Liang,  M. Liebenthal,  
 Hung-Hsuan Lin,  You-Sheng Lin,  Fenglai Liu,  Kuan-Yu Liu,  
 M. Loipersberger,  A. Luenser,  A. Manjanath,  P. Manohar,  E. Mansoor,  
 S. F. Manzer,  Shan-Ping Mao,  A. V. Marenich,  T. Markovich,  S. Mason,  
 S. A. Maurer,  P. F. McLaughlin,  M. F. S. J. Menger,  J.-M. Mewes,  
 S. A. Mewes,  P. Morgante,  J. W. Mullinax,  K. J. Oosterbaan,  G. Paran,  
 Alexander C. Paul,  Suranjan K. Paul,  F. Pavosevic,  Zheng Pei,  S. Prager,  
 E. I. Proynov,  E. Ramos,  B. Rana,  A. E. Rask,  A. Rettig,  R. M. Richard,  
 F. Rob,  E. Rossomme,  T. Scheele,  M. Scheurer,  M. Schneider,  
 N. Sergueev,  S. M. Sharada,  W. Skomorowski,  D. W. Small,  C. J. Stein,  
 Yu-Chuan Su,  E. J. Sundstrom,  Zhen Tao,  J. Thirman,  T. Tsuchimochi,  
 N. M. Tubman,  S. P. Veccham,  O. Vydrov,  J. Wenzel,  J. Witte,  A. Yamada,  
 Kun Yao,  S. Yeganeh,  S. R. Yost,  A. Zech,  Igor Ying Zhang,  Xing Zhang,  
 Yu Zhang,  D. Zuev,  A. Aspuru-Guzik,  A. T. Bell,  N. A. Besley,  
 K. B. Bravaya,  B. R. Brooks,  D. Casanova,  Jeng-Da Chai,  S. Coriani,  
 C. J. Cramer,  A. E. DePrince, III,  R. A. DiStasio Jr.,  A. Dreuw,  
 B. D. Dunietz,  T. R. Furlani,  W. A. Goddard III,  S. Grimme,  
 S. Hammes-Schiffer,  T. Head-Gordon,  W. J. Hehre,  Chao-Ping Hsu,  
 T.-C. Jagau,  Yousung Jung,  A. Klamt,  Jing Kong,  D. S. Lambrecht,  
 WanZhen Liang,  N. J. Mayhall,  C. W. McCurdy,  J. B. Neaton,  
 C. Ochsenfeld,  J. A. Parkhill,  R. Peverati,  V. A. Rassolov,  Yihan Shao,  
 L. V. Slipchenko,  T. Stauch,  R. P. Steele,  J. E. Subotnik,  
 A. J. W. Thom,  A. Tkatchenko,  D. G. Truhlar,  T. Van Voorhis,  
 T. A. Wesolowski,  K. B. Whaley,  H. L. Woodcock III,  P. M. Zimmerman,  
 S. Faraji,  P. M. W. Gill,  M. Head-Gordon,  J. M. Herbert,  A. I. Krylov

 Additional authors for Version 5.4.1: 
 S. Kotaru,  Shaozhi Li,  Xiangyuan Li,  F. Matz,  A. Molle,  Haisheng Ren,  
 Yingli Su,  Hung-Yi Tsai,  C. Utku,  Fang Wang

 Contributors to earlier versions of Q-Chem not listed above: 
 R. D. Adamson,  B. Austin,  R. Baer,  J. Baker,  G. J. O. Beran,  
 K. Brandhorst,  S. T. Brown,  E. F. C. Byrd,  A. K. Chakraborty,  
 G. K. L. Chan,  Chun-Min Chang,  Yunqing Chen,  C.-L. Cheng,  
 Siu Hung Chien,  D. M. Chipman,  D. L. Crittenden,  H. Dachsel,  
 R. J. Doerksen,  A. D. Dutoi,  R. G. Edgar,  J. Fosso-Tande,  
 L. Fusti-Molnar,  D. Ghosh,  A. Ghysels,  A. Golubeva-Zadorozhnaya,  
 J. Gonthier,  M. S. Gordon,  S. R. Gwaltney,  G. Hawkins,  J. E. Herr,  
 A. Heyden,  S. Hirata,  E. G. Hohenstein,  G. Kedziora,  F. J. Keil,  
 C. Kelley,  Jihan Kim,  R. A. King,  R. Z. Khaliullin,  P. P. Korambath,  
 W. Kurlancheek,  A. Laurent,  A. M. Lee,  M. S. Lee,  S. V. Levchenko,  
 Ching Yeh Lin,  D. Liotard,  E. Livshits,  R. C. Lochan,  I. Lotan,  
 L. A. Martinez-Martinez,  P. E. Maslen,  N. Nair,  D. P. O'Neill,  
 D. Neuhauser,  E. Neuscamman,  C. M. Oana,  R. Olivares-Amaya,  R. Olson,  
 T. M. Perrine,  B. Peters,  P. A. Pieniazek,  A. Prociuk,  Y. M. Rhee,  
 J. Ritchie,  M. A. Rohrdanz,  E. Rosta,  N. J. Russ,  H. F. Schaefer III,  
 M. W. Schmidt,  N. E. Schultz,  S. Sharma,  N. Shenvi,  C. D. Sherrill,  
 A. C. Simmonett,  A. Sodt,  T. Stein,  D. Stuck,  K. S. Thanthiriwatte,  
 V. Vanovschi,  L. Vogt,  Tao Wang,  A. Warshel,  M. A. Watson,  
 C. F. Williams,  Q. Wu,  X. Xu,  Jun Yang,  W. Zhang,  Yan Zhao

 Please cite Q-Chem as follows:
 Y. Shao et al., Mol. Phys. 113, 184-215 (2015)
 DOI: 10.1080/00268976.2014.952696

 Q-Chem 5.4.1 for Intel X86 EM64T Linux

 Parts of Q-Chem use Armadillo 9.800.1 (Horizon Scraper).
 http://arma.sourceforge.net/

 Q-Chem begins on Tue Jun 21 14:55:34 2022  

 Host: 
0

     Scratch files written to /tmp/qchem2396142//
 Aug1521 |scratch|qcdevops|jenkins|workspace|build_RNUM 8286   
 Processing $rem in /opt/apps/qchem/config/preferences:
 Processing $rem in /home/rpaton/.qchemrc:

 Checking the input file for inconsistencies... 	...done.

--------------------------------------------------------------
User input:
--------------------------------------------------------------
$molecule
0 1
C  2.32405  -0.191466  -0.077619
C  1.539927  1.683066  -0.18386
C  -0.428355  0.380076  1.412398
C  1.49925  -1.014764  0.680831
H  2.305293  -0.352203  -1.150495
H  3.276765  0.123548  0.338552
H  1.705387  -1.237318  1.722774
C  0.235956  1.519068  -0.621214
C  -0.739738  0.87438  0.167668
H  2.248984  2.161249  -0.853637
H  -1.118996  -0.230256  1.981923
H  1.735756  1.867674  0.867861
H  0.382782  0.821161  1.972439
C  0.458056  -1.770504  -0.005272
O  0.165743  -1.599537  -1.176922
H  -0.091309  -2.512135  0.612167
O  -1.893129  0.60768  -0.499562
C  -2.80076  -0.28315  0.103604
H  -3.642731  -0.369509  -0.582755
H  -2.344986  -1.271142  0.242749
H  -3.155629  0.097036  1.070153
H  -0.012549  1.656511  -1.669078
$end

$rem
METHOD wB97X-V
BASIS def2-TZVP
XC_GRID 000099000590
MEM_TOTAL          8000
MEM_STATIC         4000
$end

--------------------------------------------------------------
 ----------------------------------------------------------------
             Standard Nuclear Orientation (Angstroms)
    I     Atom           X                Y                Z
 ----------------------------------------------------------------
    1      C       2.3240500979    -0.1914655829    -0.0776188989
    2      C       1.5399268039     1.6830662888    -0.1838599923
    3      C      -0.4283550271     0.3800760415     1.4123980143
    4      C       1.4992502105    -1.0147636830     0.6808311150
    5      H       2.3052931482    -0.3522026289    -1.1504948929
    6      H       3.2767650384     0.1235485844     0.3385521106
    7      H       1.7053872215    -1.2373176086     1.7227741287
    8      C       0.2359558400     1.5190680650    -0.6212140160
    9      C      -0.7397380764     0.8743799424     0.1676679872
   10      H       2.2489837438     2.1612493741    -0.8536369950
   11      H      -1.1189959438    -0.2302560448     1.9819230227
   12      H       1.7357557503     1.8676743620     0.8678610048
   13      H       0.3827818902     0.8211611923     1.9724390154
   14      C       0.4580563459    -1.7705038751    -0.0052718789
   15      O       0.1657433461    -1.5995369684    -1.1769218925
   16      H      -0.0913085511    -2.5121349373     0.6121671381
   17      O      -1.8931290187     0.6076797332    -0.4995620288
   18      C      -2.8007598918    -0.2831503861     0.1036039858
   19      H      -3.6427308622    -0.3695095468    -0.5827550302
   20      H      -2.3449857388    -1.2711423085     0.2427490360
   21      H      -3.1556289744     0.0970355965     1.0701529624
   22      H      -0.0125491575     1.6565109837    -1.6690780273
 ----------------------------------------------------------------
 Molecular Point Group                 C1    NOp =  1
 Largest Abelian Subgroup              C1    NOp =  1
 Nuclear Repulsion Energy =         549.44404329 hartrees
 There are       38 alpha and       38 beta electrons
 Requested basis set is def2-TZVP
 There are 158 shells and 382 basis functions

 Total QAlloc Memory Limit   8000 MB
 Mega-Array Size      3911 MB
 MEM_STATIC part      4000 MB
 A cutoff of  1.0D-08 yielded  10273 shell pairs
 There are     60659 function pairs (     77534 Cartesian)
 Smallest overlap matrix eigenvalue = 5.84E-05

 Q-Chem warning in module stvman/mkSTV.C, line 323:

 Overlap eigenvalue is smaller than square root of threshold
 Use THRESH >= 12 to get rid of this warning


 Scale SEOQF with 1.000000e-01/1.000000e-01/1.000000e-01

 Standard Electronic Orientation quadrupole field applied
 Nucleus-field energy     =     0.0000000095 hartrees
 Guess from superposition of atomic densities
 Warning:  Energy on first SCF cycle will be non-variational
 SAD guess density has 76.000000 electrons

 -----------------------------------------------------------------------
  General SCF calculation program by
  Eric Jon Sundstrom, Paul Horn, Yuezhi Mao, Dmitri Zuev, Alec White,
  David Stuck, Shaama M.S., Shane Yost, Joonho Lee, David Small,
  Daniel Levine, Susi Lehtola, Hugh Burton, Evgeny Epifanovsky,
  Bang C. Huynh
 -----------------------------------------------------------------------
 Exchange:     0.1670 Hartree-Fock + 1.0000 wB97X-V + LR-HF
 Correlation:  1.0000 wB97X-V
 Using Euler-Maclaurin-Lebedev (99,590) quadrature formula
 Nonlocal Correlation:  VV10 with C = 0.0100 and b = 6.00 and scale = 1.00000
 Grid used for NLC:  SG-1 standard quadrature
 using 16 threads for integral computing
 -------------------------------------------------------
 OpenMP Integral computing Module                
 Release: version 1.0, May 2013, Q-Chem Inc. Pittsburgh 
 -------------------------------------------------------
 -------------------------------------------------------
 OpenMP BLAS3 based DFT computing Module                
 Release: version 1.0, May 2013, Q-Chem Inc. Pittsburgh 
 -------------------------------------------------------
 A restricted SCF calculation will be
 performed using DIIS
 SCF converges when DIIS error is below 1.0e-05
 ---------------------------------------
  Cycle       Energy         DIIS error
 ---------------------------------------
    1    -465.0084416557      2.77e-02  
    2    -462.2903412923      2.90e-03  
    3    -462.2551109215      3.68e-03  
    4    -462.4241044730      4.36e-04  
    5    -462.4268486521      1.95e-04  
    6    -462.4275158760      4.30e-05  
    7    -462.4275648492      1.90e-05  
    8    -462.4275765578      7.68e-06  Convergence criterion met
 ---------------------------------------
 SCF time:   CPU 641.14s  wall 40.00s 
 SCF   energy in the final basis set =     -462.4275765578
 Total energy in the final basis set =     -462.4275765578
 
 --------------------------------------------------------------
 
                    Orbital Energies (a.u.)
 --------------------------------------------------------------
 
 Alpha MOs
 -- Occupied --
-19.2389 -19.1820 -10.3389 -10.3339 -10.3166 -10.2940 -10.2857 -10.2808
-10.2773 -10.2765  -1.1997  -1.1515  -0.9616  -0.9081  -0.8682  -0.8406
 -0.7758  -0.7444  -0.6689  -0.6441  -0.6355  -0.6223  -0.5971  -0.5880
 -0.5570  -0.5383  -0.5238  -0.5165  -0.5113  -0.5046  -0.4832  -0.4679
 -0.4581  -0.4405  -0.4232  -0.3487  -0.3284  -0.3093
 -- Virtual --
  0.0105   0.0763   0.1111   0.1208   0.1309   0.1427   0.1539   0.1657
  0.1716   0.1751   0.1842   0.1934   0.2000   0.2092   0.2155   0.2410
  0.2530   0.2574   0.2658   0.2723   0.2867   0.2958   0.2972   0.3100
  0.3230   0.3318   0.3437   0.3487   0.3707   0.3759   0.3802   0.3939
  0.4135   0.4239   0.4375   0.4443   0.4585   0.4635   0.4672   0.4747
  0.4868   0.4884   0.4978   0.5072   0.5122   0.5167   0.5182   0.5307
  0.5417   0.5440   0.5609   0.5696   0.5730   0.5800   0.5908   0.5980
  0.6051   0.6237   0.6263   0.6426   0.6540   0.6586   0.6786   0.6878
  0.7130   0.7156   0.7294   0.7465   0.7632   0.7767   0.7811   0.8182
  0.8216   0.8369   0.8533   0.8728   0.8919   0.9172   0.9211   0.9378
  0.9537   0.9724   0.9800   0.9977   1.0089   1.0313   1.0433   1.0584
  1.0685   1.0804   1.0977   1.1156   1.1264   1.1552   1.1586   1.1791
  1.1928   1.2051   1.2137   1.2318   1.2527   1.2722   1.2775   1.2893
  1.3070   1.3118   1.3302   1.3600   1.3739   1.3894   1.4273   1.4407
  1.4678   1.4750   1.5107   1.5272   1.5501   1.5730   1.5840   1.5943
  1.6074   1.6239   1.6251   1.6430   1.6546   1.6659   1.6734   1.6806
  1.6942   1.7039   1.7320   1.7463   1.7605   1.7707   1.7773   1.8012
  1.8209   1.8343   1.8429   1.8474   1.8632   1.8800   1.8903   1.9248
  1.9320   1.9548   1.9953   2.0024   2.0148   2.0437   2.0512   2.0610
  2.0890   2.1058   2.1188   2.1372   2.1484   2.1769   2.1886   2.2111
  2.2315   2.2498   2.2709   2.2811   2.3044   2.3127   2.3409   2.3843
  2.3879   2.3986   2.4080   2.4126   2.4476   2.4544   2.4844   2.4989
  2.5026   2.5106   2.5492   2.5658   2.5781   2.5998   2.6190   2.6304
  2.6409   2.6455   2.6518   2.6750   2.6854   2.7114   2.7202   2.7241
  2.7441   2.7559   2.7790   2.7864   2.8003   2.8097   2.8175   2.8344
  2.8510   2.8614   2.8719   2.8876   2.9094   2.9192   2.9374   2.9500
  2.9630   2.9817   2.9858   3.0100   3.0492   3.0604   3.0731   3.0850
  3.1140   3.1355   3.1569   3.1616   3.1755   3.1954   3.2071   3.2234
  3.2310   3.2407   3.2528   3.2655   3.2701   3.2954   3.3114   3.3221
  3.3307   3.3369   3.3601   3.3744   3.3826   3.3890   3.4009   3.4155
  3.4343   3.4355   3.4675   3.4752   3.4788   3.4962   3.5021   3.5114
  3.5241   3.5475   3.5544   3.5733   3.5953   3.6192   3.6291   3.6441
  3.6564   3.6634   3.6802   3.6836   3.7112   3.7346   3.7507   3.7586
  3.7896   3.8047   3.8172   3.8340   3.8713   3.9147   3.9305   3.9563
  3.9906   4.0465   4.0668   4.1062   4.1445   4.1474   4.1704   4.2068
  4.2222   4.2611   4.2805   4.2940   4.3228   4.3521   4.3713   4.3765
  4.4041   4.4240   4.4527   4.4944   4.5339   4.5573   4.6162   4.6443
  4.6766   4.6986   4.7259   4.7759   4.8507   4.8684   4.9196   4.9602
  4.9722   5.0145   5.0424   5.0920   5.1817   5.2584   5.3293   5.3400
  5.4803   5.6204   5.6822   5.7959   5.8964   6.0315   6.0471   6.2089
  6.4329   6.4473   6.5386   6.5437   6.5705   6.6368   6.7768   6.8888
  6.9854   6.9920   7.1118   7.2004   7.2824   7.5021  22.4267  22.4774
 22.4976  22.5892  22.7667  22.8202  23.0059  23.1891  44.0489  44.3481
 --------------------------------------------------------------
 
          Ground-State Mulliken Net Atomic Charges

     Atom                 Charge (a.u.)
  ----------------------------------------
      1 C                    -0.244403
      2 C                    -0.267035
      3 C                    -0.411593
      4 C                    -0.113194
      5 H                     0.166123
      6 H                     0.146515
      7 H                     0.136095
      8 C                    -0.128193
      9 C                     0.242989
     10 H                     0.145601
     11 H                     0.161197
     12 H                     0.150520
     13 H                     0.137971
     14 C                     0.068934
     15 O                    -0.327843
     16 H                     0.073483
     17 O                    -0.235454
     18 C                    -0.215643
     19 H                     0.138309
     20 H                     0.119400
     21 H                     0.121135
     22 H                     0.135085
  ----------------------------------------
  Sum of atomic charges =     0.000000

 -----------------------------------------------------------------
                    Cartesian Multipole Moments
 -----------------------------------------------------------------
    Charge (ESU x 10^10)
                 0.0000
    Dipole Moment (Debye)
         X       0.7595      Y       0.8094      Z       2.9544
       Tot       3.1560
    Quadrupole Moments (Debye-Ang)
        XX     -53.7763     XY       5.0343     YY     -64.0331
        XZ      -1.0486     YZ      -4.9464     ZZ     -61.6310
    Octopole Moments (Debye-Ang^2)
       XXX     -16.2816    XXY      -0.4051    XYY       0.6424
       YYY      -7.6205    XXZ      -0.4149    XYZ      -0.5900
       YYZ       3.0636    XZZ       1.0936    YZZ       5.4436
       ZZZ      -1.4652
    Hexadecapole Moments (Debye-Ang^3)
      XXXX    -933.3927   XXXY      31.2748   XXYY    -269.8799
      XYYY       7.4320   YYYY    -601.9659   XXXZ       6.2641
      XXYZ       3.3622   XYYZ      -0.3407   YYYZ     -11.7049
      XXZZ    -208.1903   XYZZ       3.9207   YYZZ    -149.9255
      XZZZ       5.3141   YZZZ      -9.4345   ZZZZ    -285.4153
 -----------------------------------------------------------------
 Total job time:  40.74s(wall), 645.16s(cpu) 
 Tue Jun 21 14:56:15 2022

        *************************************************************
        *                                                           *
        *  Thank you very much for using Q-Chem.  Have a nice day.  *
        *                                                           *
        *************************************************************


remove work dirs /tmp/qchem2396142.0 -- /tmp/qchem2396142.-1
rm -rf /tmp/qchem2396142
