You are running Q-Chem version: 5.4.1

#
# job setting
#
local host:  node03.cluster
current dir: /home/rpaton/opt
input file:  /home/rpaton/opt/DATS_13_exo_iv_TZVP.qcin
output file: 
nprocs     : 0
nthreads   : 16
#
# qchem installation setting
#
QC:          /opt/apps/qchem
QCAUX:       /opt/apps/qchem/qcaux
QCPROG:      /opt/apps/qchem/exe/qcprog.exe_s
QCPROG_S:    /opt/apps/qchem/exe/qcprog.exe_s
PARALLEL:    -DSERIAL
QCMPI:       seq
#
# qchem directory setting
#
qcrun:       qchem3180387
QCSCRATCH:   /tmp
QCLOCALSCR:  
QCTMPDIR:    /tmp
QCFILEPREF:  /tmp/qchem3180387
QCSAVEDIR:   
workdirs:    /tmp/qchem3180387
workdir0:    /tmp/qchem3180387
partmpdirs =  
#
# parallel setting
#
QCRSH:           ssh
QCMPI:           seq
QCMPIRUN:        
QCMACHINEFILE:   /tmp/qchem3180387/hostfile

#
# env setting
#
exported envs:   QC QCAUX QCSCRATCH QCRUNNAME QCFILEPREF QCPROG QCPROG_S GUIFILE

Running Job 1 of 1 /home/rpaton/opt/DATS_13_exo_iv_TZVP.qcin
qchem /home/rpaton/opt/DATS_13_exo_iv_TZVP.qcin_3180387.0 /tmp/qchem3180387/ 0
/opt/apps/qchem/exe/qcprog.exe_s /home/rpaton/opt/DATS_13_exo_iv_TZVP.qcin_3180387.0 /tmp/qchem3180387/
                  Welcome to Q-Chem
     A Quantum Leap Into The Future Of Chemistry


 Q-Chem 5.4, Q-Chem, Inc., Pleasanton, CA (2021)

 E. Epifanovsky,  A. T. B. Gilbert,  Xintian Feng,  Joonho Lee,  Yuezhi Mao,  
 N. Mardirossian,  P. Pokhilko,  A. White,  M. Wormit,  M. P. Coons,  
 A. L. Dempwolff,  Zhengting Gan,  D. Hait,  P. R. Horn,  L. D. Jacobson,  
 I. Kaliman,  J. Kussmann,  A. W. Lange,  Ka Un Lao,  D. S. Levine,  Jie Liu,  
 S. C. McKenzie,  A. F. Morrison,  K. Nanda,  F. Plasser,  D. R. Rehn,  
 M. L. Vidal,  Zhi-Qiang You,  Ying Zhu,  B. Alam,  B. Albrecht,  
 A. Aldossary,  E. Alguire,  J. H. Andersen,  D. Barton,  K. Begam,  A. Behn,  
 Y. A. Bernard,  E. J. Berquist,  H. Burton,  A. Carreras,  K. Carter-Fenk,  
 R. Chakraborty,  A. D. Chien,  K. D. Closser,  V. Cofer-Shabica,  
 S. Dasgupta,  Jia Deng,  M. de Wergifosse,  M. Diedenhofen,  Hainam Do,  
 S. Ehlert,  Po-Tung Fang,  S. Fatehi,  Qingguo Feng,  T. Friedhoff,  
 J. Gayvert,  Qinghui Ge,  G. Gidofalvi,  M. Goldey,  J. Gomes,  
 C. Gonzalez-Espinoza,  S. Gulania,  A. Gunina,  M. W. D. Hanson-Heine,  
 P. H. P. Harbach,  A. W. Hauser,  M. F. Herbst,  M. Hernandez Vera,  
 M. Hodecker,  Z. C. Holden,  S. Houck,  Xunkun Huang,  Kerwin Hui,  
 B. C. Huynh,  M. Ivanov,  Hyunjun Ji,  Hanjie Jiang,  B. Kaduk,  S. Kaehler,  
 K. Khistyaev,  Jaehoon Kim,  P. Klunzinger,  Z. Koczor-Benda,  
 Joong Hoon Koh,  D. Kosenkov,  L. Koulias,  T. Kowalczyk,  C. M. Krauter,  
 K. Kue,  A. Kunitsa,  T. Kus,  A. Landau,  K. V. Lawler,  D. Lefrancois,  
 S. Lehtola,  Rain Li,  Yi-Pei Li,  Jiashu Liang,  M. Liebenthal,  
 Hung-Hsuan Lin,  You-Sheng Lin,  Fenglai Liu,  Kuan-Yu Liu,  
 M. Loipersberger,  A. Luenser,  A. Manjanath,  P. Manohar,  E. Mansoor,  
 S. F. Manzer,  Shan-Ping Mao,  A. V. Marenich,  T. Markovich,  S. Mason,  
 S. A. Maurer,  P. F. McLaughlin,  M. F. S. J. Menger,  J.-M. Mewes,  
 S. A. Mewes,  P. Morgante,  J. W. Mullinax,  K. J. Oosterbaan,  G. Paran,  
 Alexander C. Paul,  Suranjan K. Paul,  F. Pavosevic,  Zheng Pei,  S. Prager,  
 E. I. Proynov,  E. Ramos,  B. Rana,  A. E. Rask,  A. Rettig,  R. M. Richard,  
 F. Rob,  E. Rossomme,  T. Scheele,  M. Scheurer,  M. Schneider,  
 N. Sergueev,  S. M. Sharada,  W. Skomorowski,  D. W. Small,  C. J. Stein,  
 Yu-Chuan Su,  E. J. Sundstrom,  Zhen Tao,  J. Thirman,  T. Tsuchimochi,  
 N. M. Tubman,  S. P. Veccham,  O. Vydrov,  J. Wenzel,  J. Witte,  A. Yamada,  
 Kun Yao,  S. Yeganeh,  S. R. Yost,  A. Zech,  Igor Ying Zhang,  Xing Zhang,  
 Yu Zhang,  D. Zuev,  A. Aspuru-Guzik,  A. T. Bell,  N. A. Besley,  
 K. B. Bravaya,  B. R. Brooks,  D. Casanova,  Jeng-Da Chai,  S. Coriani,  
 C. J. Cramer,  A. E. DePrince, III,  R. A. DiStasio Jr.,  A. Dreuw,  
 B. D. Dunietz,  T. R. Furlani,  W. A. Goddard III,  S. Grimme,  
 S. Hammes-Schiffer,  T. Head-Gordon,  W. J. Hehre,  Chao-Ping Hsu,  
 T.-C. Jagau,  Yousung Jung,  A. Klamt,  Jing Kong,  D. S. Lambrecht,  
 WanZhen Liang,  N. J. Mayhall,  C. W. McCurdy,  J. B. Neaton,  
 C. Ochsenfeld,  J. A. Parkhill,  R. Peverati,  V. A. Rassolov,  Yihan Shao,  
 L. V. Slipchenko,  T. Stauch,  R. P. Steele,  J. E. Subotnik,  
 A. J. W. Thom,  A. Tkatchenko,  D. G. Truhlar,  T. Van Voorhis,  
 T. A. Wesolowski,  K. B. Whaley,  H. L. Woodcock III,  P. M. Zimmerman,  
 S. Faraji,  P. M. W. Gill,  M. Head-Gordon,  J. M. Herbert,  A. I. Krylov

 Additional authors for Version 5.4.1: 
 S. Kotaru,  Shaozhi Li,  Xiangyuan Li,  F. Matz,  A. Molle,  Haisheng Ren,  
 Yingli Su,  Hung-Yi Tsai,  C. Utku,  Fang Wang

 Contributors to earlier versions of Q-Chem not listed above: 
 R. D. Adamson,  B. Austin,  R. Baer,  J. Baker,  G. J. O. Beran,  
 K. Brandhorst,  S. T. Brown,  E. F. C. Byrd,  A. K. Chakraborty,  
 G. K. L. Chan,  Chun-Min Chang,  Yunqing Chen,  C.-L. Cheng,  
 Siu Hung Chien,  D. M. Chipman,  D. L. Crittenden,  H. Dachsel,  
 R. J. Doerksen,  A. D. Dutoi,  R. G. Edgar,  J. Fosso-Tande,  
 L. Fusti-Molnar,  D. Ghosh,  A. Ghysels,  A. Golubeva-Zadorozhnaya,  
 J. Gonthier,  M. S. Gordon,  S. R. Gwaltney,  G. Hawkins,  J. E. Herr,  
 A. Heyden,  S. Hirata,  E. G. Hohenstein,  G. Kedziora,  F. J. Keil,  
 C. Kelley,  Jihan Kim,  R. A. King,  R. Z. Khaliullin,  P. P. Korambath,  
 W. Kurlancheek,  A. Laurent,  A. M. Lee,  M. S. Lee,  S. V. Levchenko,  
 Ching Yeh Lin,  D. Liotard,  E. Livshits,  R. C. Lochan,  I. Lotan,  
 L. A. Martinez-Martinez,  P. E. Maslen,  N. Nair,  D. P. O'Neill,  
 D. Neuhauser,  E. Neuscamman,  C. M. Oana,  R. Olivares-Amaya,  R. Olson,  
 T. M. Perrine,  B. Peters,  P. A. Pieniazek,  A. Prociuk,  Y. M. Rhee,  
 J. Ritchie,  M. A. Rohrdanz,  E. Rosta,  N. J. Russ,  H. F. Schaefer III,  
 M. W. Schmidt,  N. E. Schultz,  S. Sharma,  N. Shenvi,  C. D. Sherrill,  
 A. C. Simmonett,  A. Sodt,  T. Stein,  D. Stuck,  K. S. Thanthiriwatte,  
 V. Vanovschi,  L. Vogt,  Tao Wang,  A. Warshel,  M. A. Watson,  
 C. F. Williams,  Q. Wu,  X. Xu,  Jun Yang,  W. Zhang,  Yan Zhao

 Please cite Q-Chem as follows:
 Y. Shao et al., Mol. Phys. 113, 184-215 (2015)
 DOI: 10.1080/00268976.2014.952696

 Q-Chem 5.4.1 for Intel X86 EM64T Linux

 Parts of Q-Chem use Armadillo 9.800.1 (Horizon Scraper).
 http://arma.sourceforge.net/

 Q-Chem begins on Tue Jun 21 14:55:34 2022  

 Host: 
0

     Scratch files written to /tmp/qchem3180387//
 Aug1521 |scratch|qcdevops|jenkins|workspace|build_RNUM 8286   
 Processing $rem in /opt/apps/qchem/config/preferences:
 Processing $rem in /home/rpaton/.qchemrc:

 Checking the input file for inconsistencies... 	...done.

--------------------------------------------------------------
User input:
--------------------------------------------------------------
$molecule
0 1
C  -1.490007  1.352767  0.789711
C  -0.049489  2.268877  -0.488414
C  0.28556  -0.518796  -0.868519
C  -1.398362  -0.029297  0.683097
H  -1.12631  1.845273  1.683311
H  -2.32131  1.852859  0.296212
H  -0.870406  -0.616183  1.427331
C  1.130946  1.636316  -0.156594
C  1.290201  0.244476  -0.316221
H  -0.160608  3.326002  -0.264902
H  0.303192  -1.602052  -0.871271
H  -0.636133  1.928461  -1.334963
H  -0.360412  -0.066611  -1.608945
C  -2.369778  -0.758239  -0.142152
O  -2.547198  -1.956258  -0.12355
H  -2.958173  -0.107039  -0.83068
O  2.369797  -0.270009  0.339237
C  2.56658  -1.664118  0.258633
H  3.518718  -1.866303  0.749042
H  1.769739  -2.211983  0.776414
H  2.610373  -1.998522  -0.785109
H  1.856637  2.13432  0.480818
$end

$rem
METHOD wB97X-V
BASIS def2-TZVP
XC_GRID 000099000590
MEM_TOTAL          8000
MEM_STATIC         4000
$end

--------------------------------------------------------------
 ----------------------------------------------------------------
             Standard Nuclear Orientation (Angstroms)
    I     Atom           X                Y                Z
 ----------------------------------------------------------------
    1      C       1.4900072066     1.3527667845    -0.7897110583
    2      C       0.0494893320     2.2688769802     0.4884139427
    3      C      -0.2855599789    -0.5187959722     0.8685190176
    4      C       1.3983620512    -0.0292972024    -0.6830970224
    5      H       1.1263102479     1.8452728037    -1.6833110645
    6      H       2.3213102717     1.8528587022    -0.2962120845
    7      H       0.8704059721    -0.6161831608    -1.4273309991
    8      C      -1.1309457455     1.6363161062     0.1565939780
    9      C      -1.2902009012     0.2444761283     0.3162210152
   10      H       0.1606084485     3.3260019620     0.2649019146
   11      H      -0.3031921021    -1.6020519701     0.8712710449
   12      H       0.6361333072     1.9284609345     1.3349629415
   13      H       0.3604120848    -0.0666110273     1.6089449957
   14      C       2.3697779819    -0.7582392924     0.1421519797
   15      O       2.5471978453    -1.9562583130     0.1235500066
   16      H       2.9581730673    -0.1070393422     0.8306799538
   17      O      -2.3697969705    -0.2700087652    -0.3392369541
   18      C      -2.5665801278    -1.6641177408    -0.2586329162
   19      H      -3.5187181589    -1.8663026447    -0.7490418954
   20      H      -1.7697391987    -2.2119828443    -0.7764139157
   21      H      -2.6103731486    -1.9985217098     0.7851090929
   22      H      -1.8566366993     2.1343201729    -0.4808180224
 ----------------------------------------------------------------
 Molecular Point Group                 C1    NOp =  1
 Largest Abelian Subgroup              C1    NOp =  1
 Nuclear Repulsion Energy =         524.73302962 hartrees
 There are       38 alpha and       38 beta electrons
 Requested basis set is def2-TZVP
 There are 158 shells and 382 basis functions

 Total QAlloc Memory Limit   8000 MB
 Mega-Array Size      3911 MB
 MEM_STATIC part      4000 MB
 A cutoff of  1.0D-08 yielded   9860 shell pairs
 There are     56814 function pairs (     72126 Cartesian)
 Smallest overlap matrix eigenvalue = 5.41E-05

 Q-Chem warning in module stvman/mkSTV.C, line 323:

 Overlap eigenvalue is smaller than square root of threshold
 Use THRESH >= 12 to get rid of this warning


 Scale SEOQF with 1.000000e-01/1.000000e-01/1.000000e-01

 Standard Electronic Orientation quadrupole field applied
 Nucleus-field energy     =     0.0000000171 hartrees
 Guess from superposition of atomic densities
 Warning:  Energy on first SCF cycle will be non-variational
 SAD guess density has 76.000000 electrons

 -----------------------------------------------------------------------
  General SCF calculation program by
  Eric Jon Sundstrom, Paul Horn, Yuezhi Mao, Dmitri Zuev, Alec White,
  David Stuck, Shaama M.S., Shane Yost, Joonho Lee, David Small,
  Daniel Levine, Susi Lehtola, Hugh Burton, Evgeny Epifanovsky,
  Bang C. Huynh
 -----------------------------------------------------------------------
 Exchange:     0.1670 Hartree-Fock + 1.0000 wB97X-V + LR-HF
 Correlation:  1.0000 wB97X-V
 Using Euler-Maclaurin-Lebedev (99,590) quadrature formula
 Nonlocal Correlation:  VV10 with C = 0.0100 and b = 6.00 and scale = 1.00000
 Grid used for NLC:  SG-1 standard quadrature
 using 16 threads for integral computing
 -------------------------------------------------------
 OpenMP Integral computing Module                
 Release: version 1.0, May 2013, Q-Chem Inc. Pittsburgh 
 -------------------------------------------------------
 -------------------------------------------------------
 OpenMP BLAS3 based DFT computing Module                
 Release: version 1.0, May 2013, Q-Chem Inc. Pittsburgh 
 -------------------------------------------------------
 A restricted SCF calculation will be
 performed using DIIS
 SCF converges when DIIS error is below 1.0e-05
 ---------------------------------------
  Cycle       Energy         DIIS error
 ---------------------------------------
    1    -464.9540623866      2.76e-02  
    2    -462.2922062174      2.84e-03  
    3    -462.2729961122      3.48e-03  
    4    -462.4204031318      4.23e-04  
    5    -462.4230284693      1.90e-04  
    6    -462.4236626491      4.30e-05  
    7    -462.4237102253      1.78e-05  
    8    -462.4237202236      7.71e-06  Convergence criterion met
 ---------------------------------------
 SCF time:   CPU 602.39s  wall 38.00s 
 SCF   energy in the final basis set =     -462.4237202236
 Total energy in the final basis set =     -462.4237202236
 
 --------------------------------------------------------------
 
                    Orbital Energies (a.u.)
 --------------------------------------------------------------
 
 Alpha MOs
 -- Occupied --
-19.2479 -19.1943 -10.3502 -10.3372 -10.3240 -10.2961 -10.2902 -10.2841
-10.2830 -10.2796  -1.2059  -1.1643  -0.9665  -0.9172  -0.8707  -0.8460
 -0.7682  -0.7492  -0.6877  -0.6647  -0.6406  -0.6111  -0.5923  -0.5775
 -0.5756  -0.5553  -0.5240  -0.5179  -0.5149  -0.5120  -0.4860  -0.4810
 -0.4771  -0.4484  -0.4263  -0.3563  -0.3308  -0.3153
 -- Virtual --
  0.0136   0.0658   0.1101   0.1142   0.1182   0.1371   0.1459   0.1652
  0.1667   0.1803   0.1818   0.1848   0.1911   0.2053   0.2101   0.2273
  0.2349   0.2575   0.2625   0.2715   0.2825   0.2891   0.2966   0.3148
  0.3233   0.3277   0.3404   0.3470   0.3524   0.3718   0.3797   0.3887
  0.4038   0.4123   0.4171   0.4290   0.4386   0.4600   0.4674   0.4688
  0.4807   0.4839   0.4949   0.5026   0.5151   0.5182   0.5246   0.5258
  0.5343   0.5410   0.5443   0.5581   0.5611   0.5819   0.5835   0.5903
  0.5955   0.6120   0.6322   0.6416   0.6470   0.6575   0.6721   0.6833
  0.6958   0.7029   0.7163   0.7189   0.7396   0.7479   0.7543   0.7695
  0.8028   0.8112   0.8291   0.8495   0.8721   0.8904   0.9022   0.9111
  0.9406   0.9568   0.9769   0.9910   1.0131   1.0178   1.0343   1.0499
  1.0573   1.0696   1.0848   1.0927   1.1132   1.1208   1.1352   1.1473
  1.1618   1.1698   1.1856   1.2177   1.2496   1.2524   1.2746   1.2798
  1.2889   1.3120   1.3261   1.3360   1.3684   1.3790   1.4230   1.4298
  1.4367   1.4823   1.4879   1.5186   1.5371   1.5624   1.5712   1.5769
  1.5882   1.5952   1.6137   1.6219   1.6421   1.6458   1.6623   1.6667
  1.6850   1.6969   1.7116   1.7337   1.7411   1.7506   1.7659   1.7800
  1.7852   1.7900   1.8066   1.8225   1.8595   1.8738   1.8930   1.8991
  1.9097   1.9202   1.9577   1.9895   2.0085   2.0310   2.0330   2.0499
  2.0578   2.0926   2.1112   2.1169   2.1389   2.1662   2.1799   2.1834
  2.2219   2.2271   2.2392   2.2631   2.2904   2.3285   2.3447   2.3645
  2.3666   2.3851   2.3886   2.3999   2.4038   2.4361   2.4647   2.4701
  2.5059   2.5104   2.5201   2.5379   2.5623   2.5646   2.5930   2.6092
  2.6175   2.6303   2.6503   2.6729   2.6761   2.6872   2.7040   2.7123
  2.7284   2.7406   2.7466   2.7760   2.7894   2.7983   2.8026   2.8101
  2.8161   2.8502   2.8575   2.8850   2.8991   2.9050   2.9093   2.9326
  2.9379   2.9676   2.9727   3.0089   3.0299   3.0434   3.0611   3.0717
  3.1018   3.1210   3.1322   3.1360   3.1525   3.1626   3.1763   3.1905
  3.2079   3.2198   3.2430   3.2458   3.2644   3.2708   3.3047   3.3118
  3.3264   3.3327   3.3442   3.3514   3.3686   3.3762   3.3843   3.3960
  3.4111   3.4250   3.4429   3.4572   3.4665   3.4767   3.4861   3.5071
  3.5203   3.5294   3.5475   3.5589   3.5717   3.5880   3.5988   3.6200
  3.6329   3.6571   3.6737   3.6797   3.6919   3.7050   3.7154   3.7496
  3.7642   3.7663   3.8094   3.8216   3.8654   3.9014   3.9282   3.9525
  3.9956   4.0177   4.0528   4.0549   4.1480   4.1502   4.1674   4.1985
  4.2305   4.2576   4.2708   4.2985   4.3172   4.3261   4.3588   4.3768
  4.3921   4.4129   4.4389   4.4807   4.4973   4.5321   4.6262   4.6456
  4.6840   4.7037   4.7203   4.7822   4.7954   4.8216   4.8856   4.9326
  4.9467   4.9680   5.0523   5.0920   5.1920   5.2406   5.3083   5.3268
  5.4694   5.6196   5.6783   5.7850   5.8718   6.0087   6.0295   6.2168
  6.4099   6.4594   6.4737   6.5470   6.5563   6.5914   6.7619   6.8644
  6.9290   6.9700   7.0738   7.1782   7.2638   7.4818  22.3545  22.4385
 22.4847  22.5824  22.7262  22.8301  23.0017  23.1646  43.9360  44.2861
 --------------------------------------------------------------
 
          Ground-State Mulliken Net Atomic Charges

     Atom                 Charge (a.u.)
  ----------------------------------------
      1 C                    -0.305646
      2 C                    -0.241470
      3 C                    -0.396629
      4 C                    -0.068597
      5 H                     0.146824
      6 H                     0.159373
      7 H                     0.128230
      8 C                    -0.163888
      9 C                     0.246643
     10 H                     0.144996
     11 H                     0.178332
     12 H                     0.143040
     13 H                     0.142647
     14 C                     0.077412
     15 O                    -0.298019
     16 H                     0.062212
     17 O                    -0.248518
     18 C                    -0.229540
     19 H                     0.138151
     20 H                     0.128512
     21 H                     0.129479
     22 H                     0.126455
  ----------------------------------------
  Sum of atomic charges =     0.000000

 -----------------------------------------------------------------
                    Cartesian Multipole Moments
 -----------------------------------------------------------------
    Charge (ESU x 10^10)
                 0.0000
    Dipole Moment (Debye)
         X      -1.5650      Y       2.3434      Z       0.0273
       Tot       2.8181
    Quadrupole Moments (Debye-Ang)
        XX     -66.5743     XY      12.9391     YY     -61.5035
        XZ       1.9714     YZ      -0.2329     ZZ     -61.0816
    Octopole Moments (Debye-Ang^2)
       XXX     -20.2693    XXY       9.0399    XYY     -25.6999
       YYY      12.0671    XXZ      -0.2649    XYZ       3.2670
       YYZ      -5.7885    XZZ       1.4069    YZZ      -3.8607
       ZZZ      -3.1878
    Hexadecapole Moments (Debye-Ang^3)
      XXXX   -1272.7523   XXXY      84.0304   XXYY    -366.1450
      XYYY      50.0734   YYYY    -783.7910   XXXZ      21.3750
      XXYZ       7.9556   XYYZ       7.6767   YYYZ      -8.3341
      XXZZ    -246.3812   XYZZ       1.6285   YYZZ    -165.0857
      XZZZ      13.7633   YZZZ      -2.7787   ZZZZ    -199.5897
 -----------------------------------------------------------------
 Total job time:  38.57s(wall), 606.35s(cpu) 
 Tue Jun 21 14:56:12 2022

        *************************************************************
        *                                                           *
        *  Thank you very much for using Q-Chem.  Have a nice day.  *
        *                                                           *
        *************************************************************


remove work dirs /tmp/qchem3180387.0 -- /tmp/qchem3180387.-1
rm -rf /tmp/qchem3180387
