You are running Q-Chem version: 5.4.1

#
# job setting
#
local host:  node11.cluster
current dir: /home/rpaton/opt
input file:  /home/rpaton/opt/DATS_13_endo_iii_TZVP.qcin
output file: 
nprocs     : 0
nthreads   : 16
#
# qchem installation setting
#
QC:          /opt/apps/qchem
QCAUX:       /opt/apps/qchem/qcaux
QCPROG:      /opt/apps/qchem/exe/qcprog.exe_s
QCPROG_S:    /opt/apps/qchem/exe/qcprog.exe_s
PARALLEL:    -DSERIAL
QCMPI:       seq
#
# qchem directory setting
#
qcrun:       qchem3398345
QCSCRATCH:   /tmp
QCLOCALSCR:  
QCTMPDIR:    /tmp
QCFILEPREF:  /tmp/qchem3398345
QCSAVEDIR:   
workdirs:    /tmp/qchem3398345
workdir0:    /tmp/qchem3398345
partmpdirs =  
#
# parallel setting
#
QCRSH:           ssh
QCMPI:           seq
QCMPIRUN:        
QCMACHINEFILE:   /tmp/qchem3398345/hostfile

#
# env setting
#
exported envs:   QC QCAUX QCSCRATCH QCRUNNAME QCFILEPREF QCPROG QCPROG_S GUIFILE

Running Job 1 of 1 /home/rpaton/opt/DATS_13_endo_iii_TZVP.qcin
qchem /home/rpaton/opt/DATS_13_endo_iii_TZVP.qcin_3398345.0 /tmp/qchem3398345/ 0
/opt/apps/qchem/exe/qcprog.exe_s /home/rpaton/opt/DATS_13_endo_iii_TZVP.qcin_3398345.0 /tmp/qchem3398345/
                  Welcome to Q-Chem
     A Quantum Leap Into The Future Of Chemistry


 Q-Chem 5.4, Q-Chem, Inc., Pleasanton, CA (2021)

 E. Epifanovsky,  A. T. B. Gilbert,  Xintian Feng,  Joonho Lee,  Yuezhi Mao,  
 N. Mardirossian,  P. Pokhilko,  A. White,  M. Wormit,  M. P. Coons,  
 A. L. Dempwolff,  Zhengting Gan,  D. Hait,  P. R. Horn,  L. D. Jacobson,  
 I. Kaliman,  J. Kussmann,  A. W. Lange,  Ka Un Lao,  D. S. Levine,  Jie Liu,  
 S. C. McKenzie,  A. F. Morrison,  K. Nanda,  F. Plasser,  D. R. Rehn,  
 M. L. Vidal,  Zhi-Qiang You,  Ying Zhu,  B. Alam,  B. Albrecht,  
 A. Aldossary,  E. Alguire,  J. H. Andersen,  D. Barton,  K. Begam,  A. Behn,  
 Y. A. Bernard,  E. J. Berquist,  H. Burton,  A. Carreras,  K. Carter-Fenk,  
 R. Chakraborty,  A. D. Chien,  K. D. Closser,  V. Cofer-Shabica,  
 S. Dasgupta,  Jia Deng,  M. de Wergifosse,  M. Diedenhofen,  Hainam Do,  
 S. Ehlert,  Po-Tung Fang,  S. Fatehi,  Qingguo Feng,  T. Friedhoff,  
 J. Gayvert,  Qinghui Ge,  G. Gidofalvi,  M. Goldey,  J. Gomes,  
 C. Gonzalez-Espinoza,  S. Gulania,  A. Gunina,  M. W. D. Hanson-Heine,  
 P. H. P. Harbach,  A. W. Hauser,  M. F. Herbst,  M. Hernandez Vera,  
 M. Hodecker,  Z. C. Holden,  S. Houck,  Xunkun Huang,  Kerwin Hui,  
 B. C. Huynh,  M. Ivanov,  Hyunjun Ji,  Hanjie Jiang,  B. Kaduk,  S. Kaehler,  
 K. Khistyaev,  Jaehoon Kim,  P. Klunzinger,  Z. Koczor-Benda,  
 Joong Hoon Koh,  D. Kosenkov,  L. Koulias,  T. Kowalczyk,  C. M. Krauter,  
 K. Kue,  A. Kunitsa,  T. Kus,  A. Landau,  K. V. Lawler,  D. Lefrancois,  
 S. Lehtola,  Rain Li,  Yi-Pei Li,  Jiashu Liang,  M. Liebenthal,  
 Hung-Hsuan Lin,  You-Sheng Lin,  Fenglai Liu,  Kuan-Yu Liu,  
 M. Loipersberger,  A. Luenser,  A. Manjanath,  P. Manohar,  E. Mansoor,  
 S. F. Manzer,  Shan-Ping Mao,  A. V. Marenich,  T. Markovich,  S. Mason,  
 S. A. Maurer,  P. F. McLaughlin,  M. F. S. J. Menger,  J.-M. Mewes,  
 S. A. Mewes,  P. Morgante,  J. W. Mullinax,  K. J. Oosterbaan,  G. Paran,  
 Alexander C. Paul,  Suranjan K. Paul,  F. Pavosevic,  Zheng Pei,  S. Prager,  
 E. I. Proynov,  E. Ramos,  B. Rana,  A. E. Rask,  A. Rettig,  R. M. Richard,  
 F. Rob,  E. Rossomme,  T. Scheele,  M. Scheurer,  M. Schneider,  
 N. Sergueev,  S. M. Sharada,  W. Skomorowski,  D. W. Small,  C. J. Stein,  
 Yu-Chuan Su,  E. J. Sundstrom,  Zhen Tao,  J. Thirman,  T. Tsuchimochi,  
 N. M. Tubman,  S. P. Veccham,  O. Vydrov,  J. Wenzel,  J. Witte,  A. Yamada,  
 Kun Yao,  S. Yeganeh,  S. R. Yost,  A. Zech,  Igor Ying Zhang,  Xing Zhang,  
 Yu Zhang,  D. Zuev,  A. Aspuru-Guzik,  A. T. Bell,  N. A. Besley,  
 K. B. Bravaya,  B. R. Brooks,  D. Casanova,  Jeng-Da Chai,  S. Coriani,  
 C. J. Cramer,  A. E. DePrince, III,  R. A. DiStasio Jr.,  A. Dreuw,  
 B. D. Dunietz,  T. R. Furlani,  W. A. Goddard III,  S. Grimme,  
 S. Hammes-Schiffer,  T. Head-Gordon,  W. J. Hehre,  Chao-Ping Hsu,  
 T.-C. Jagau,  Yousung Jung,  A. Klamt,  Jing Kong,  D. S. Lambrecht,  
 WanZhen Liang,  N. J. Mayhall,  C. W. McCurdy,  J. B. Neaton,  
 C. Ochsenfeld,  J. A. Parkhill,  R. Peverati,  V. A. Rassolov,  Yihan Shao,  
 L. V. Slipchenko,  T. Stauch,  R. P. Steele,  J. E. Subotnik,  
 A. J. W. Thom,  A. Tkatchenko,  D. G. Truhlar,  T. Van Voorhis,  
 T. A. Wesolowski,  K. B. Whaley,  H. L. Woodcock III,  P. M. Zimmerman,  
 S. Faraji,  P. M. W. Gill,  M. Head-Gordon,  J. M. Herbert,  A. I. Krylov

 Additional authors for Version 5.4.1: 
 S. Kotaru,  Shaozhi Li,  Xiangyuan Li,  F. Matz,  A. Molle,  Haisheng Ren,  
 Yingli Su,  Hung-Yi Tsai,  C. Utku,  Fang Wang

 Contributors to earlier versions of Q-Chem not listed above: 
 R. D. Adamson,  B. Austin,  R. Baer,  J. Baker,  G. J. O. Beran,  
 K. Brandhorst,  S. T. Brown,  E. F. C. Byrd,  A. K. Chakraborty,  
 G. K. L. Chan,  Chun-Min Chang,  Yunqing Chen,  C.-L. Cheng,  
 Siu Hung Chien,  D. M. Chipman,  D. L. Crittenden,  H. Dachsel,  
 R. J. Doerksen,  A. D. Dutoi,  R. G. Edgar,  J. Fosso-Tande,  
 L. Fusti-Molnar,  D. Ghosh,  A. Ghysels,  A. Golubeva-Zadorozhnaya,  
 J. Gonthier,  M. S. Gordon,  S. R. Gwaltney,  G. Hawkins,  J. E. Herr,  
 A. Heyden,  S. Hirata,  E. G. Hohenstein,  G. Kedziora,  F. J. Keil,  
 C. Kelley,  Jihan Kim,  R. A. King,  R. Z. Khaliullin,  P. P. Korambath,  
 W. Kurlancheek,  A. Laurent,  A. M. Lee,  M. S. Lee,  S. V. Levchenko,  
 Ching Yeh Lin,  D. Liotard,  E. Livshits,  R. C. Lochan,  I. Lotan,  
 L. A. Martinez-Martinez,  P. E. Maslen,  N. Nair,  D. P. O'Neill,  
 D. Neuhauser,  E. Neuscamman,  C. M. Oana,  R. Olivares-Amaya,  R. Olson,  
 T. M. Perrine,  B. Peters,  P. A. Pieniazek,  A. Prociuk,  Y. M. Rhee,  
 J. Ritchie,  M. A. Rohrdanz,  E. Rosta,  N. J. Russ,  H. F. Schaefer III,  
 M. W. Schmidt,  N. E. Schultz,  S. Sharma,  N. Shenvi,  C. D. Sherrill,  
 A. C. Simmonett,  A. Sodt,  T. Stein,  D. Stuck,  K. S. Thanthiriwatte,  
 V. Vanovschi,  L. Vogt,  Tao Wang,  A. Warshel,  M. A. Watson,  
 C. F. Williams,  Q. Wu,  X. Xu,  Jun Yang,  W. Zhang,  Yan Zhao

 Please cite Q-Chem as follows:
 Y. Shao et al., Mol. Phys. 113, 184-215 (2015)
 DOI: 10.1080/00268976.2014.952696

 Q-Chem 5.4.1 for Intel X86 EM64T Linux

 Parts of Q-Chem use Armadillo 9.800.1 (Horizon Scraper).
 http://arma.sourceforge.net/

 Q-Chem begins on Tue Jun 21 14:55:33 2022  

 Host: 
0

     Scratch files written to /tmp/qchem3398345//
 Aug1521 |scratch|qcdevops|jenkins|workspace|build_RNUM 8286   
 Processing $rem in /opt/apps/qchem/config/preferences:
 Processing $rem in /home/rpaton/.qchemrc:

 Checking the input file for inconsistencies... 	...done.

--------------------------------------------------------------
User input:
--------------------------------------------------------------
$molecule
0 1
C  1.592419  1.385897  -0.726054
C  -0.257361  2.307206  0.024929
C  0.023828  -0.104371  1.501304
C  1.873774  0.26925  0.034707
H  1.194235  1.25507  -1.727926
H  2.139471  2.308051  -0.559591
H  2.556282  0.320037  0.87846
C  -1.172437  1.285835  -0.092804
C  -1.022524  0.076516  0.629181
H  -0.359972  3.184215  -0.607277
H  0.194585  -1.088632  1.924019
H  0.279207  2.476365  0.951162
H  0.467603  0.738436  2.011039
C  1.610821  -1.075616  -0.504492
O  2.130197  -2.097947  -0.118888
H  0.873249  -1.084587  -1.340973
O  -1.763097  -1.038143  0.356285
C  -2.622668  -1.018114  -0.760354
H  -3.067595  -2.011662  -0.813382
H  -3.420111  -0.273898  -0.64524
H  -2.07354  -0.81796  -1.689453
H  -1.875321  1.323667  -0.918519
$end

$rem
METHOD wB97X-V
BASIS def2-TZVP
XC_GRID 000099000590
MEM_TOTAL          8000
MEM_STATIC         4000
$end

--------------------------------------------------------------
 ----------------------------------------------------------------
             Standard Nuclear Orientation (Angstroms)
    I     Atom           X                Y                Z
 ----------------------------------------------------------------
    1      C       1.5924184347     1.3858975004    -0.7260541010
    2      C      -0.2573619269     2.3072059072     0.0249287362
    3      C       0.0238279373    -0.1043707978     1.5013040535
    4      C       1.8737738330     0.2692507033     0.0347070495
    5      H       1.1942345074     1.2550702229    -1.7279260937
    6      H       2.1394700868     2.3080517259    -0.5595912067
    7      H       2.5562817939     0.3200380665     0.8784600593
    8      C      -1.1724375431     1.2858345508    -0.0928041541
    9      C      -1.0225241093     0.0765156997     0.6291810052
   10      H      -0.3599732389     3.1842147875    -0.6072773792
   11      H       0.1945852943    -1.0886316797     1.9240191843
   12      H       0.2792059879     2.4763652266     0.9511617272
   13      H       0.4676026108     0.7384364334     2.0110389555
   14      C       1.6108213474    -1.0756154642    -0.5044917836
   15      O       2.1301977195    -2.0979462208    -0.1188876395
   16      H       0.8732493707    -1.0845868470    -1.3409728000
   17      O      -1.7630966871    -1.0381436117     0.3562851311
   18      C      -2.6226676679    -1.0181150761    -0.7603538920
   19      H      -3.0675942961    -2.0116632488    -0.8133817747
   20      H      -3.4201109482    -0.2738993587    -0.6452400069
   21      H      -2.0735397204    -0.8179609909    -1.6894529047
   22      H      -1.8753215375     1.3236661823    -0.9185191757
 ----------------------------------------------------------------
 Molecular Point Group                 C1    NOp =  1
 Largest Abelian Subgroup              C1    NOp =  1
 Nuclear Repulsion Energy =         531.72819419 hartrees
 There are       38 alpha and       38 beta electrons
 Requested basis set is def2-TZVP
 There are 158 shells and 382 basis functions

 Total QAlloc Memory Limit   8000 MB
 Mega-Array Size      3911 MB
 MEM_STATIC part      4000 MB
 A cutoff of  1.0D-08 yielded  10025 shell pairs
 There are     58171 function pairs (     73905 Cartesian)
 Smallest overlap matrix eigenvalue = 5.75E-05

 Q-Chem warning in module stvman/mkSTV.C, line 323:

 Overlap eigenvalue is smaller than square root of threshold
 Use THRESH >= 12 to get rid of this warning


 Scale SEOQF with 1.000000e-01/1.000000e-01/1.000000e-01

 Standard Electronic Orientation quadrupole field applied
 Nucleus-field energy     =     0.0000000130 hartrees
 Guess from superposition of atomic densities
 Warning:  Energy on first SCF cycle will be non-variational
 SAD guess density has 76.000000 electrons

 -----------------------------------------------------------------------
  General SCF calculation program by
  Eric Jon Sundstrom, Paul Horn, Yuezhi Mao, Dmitri Zuev, Alec White,
  David Stuck, Shaama M.S., Shane Yost, Joonho Lee, David Small,
  Daniel Levine, Susi Lehtola, Hugh Burton, Evgeny Epifanovsky,
  Bang C. Huynh
 -----------------------------------------------------------------------
 Exchange:     0.1670 Hartree-Fock + 1.0000 wB97X-V + LR-HF
 Correlation:  1.0000 wB97X-V
 Using Euler-Maclaurin-Lebedev (99,590) quadrature formula
 Nonlocal Correlation:  VV10 with C = 0.0100 and b = 6.00 and scale = 1.00000
 Grid used for NLC:  SG-1 standard quadrature
 using 16 threads for integral computing
 -------------------------------------------------------
 OpenMP Integral computing Module                
 Release: version 1.0, May 2013, Q-Chem Inc. Pittsburgh 
 -------------------------------------------------------
 -------------------------------------------------------
 OpenMP BLAS3 based DFT computing Module                
 Release: version 1.0, May 2013, Q-Chem Inc. Pittsburgh 
 -------------------------------------------------------
 A restricted SCF calculation will be
 performed using DIIS
 SCF converges when DIIS error is below 1.0e-05
 ---------------------------------------
  Cycle       Energy         DIIS error
 ---------------------------------------
    1    -464.9250770258      2.76e-02  
    2    -462.2864804265      2.88e-03  
    3    -462.2667266019      3.53e-03  
    4    -462.4186709702      4.29e-04  
    5    -462.4214249387      1.87e-04  
    6    -462.4220408319      4.75e-05  
    7    -462.4220940855      1.95e-05  
    8    -462.4221053035      7.53e-06  Convergence criterion met
 ---------------------------------------
 SCF time:   CPU 610.80s  wall 39.00s 
 SCF   energy in the final basis set =     -462.4221053035
 Total energy in the final basis set =     -462.4221053035
 
 --------------------------------------------------------------
 
                    Orbital Energies (a.u.)
 --------------------------------------------------------------
 
 Alpha MOs
 -- Occupied --
-19.2462 -19.1887 -10.3466 -10.3385 -10.3267 -10.2980 -10.2889 -10.2850
-10.2835 -10.2792  -1.2044  -1.1597  -0.9656  -0.9162  -0.8872  -0.8203
 -0.7761  -0.7556  -0.6875  -0.6619  -0.6446  -0.6075  -0.5931  -0.5774
 -0.5728  -0.5449  -0.5294  -0.5258  -0.5127  -0.5087  -0.4991  -0.4795
 -0.4719  -0.4423  -0.4256  -0.3521  -0.3285  -0.3175
 -- Virtual --
  0.0171   0.0618   0.1011   0.1114   0.1217   0.1376   0.1490   0.1602
  0.1680   0.1739   0.1786   0.1842   0.1931   0.2052   0.2155   0.2242
  0.2430   0.2477   0.2578   0.2645   0.2794   0.2889   0.2955   0.3029
  0.3207   0.3299   0.3432   0.3548   0.3632   0.3681   0.3730   0.3987
  0.4015   0.4138   0.4258   0.4297   0.4358   0.4493   0.4625   0.4716
  0.4837   0.4937   0.4958   0.4995   0.5097   0.5138   0.5231   0.5330
  0.5404   0.5436   0.5478   0.5596   0.5620   0.5702   0.5870   0.5950
  0.6075   0.6238   0.6290   0.6349   0.6449   0.6582   0.6667   0.6763
  0.6907   0.7005   0.7189   0.7318   0.7433   0.7675   0.7693   0.7925
  0.8038   0.8137   0.8270   0.8654   0.8867   0.9063   0.9109   0.9355
  0.9387   0.9568   0.9771   0.9852   1.0057   1.0198   1.0303   1.0453
  1.0565   1.0648   1.0724   1.0993   1.1102   1.1331   1.1522   1.1706
  1.1794   1.1845   1.1959   1.2083   1.2275   1.2660   1.2813   1.2934
  1.3079   1.3235   1.3412   1.3477   1.3649   1.3695   1.4095   1.4215
  1.4447   1.4507   1.4967   1.5125   1.5414   1.5574   1.5738   1.5911
  1.5918   1.6005   1.6251   1.6302   1.6450   1.6493   1.6629   1.6823
  1.6867   1.6961   1.7143   1.7237   1.7404   1.7421   1.7521   1.7671
  1.7777   1.7848   1.8150   1.8523   1.8529   1.8657   1.8799   1.9145
  1.9275   1.9315   1.9681   1.9979   2.0140   2.0182   2.0379   2.0538
  2.0614   2.0794   2.0968   2.1124   2.1482   2.1608   2.1731   2.2062
  2.2212   2.2305   2.2554   2.2811   2.3121   2.3226   2.3418   2.3472
  2.3632   2.3761   2.3921   2.4214   2.4278   2.4355   2.4551   2.4943
  2.4990   2.5236   2.5283   2.5475   2.5613   2.5688   2.5723   2.5959
  2.6092   2.6133   2.6449   2.6537   2.6641   2.6791   2.6966   2.7104
  2.7233   2.7433   2.7480   2.7567   2.7801   2.7867   2.7994   2.8241
  2.8455   2.8464   2.8701   2.8870   2.8966   2.9110   2.9250   2.9333
  2.9526   2.9687   2.9861   3.0027   3.0300   3.0509   3.0679   3.0764
  3.0950   3.1091   3.1417   3.1557   3.1635   3.1725   3.1833   3.1918
  3.2112   3.2169   3.2256   3.2543   3.2641   3.2918   3.3015   3.3106
  3.3163   3.3321   3.3370   3.3456   3.3671   3.3792   3.3988   3.4048
  3.4156   3.4186   3.4438   3.4454   3.4630   3.4747   3.4842   3.4961
  3.5228   3.5458   3.5519   3.5628   3.5794   3.5932   3.5948   3.6144
  3.6266   3.6319   3.6402   3.6635   3.6873   3.6953   3.7045   3.7360
  3.7793   3.7960   3.7982   3.8230   3.8541   3.8709   3.9065   3.9195
  3.9865   3.9970   4.0327   4.0622   4.1452   4.1526   4.1927   4.2272
  4.2321   4.2541   4.2625   4.2689   4.2912   4.3410   4.3450   4.3653
  4.3942   4.4214   4.4297   4.4578   4.4947   4.5645   4.5995   4.6454
  4.6702   4.6861   4.7242   4.7832   4.8126   4.8740   4.8891   4.9464
  4.9719   4.9776   5.0358   5.0643   5.1622   5.2442   5.3147   5.3305
  5.4638   5.5775   5.6860   5.7957   5.8826   6.0155   6.0333   6.2357
  6.4076   6.4699   6.4762   6.5598   6.5668   6.5906   6.7680   6.8829
  6.9353   6.9850   7.0795   7.1928   7.2673   7.4764  22.3856  22.4367
 22.4757  22.5736  22.7362  22.8313  23.0441  23.1460  43.9501  44.3130
 --------------------------------------------------------------
 
          Ground-State Mulliken Net Atomic Charges

     Atom                 Charge (a.u.)
  ----------------------------------------
      1 C                    -0.296002
      2 C                    -0.275983
      3 C                    -0.311573
      4 C                    -0.092630
      5 H                     0.146171
      6 H                     0.154583
      7 H                     0.136618
      8 C                    -0.200738
      9 C                     0.215242
     10 H                     0.146694
     11 H                     0.164566
     12 H                     0.150263
     13 H                     0.153902
     14 C                     0.105157
     15 O                    -0.294458
     16 H                     0.045867
     17 O                    -0.241005
     18 C                    -0.228982
     19 H                     0.143429
     20 H                     0.126917
     21 H                     0.117121
     22 H                     0.134840
  ----------------------------------------
  Sum of atomic charges =     0.000000

 -----------------------------------------------------------------
                    Cartesian Multipole Moments
 -----------------------------------------------------------------
    Charge (ESU x 10^10)
                 0.0000
    Dipole Moment (Debye)
         X      -2.2539      Y       3.9150      Z      -1.2691
       Tot       4.6923
    Quadrupole Moments (Debye-Ang)
        XX     -63.5745     XY       9.3441     YY     -65.5729
        XZ       5.2918     YZ       0.5683     ZZ     -58.6270
    Octopole Moments (Debye-Ang^2)
       XXX     -29.0667    XXY       8.6308    XYY     -14.5435
       YYY      14.9859    XXZ      -6.6097    XYZ      -0.1180
       YYZ      -3.0165    XZZ       2.6025    YZZ      -4.0800
       ZZZ      -0.4072
    Hexadecapole Moments (Debye-Ang^3)
      XXXX   -1059.7566   XXXY      54.6758   XXYY    -328.5680
      XYYY      59.6704   YYYY    -750.1825   XXXZ      31.3728
      XXYZ       8.0185   XYYZ      12.6738   YYYZ     -10.9982
      XXZZ    -224.4174   XYZZ      -0.2699   YYZZ    -163.5171
      XZZZ       9.0280   YZZZ      -1.3065   ZZZZ    -279.4836
 -----------------------------------------------------------------
 Total job time:  39.06s(wall), 614.43s(cpu) 
 Tue Jun 21 14:56:12 2022

        *************************************************************
        *                                                           *
        *  Thank you very much for using Q-Chem.  Have a nice day.  *
        *                                                           *
        *************************************************************


remove work dirs /tmp/qchem3398345.0 -- /tmp/qchem3398345.-1
rm -rf /tmp/qchem3398345
