You are running Q-Chem version: 5.4.1

#
# job setting
#
local host:  node02.cluster
current dir: /home/rpaton/opt
input file:  /home/rpaton/opt/DATS_13_exo_i_TZVP.qcin
output file: 
nprocs     : 0
nthreads   : 16
#
# qchem installation setting
#
QC:          /opt/apps/qchem
QCAUX:       /opt/apps/qchem/qcaux
QCPROG:      /opt/apps/qchem/exe/qcprog.exe_s
QCPROG_S:    /opt/apps/qchem/exe/qcprog.exe_s
PARALLEL:    -DSERIAL
QCMPI:       seq
#
# qchem directory setting
#
qcrun:       qchem3923309
QCSCRATCH:   /tmp
QCLOCALSCR:  
QCTMPDIR:    /tmp
QCFILEPREF:  /tmp/qchem3923309
QCSAVEDIR:   
workdirs:    /tmp/qchem3923309
workdir0:    /tmp/qchem3923309
partmpdirs =  
#
# parallel setting
#
QCRSH:           ssh
QCMPI:           seq
QCMPIRUN:        
QCMACHINEFILE:   /tmp/qchem3923309/hostfile

#
# env setting
#
exported envs:   QC QCAUX QCSCRATCH QCRUNNAME QCFILEPREF QCPROG QCPROG_S GUIFILE

Running Job 1 of 1 /home/rpaton/opt/DATS_13_exo_i_TZVP.qcin
qchem /home/rpaton/opt/DATS_13_exo_i_TZVP.qcin_3923309.0 /tmp/qchem3923309/ 0
/opt/apps/qchem/exe/qcprog.exe_s /home/rpaton/opt/DATS_13_exo_i_TZVP.qcin_3923309.0 /tmp/qchem3923309/
                  Welcome to Q-Chem
     A Quantum Leap Into The Future Of Chemistry


 Q-Chem 5.4, Q-Chem, Inc., Pleasanton, CA (2021)

 E. Epifanovsky,  A. T. B. Gilbert,  Xintian Feng,  Joonho Lee,  Yuezhi Mao,  
 N. Mardirossian,  P. Pokhilko,  A. White,  M. Wormit,  M. P. Coons,  
 A. L. Dempwolff,  Zhengting Gan,  D. Hait,  P. R. Horn,  L. D. Jacobson,  
 I. Kaliman,  J. Kussmann,  A. W. Lange,  Ka Un Lao,  D. S. Levine,  Jie Liu,  
 S. C. McKenzie,  A. F. Morrison,  K. Nanda,  F. Plasser,  D. R. Rehn,  
 M. L. Vidal,  Zhi-Qiang You,  Ying Zhu,  B. Alam,  B. Albrecht,  
 A. Aldossary,  E. Alguire,  J. H. Andersen,  D. Barton,  K. Begam,  A. Behn,  
 Y. A. Bernard,  E. J. Berquist,  H. Burton,  A. Carreras,  K. Carter-Fenk,  
 R. Chakraborty,  A. D. Chien,  K. D. Closser,  V. Cofer-Shabica,  
 S. Dasgupta,  Jia Deng,  M. de Wergifosse,  M. Diedenhofen,  Hainam Do,  
 S. Ehlert,  Po-Tung Fang,  S. Fatehi,  Qingguo Feng,  T. Friedhoff,  
 J. Gayvert,  Qinghui Ge,  G. Gidofalvi,  M. Goldey,  J. Gomes,  
 C. Gonzalez-Espinoza,  S. Gulania,  A. Gunina,  M. W. D. Hanson-Heine,  
 P. H. P. Harbach,  A. W. Hauser,  M. F. Herbst,  M. Hernandez Vera,  
 M. Hodecker,  Z. C. Holden,  S. Houck,  Xunkun Huang,  Kerwin Hui,  
 B. C. Huynh,  M. Ivanov,  Hyunjun Ji,  Hanjie Jiang,  B. Kaduk,  S. Kaehler,  
 K. Khistyaev,  Jaehoon Kim,  P. Klunzinger,  Z. Koczor-Benda,  
 Joong Hoon Koh,  D. Kosenkov,  L. Koulias,  T. Kowalczyk,  C. M. Krauter,  
 K. Kue,  A. Kunitsa,  T. Kus,  A. Landau,  K. V. Lawler,  D. Lefrancois,  
 S. Lehtola,  Rain Li,  Yi-Pei Li,  Jiashu Liang,  M. Liebenthal,  
 Hung-Hsuan Lin,  You-Sheng Lin,  Fenglai Liu,  Kuan-Yu Liu,  
 M. Loipersberger,  A. Luenser,  A. Manjanath,  P. Manohar,  E. Mansoor,  
 S. F. Manzer,  Shan-Ping Mao,  A. V. Marenich,  T. Markovich,  S. Mason,  
 S. A. Maurer,  P. F. McLaughlin,  M. F. S. J. Menger,  J.-M. Mewes,  
 S. A. Mewes,  P. Morgante,  J. W. Mullinax,  K. J. Oosterbaan,  G. Paran,  
 Alexander C. Paul,  Suranjan K. Paul,  F. Pavosevic,  Zheng Pei,  S. Prager,  
 E. I. Proynov,  E. Ramos,  B. Rana,  A. E. Rask,  A. Rettig,  R. M. Richard,  
 F. Rob,  E. Rossomme,  T. Scheele,  M. Scheurer,  M. Schneider,  
 N. Sergueev,  S. M. Sharada,  W. Skomorowski,  D. W. Small,  C. J. Stein,  
 Yu-Chuan Su,  E. J. Sundstrom,  Zhen Tao,  J. Thirman,  T. Tsuchimochi,  
 N. M. Tubman,  S. P. Veccham,  O. Vydrov,  J. Wenzel,  J. Witte,  A. Yamada,  
 Kun Yao,  S. Yeganeh,  S. R. Yost,  A. Zech,  Igor Ying Zhang,  Xing Zhang,  
 Yu Zhang,  D. Zuev,  A. Aspuru-Guzik,  A. T. Bell,  N. A. Besley,  
 K. B. Bravaya,  B. R. Brooks,  D. Casanova,  Jeng-Da Chai,  S. Coriani,  
 C. J. Cramer,  A. E. DePrince, III,  R. A. DiStasio Jr.,  A. Dreuw,  
 B. D. Dunietz,  T. R. Furlani,  W. A. Goddard III,  S. Grimme,  
 S. Hammes-Schiffer,  T. Head-Gordon,  W. J. Hehre,  Chao-Ping Hsu,  
 T.-C. Jagau,  Yousung Jung,  A. Klamt,  Jing Kong,  D. S. Lambrecht,  
 WanZhen Liang,  N. J. Mayhall,  C. W. McCurdy,  J. B. Neaton,  
 C. Ochsenfeld,  J. A. Parkhill,  R. Peverati,  V. A. Rassolov,  Yihan Shao,  
 L. V. Slipchenko,  T. Stauch,  R. P. Steele,  J. E. Subotnik,  
 A. J. W. Thom,  A. Tkatchenko,  D. G. Truhlar,  T. Van Voorhis,  
 T. A. Wesolowski,  K. B. Whaley,  H. L. Woodcock III,  P. M. Zimmerman,  
 S. Faraji,  P. M. W. Gill,  M. Head-Gordon,  J. M. Herbert,  A. I. Krylov

 Additional authors for Version 5.4.1: 
 S. Kotaru,  Shaozhi Li,  Xiangyuan Li,  F. Matz,  A. Molle,  Haisheng Ren,  
 Yingli Su,  Hung-Yi Tsai,  C. Utku,  Fang Wang

 Contributors to earlier versions of Q-Chem not listed above: 
 R. D. Adamson,  B. Austin,  R. Baer,  J. Baker,  G. J. O. Beran,  
 K. Brandhorst,  S. T. Brown,  E. F. C. Byrd,  A. K. Chakraborty,  
 G. K. L. Chan,  Chun-Min Chang,  Yunqing Chen,  C.-L. Cheng,  
 Siu Hung Chien,  D. M. Chipman,  D. L. Crittenden,  H. Dachsel,  
 R. J. Doerksen,  A. D. Dutoi,  R. G. Edgar,  J. Fosso-Tande,  
 L. Fusti-Molnar,  D. Ghosh,  A. Ghysels,  A. Golubeva-Zadorozhnaya,  
 J. Gonthier,  M. S. Gordon,  S. R. Gwaltney,  G. Hawkins,  J. E. Herr,  
 A. Heyden,  S. Hirata,  E. G. Hohenstein,  G. Kedziora,  F. J. Keil,  
 C. Kelley,  Jihan Kim,  R. A. King,  R. Z. Khaliullin,  P. P. Korambath,  
 W. Kurlancheek,  A. Laurent,  A. M. Lee,  M. S. Lee,  S. V. Levchenko,  
 Ching Yeh Lin,  D. Liotard,  E. Livshits,  R. C. Lochan,  I. Lotan,  
 L. A. Martinez-Martinez,  P. E. Maslen,  N. Nair,  D. P. O'Neill,  
 D. Neuhauser,  E. Neuscamman,  C. M. Oana,  R. Olivares-Amaya,  R. Olson,  
 T. M. Perrine,  B. Peters,  P. A. Pieniazek,  A. Prociuk,  Y. M. Rhee,  
 J. Ritchie,  M. A. Rohrdanz,  E. Rosta,  N. J. Russ,  H. F. Schaefer III,  
 M. W. Schmidt,  N. E. Schultz,  S. Sharma,  N. Shenvi,  C. D. Sherrill,  
 A. C. Simmonett,  A. Sodt,  T. Stein,  D. Stuck,  K. S. Thanthiriwatte,  
 V. Vanovschi,  L. Vogt,  Tao Wang,  A. Warshel,  M. A. Watson,  
 C. F. Williams,  Q. Wu,  X. Xu,  Jun Yang,  W. Zhang,  Yan Zhao

 Please cite Q-Chem as follows:
 Y. Shao et al., Mol. Phys. 113, 184-215 (2015)
 DOI: 10.1080/00268976.2014.952696

 Q-Chem 5.4.1 for Intel X86 EM64T Linux

 Parts of Q-Chem use Armadillo 9.800.1 (Horizon Scraper).
 http://arma.sourceforge.net/

 Q-Chem begins on Tue Jun 21 14:55:34 2022  

 Host: 
0

     Scratch files written to /tmp/qchem3923309//
 Aug1521 |scratch|qcdevops|jenkins|workspace|build_RNUM 8286   
 Processing $rem in /opt/apps/qchem/config/preferences:
 Processing $rem in /home/rpaton/.qchemrc:

 Checking the input file for inconsistencies... 	...done.

--------------------------------------------------------------
User input:
--------------------------------------------------------------
$molecule
0 1
C  -1.303938  1.128337  1.009288
C  -0.21994  1.642456  -0.736804
C  0.129669  -1.180381  -0.705184
C  -1.406518  -0.249262  1.048597
H  -0.692104  1.647131  1.738688
H  -2.148685  1.681289  0.60835
H  -0.847223  -0.847279  1.758677
C  1.02113  1.074371  -0.53753
C  1.179881  -0.331808  -0.465705
H  -0.29974  2.725889  -0.742598
H  0.264344  -2.242544  -0.528572
H  -0.999016  1.128395  -1.293358
H  -0.684516  -0.880813  -1.349053
C  -2.474354  -0.893776  0.283519
O  -3.119375  -0.324243  -0.579418
H  -2.657923  -1.964723  0.504944
O  2.324247  -0.917067  0.001728
C  3.353873  -0.086213  0.486074
H  4.141189  -0.755561  0.833321
H  3.757336  0.560846  -0.302352
H  3.013504  0.53647  1.323049
H  1.835046  1.719041  -0.223108
$end

$rem
METHOD wB97X-V
BASIS def2-TZVP
XC_GRID 000099000590
MEM_TOTAL          8000
MEM_STATIC         4000
$end

--------------------------------------------------------------
 ----------------------------------------------------------------
             Standard Nuclear Orientation (Angstroms)
    I     Atom           X                Y                Z
 ----------------------------------------------------------------
    1      C       1.3039380437     1.1283371071    -1.0092878785
    2      C       0.2199400088     1.6424558535     0.7368041745
    3      C      -0.1296688812    -1.1803811562     0.7051838296
    4      C       1.4065180976    -0.2492618841    -1.0485970445
    5      H       0.6921040298     1.6471311717    -1.7386878209
    6      H       2.1486850188     1.6812890914    -0.6083498043
    7      H       0.8472231269    -0.8472788199    -1.7586771217
    8      C      -1.0211299674     1.0743708294     0.5375300951
    9      C      -1.1798809121    -0.3318081680     0.4657049234
   10      H       0.2997399667     2.7258888559     0.7425983064
   11      H      -0.2643438384    -2.2425441401     0.5285716998
   12      H       0.9990160240     1.1283948164     1.2933581189
   13      H       0.6845161016    -0.8808132026     1.3490528729
   14      C       2.4743541161    -0.8937759353    -0.2835191134
   15      O       3.1193750866    -0.3242430147     0.5794179611
   16      H       2.6579231596    -1.9647229013    -0.5049442416
   17      O      -2.3242468854    -0.9170671559    -0.0017281573
   18      C      -3.3538729135    -0.0862131372    -0.4860740654
   19      H      -4.1411888846    -0.7555611258    -0.8333211532
   20      H      -3.7573359454     0.5608457516     0.3023520095
   21      H      -3.0135039306     0.5364699774    -1.3230489871
   22      H      -1.8350459898     1.7190408359     0.2231081662
 ----------------------------------------------------------------
 Molecular Point Group                 C1    NOp =  1
 Largest Abelian Subgroup              C1    NOp =  1
 Nuclear Repulsion Energy =         526.73369500 hartrees
 There are       38 alpha and       38 beta electrons
 Requested basis set is def2-TZVP
 There are 158 shells and 382 basis functions

 Total QAlloc Memory Limit   8000 MB
 Mega-Array Size      3911 MB
 MEM_STATIC part      4000 MB
 A cutoff of  1.0D-08 yielded   9872 shell pairs
 There are     57432 function pairs (     73054 Cartesian)
 Smallest overlap matrix eigenvalue = 5.93E-05

 Q-Chem warning in module stvman/mkSTV.C, line 323:

 Overlap eigenvalue is smaller than square root of threshold
 Use THRESH >= 12 to get rid of this warning


 Scale SEOQF with 1.000000e-01/1.000000e-01/1.000000e-01

 Standard Electronic Orientation quadrupole field applied
 Nucleus-field energy     =     0.0000000129 hartrees
 Guess from superposition of atomic densities
 Warning:  Energy on first SCF cycle will be non-variational
 SAD guess density has 76.000000 electrons

 -----------------------------------------------------------------------
  General SCF calculation program by
  Eric Jon Sundstrom, Paul Horn, Yuezhi Mao, Dmitri Zuev, Alec White,
  David Stuck, Shaama M.S., Shane Yost, Joonho Lee, David Small,
  Daniel Levine, Susi Lehtola, Hugh Burton, Evgeny Epifanovsky,
  Bang C. Huynh
 -----------------------------------------------------------------------
 Exchange:     0.1670 Hartree-Fock + 1.0000 wB97X-V + LR-HF
 Correlation:  1.0000 wB97X-V
 Using Euler-Maclaurin-Lebedev (99,590) quadrature formula
 Nonlocal Correlation:  VV10 with C = 0.0100 and b = 6.00 and scale = 1.00000
 Grid used for NLC:  SG-1 standard quadrature
 using 16 threads for integral computing
 -------------------------------------------------------
 OpenMP Integral computing Module                
 Release: version 1.0, May 2013, Q-Chem Inc. Pittsburgh 
 -------------------------------------------------------
 -------------------------------------------------------
 OpenMP BLAS3 based DFT computing Module                
 Release: version 1.0, May 2013, Q-Chem Inc. Pittsburgh 
 -------------------------------------------------------
 A restricted SCF calculation will be
 performed using DIIS
 SCF converges when DIIS error is below 1.0e-05
 ---------------------------------------
  Cycle       Energy         DIIS error
 ---------------------------------------
    1    -464.9360066604      2.76e-02  
    2    -462.2902201571      2.86e-03  
    3    -462.2723143034      3.47e-03  
    4    -462.4199444202      4.26e-04  
    5    -462.4225347280      1.96e-04  
    6    -462.4231768170      4.89e-05  
    7    -462.4232321477      1.95e-05  
    8    -462.4232450458      7.75e-06  Convergence criterion met
 ---------------------------------------
 SCF time:   CPU 616.21s  wall 46.00s 
 SCF   energy in the final basis set =     -462.4232450458
 Total energy in the final basis set =     -462.4232450458
 
 --------------------------------------------------------------
 
                    Orbital Energies (a.u.)
 --------------------------------------------------------------
 
 Alpha MOs
 -- Occupied --
-19.2455 -19.1909 -10.3462 -10.3363 -10.3270 -10.2935 -10.2868 -10.2838
-10.2762 -10.2744  -1.2032  -1.1601  -0.9618  -0.9104  -0.8839  -0.8195
 -0.7787  -0.7615  -0.6659  -0.6515  -0.6432  -0.6201  -0.6008  -0.5916
 -0.5525  -0.5420  -0.5276  -0.5240  -0.5142  -0.5041  -0.4916  -0.4764
 -0.4673  -0.4414  -0.4268  -0.3546  -0.3219  -0.3184
 -- Virtual --
  0.0092   0.0579   0.1046   0.1294   0.1334   0.1429   0.1532   0.1604
  0.1761   0.1784   0.1853   0.1887   0.1925   0.2026   0.2154   0.2172
  0.2520   0.2608   0.2629   0.2715   0.2832   0.2868   0.2922   0.3063
  0.3165   0.3281   0.3336   0.3474   0.3557   0.3740   0.3871   0.3950
  0.4058   0.4174   0.4294   0.4360   0.4417   0.4524   0.4666   0.4701
  0.4793   0.4888   0.4975   0.5005   0.5103   0.5183   0.5288   0.5348
  0.5387   0.5406   0.5484   0.5578   0.5643   0.5753   0.5764   0.5919
  0.6119   0.6253   0.6409   0.6430   0.6528   0.6583   0.6737   0.6984
  0.7011   0.7022   0.7192   0.7237   0.7410   0.7565   0.7661   0.7831
  0.7951   0.8114   0.8350   0.8542   0.8625   0.8811   0.8889   0.9130
  0.9342   0.9563   0.9719   0.9841   1.0170   1.0267   1.0323   1.0421
  1.0470   1.0633   1.0905   1.1042   1.1107   1.1245   1.1392   1.1508
  1.1731   1.1851   1.2058   1.2177   1.2396   1.2543   1.2652   1.2797
  1.2947   1.3104   1.3380   1.3455   1.3677   1.3745   1.4081   1.4359
  1.4556   1.4824   1.4875   1.5051   1.5372   1.5581   1.5616   1.5746
  1.5933   1.6067   1.6133   1.6215   1.6433   1.6480   1.6667   1.6882
  1.6917   1.7051   1.7099   1.7201   1.7503   1.7517   1.7700   1.7755
  1.8039   1.8176   1.8276   1.8508   1.8638   1.8789   1.8970   1.8983
  1.9218   1.9294   1.9507   1.9726   2.0092   2.0147   2.0334   2.0495
  2.0647   2.0689   2.0814   2.1045   2.1264   2.1517   2.1699   2.1842
  2.1985   2.2311   2.2348   2.2743   2.2835   2.3062   2.3210   2.3607
  2.3725   2.3740   2.3850   2.4011   2.4379   2.4445   2.4666   2.4720
  2.5001   2.5146   2.5182   2.5480   2.5667   2.5941   2.5970   2.6116
  2.6239   2.6310   2.6551   2.6604   2.6741   2.6889   2.6952   2.7175
  2.7246   2.7311   2.7525   2.7645   2.7746   2.7989   2.8043   2.8159
  2.8348   2.8498   2.8756   2.8921   2.9042   2.9184   2.9251   2.9372
  2.9477   2.9553   2.9833   3.0076   3.0185   3.0323   3.0528   3.0649
  3.0728   3.1023   3.1085   3.1400   3.1669   3.1719   3.1841   3.1963
  3.2165   3.2251   3.2288   3.2417   3.2654   3.2865   3.2982   3.3046
  3.3257   3.3396   3.3460   3.3530   3.3644   3.3731   3.3900   3.4109
  3.4236   3.4352   3.4381   3.4503   3.4542   3.4795   3.4928   3.5039
  3.5220   3.5245   3.5505   3.5604   3.5667   3.5870   3.5917   3.6123
  3.6433   3.6463   3.6587   3.6667   3.6955   3.7062   3.7170   3.7486
  3.7806   3.7950   3.8067   3.8272   3.8714   3.8898   3.9206   3.9320
  3.9441   4.0290   4.0420   4.0938   4.1356   4.1579   4.1750   4.2144
  4.2384   4.2513   4.2625   4.2654   4.2901   4.3327   4.3423   4.3702
  4.4001   4.4239   4.4472   4.4704   4.4993   4.5431   4.5743   4.6008
  4.6570   4.6852   4.7199   4.8162   4.8347   4.8898   4.9367   4.9594
  4.9850   4.9914   5.0418   5.0667   5.1687   5.2514   5.3108   5.3218
  5.4578   5.5888   5.6700   5.7847   5.8715   6.0081   6.0264   6.1921
  6.3965   6.4327   6.4908   6.5320   6.5656   6.6026   6.7551   6.8796
  6.9428   6.9725   7.0935   7.1851   7.2638   7.4783  22.3546  22.4628
 22.4948  22.5641  22.7378  22.8137  22.9592  23.1331  43.9582  44.2807
 --------------------------------------------------------------
 
          Ground-State Mulliken Net Atomic Charges

     Atom                 Charge (a.u.)
  ----------------------------------------
      1 C                    -0.244000
      2 C                    -0.282161
      3 C                    -0.395267
      4 C                    -0.151560
      5 H                     0.137413
      6 H                     0.176239
      7 H                     0.142334
      8 C                    -0.218323
      9 C                     0.294183
     10 H                     0.145273
     11 H                     0.143902
     12 H                     0.174648
     13 H                     0.188068
     14 C                     0.100537
     15 O                    -0.332522
     16 H                     0.078039
     17 O                    -0.247185
     18 C                    -0.228901
     19 H                     0.139579
     20 H                     0.126475
     21 H                     0.120033
     22 H                     0.133196
  ----------------------------------------
  Sum of atomic charges =     0.000000

 -----------------------------------------------------------------
                    Cartesian Multipole Moments
 -----------------------------------------------------------------
    Charge (ESU x 10^10)
                 0.0000
    Dipole Moment (Debye)
         X      -3.3001      Y       1.2076      Z      -1.9425
       Tot       4.0153
    Quadrupole Moments (Debye-Ang)
        XX     -66.9314     XY      -3.0043     YY     -56.8340
        XZ      -1.1430     YZ       0.6586     ZZ     -62.9314
    Octopole Moments (Debye-Ang^2)
       XXX     -70.7528    XXY       4.0677    XYY       8.2474
       YYY      -0.7493    XXZ     -19.7109    XYZ       2.3317
       YYZ      -1.3647    XZZ      -3.2120    YZZ      -2.0230
       ZZZ      -2.3430
    Hexadecapole Moments (Debye-Ang^3)
      XXXX   -1586.6283   XXXY       5.3775   XXYY    -323.3355
      XYYY      -0.7425   YYYY    -422.0596   XXXZ     -14.5995
      XXYZ      14.1133   XYYZ       3.5874   YYYZ       1.0393
      XXZZ    -314.5165   XYZZ       2.3782   YYZZ    -121.7318
      XZZZ      20.8147   YZZZ      -2.1729   ZZZZ    -272.8570
 -----------------------------------------------------------------
 Total job time:  46.10s(wall), 620.84s(cpu) 
 Tue Jun 21 14:56:20 2022

        *************************************************************
        *                                                           *
        *  Thank you very much for using Q-Chem.  Have a nice day.  *
        *                                                           *
        *************************************************************


remove work dirs /tmp/qchem3923309.0 -- /tmp/qchem3923309.-1
rm -rf /tmp/qchem3923309
