You are running Q-Chem version: 5.4.1

#
# job setting
#
local host:  node06.cluster
current dir: /home/rpaton/opt
input file:  /home/rpaton/opt/DATS_14_endo_iv_TZVP.qcin
output file: 
nprocs     : 0
nthreads   : 16
#
# qchem installation setting
#
QC:          /opt/apps/qchem
QCAUX:       /opt/apps/qchem/qcaux
QCPROG:      /opt/apps/qchem/exe/qcprog.exe_s
QCPROG_S:    /opt/apps/qchem/exe/qcprog.exe_s
PARALLEL:    -DSERIAL
QCMPI:       seq
#
# qchem directory setting
#
qcrun:       qchem3813521
QCSCRATCH:   /tmp
QCLOCALSCR:  
QCTMPDIR:    /tmp
QCFILEPREF:  /tmp/qchem3813521
QCSAVEDIR:   
workdirs:    /tmp/qchem3813521
workdir0:    /tmp/qchem3813521
partmpdirs =  
#
# parallel setting
#
QCRSH:           ssh
QCMPI:           seq
QCMPIRUN:        
QCMACHINEFILE:   /tmp/qchem3813521/hostfile

#
# env setting
#
exported envs:   QC QCAUX QCSCRATCH QCRUNNAME QCFILEPREF QCPROG QCPROG_S GUIFILE

Running Job 1 of 1 /home/rpaton/opt/DATS_14_endo_iv_TZVP.qcin
qchem /home/rpaton/opt/DATS_14_endo_iv_TZVP.qcin_3813521.0 /tmp/qchem3813521/ 0
/opt/apps/qchem/exe/qcprog.exe_s /home/rpaton/opt/DATS_14_endo_iv_TZVP.qcin_3813521.0 /tmp/qchem3813521/
                  Welcome to Q-Chem
     A Quantum Leap Into The Future Of Chemistry


 Q-Chem 5.4, Q-Chem, Inc., Pleasanton, CA (2021)

 E. Epifanovsky,  A. T. B. Gilbert,  Xintian Feng,  Joonho Lee,  Yuezhi Mao,  
 N. Mardirossian,  P. Pokhilko,  A. White,  M. Wormit,  M. P. Coons,  
 A. L. Dempwolff,  Zhengting Gan,  D. Hait,  P. R. Horn,  L. D. Jacobson,  
 I. Kaliman,  J. Kussmann,  A. W. Lange,  Ka Un Lao,  D. S. Levine,  Jie Liu,  
 S. C. McKenzie,  A. F. Morrison,  K. Nanda,  F. Plasser,  D. R. Rehn,  
 M. L. Vidal,  Zhi-Qiang You,  Ying Zhu,  B. Alam,  B. Albrecht,  
 A. Aldossary,  E. Alguire,  J. H. Andersen,  D. Barton,  K. Begam,  A. Behn,  
 Y. A. Bernard,  E. J. Berquist,  H. Burton,  A. Carreras,  K. Carter-Fenk,  
 R. Chakraborty,  A. D. Chien,  K. D. Closser,  V. Cofer-Shabica,  
 S. Dasgupta,  Jia Deng,  M. de Wergifosse,  M. Diedenhofen,  Hainam Do,  
 S. Ehlert,  Po-Tung Fang,  S. Fatehi,  Qingguo Feng,  T. Friedhoff,  
 J. Gayvert,  Qinghui Ge,  G. Gidofalvi,  M. Goldey,  J. Gomes,  
 C. Gonzalez-Espinoza,  S. Gulania,  A. Gunina,  M. W. D. Hanson-Heine,  
 P. H. P. Harbach,  A. W. Hauser,  M. F. Herbst,  M. Hernandez Vera,  
 M. Hodecker,  Z. C. Holden,  S. Houck,  Xunkun Huang,  Kerwin Hui,  
 B. C. Huynh,  M. Ivanov,  Hyunjun Ji,  Hanjie Jiang,  B. Kaduk,  S. Kaehler,  
 K. Khistyaev,  Jaehoon Kim,  P. Klunzinger,  Z. Koczor-Benda,  
 Joong Hoon Koh,  D. Kosenkov,  L. Koulias,  T. Kowalczyk,  C. M. Krauter,  
 K. Kue,  A. Kunitsa,  T. Kus,  A. Landau,  K. V. Lawler,  D. Lefrancois,  
 S. Lehtola,  Rain Li,  Yi-Pei Li,  Jiashu Liang,  M. Liebenthal,  
 Hung-Hsuan Lin,  You-Sheng Lin,  Fenglai Liu,  Kuan-Yu Liu,  
 M. Loipersberger,  A. Luenser,  A. Manjanath,  P. Manohar,  E. Mansoor,  
 S. F. Manzer,  Shan-Ping Mao,  A. V. Marenich,  T. Markovich,  S. Mason,  
 S. A. Maurer,  P. F. McLaughlin,  M. F. S. J. Menger,  J.-M. Mewes,  
 S. A. Mewes,  P. Morgante,  J. W. Mullinax,  K. J. Oosterbaan,  G. Paran,  
 Alexander C. Paul,  Suranjan K. Paul,  F. Pavosevic,  Zheng Pei,  S. Prager,  
 E. I. Proynov,  E. Ramos,  B. Rana,  A. E. Rask,  A. Rettig,  R. M. Richard,  
 F. Rob,  E. Rossomme,  T. Scheele,  M. Scheurer,  M. Schneider,  
 N. Sergueev,  S. M. Sharada,  W. Skomorowski,  D. W. Small,  C. J. Stein,  
 Yu-Chuan Su,  E. J. Sundstrom,  Zhen Tao,  J. Thirman,  T. Tsuchimochi,  
 N. M. Tubman,  S. P. Veccham,  O. Vydrov,  J. Wenzel,  J. Witte,  A. Yamada,  
 Kun Yao,  S. Yeganeh,  S. R. Yost,  A. Zech,  Igor Ying Zhang,  Xing Zhang,  
 Yu Zhang,  D. Zuev,  A. Aspuru-Guzik,  A. T. Bell,  N. A. Besley,  
 K. B. Bravaya,  B. R. Brooks,  D. Casanova,  Jeng-Da Chai,  S. Coriani,  
 C. J. Cramer,  A. E. DePrince, III,  R. A. DiStasio Jr.,  A. Dreuw,  
 B. D. Dunietz,  T. R. Furlani,  W. A. Goddard III,  S. Grimme,  
 S. Hammes-Schiffer,  T. Head-Gordon,  W. J. Hehre,  Chao-Ping Hsu,  
 T.-C. Jagau,  Yousung Jung,  A. Klamt,  Jing Kong,  D. S. Lambrecht,  
 WanZhen Liang,  N. J. Mayhall,  C. W. McCurdy,  J. B. Neaton,  
 C. Ochsenfeld,  J. A. Parkhill,  R. Peverati,  V. A. Rassolov,  Yihan Shao,  
 L. V. Slipchenko,  T. Stauch,  R. P. Steele,  J. E. Subotnik,  
 A. J. W. Thom,  A. Tkatchenko,  D. G. Truhlar,  T. Van Voorhis,  
 T. A. Wesolowski,  K. B. Whaley,  H. L. Woodcock III,  P. M. Zimmerman,  
 S. Faraji,  P. M. W. Gill,  M. Head-Gordon,  J. M. Herbert,  A. I. Krylov

 Additional authors for Version 5.4.1: 
 S. Kotaru,  Shaozhi Li,  Xiangyuan Li,  F. Matz,  A. Molle,  Haisheng Ren,  
 Yingli Su,  Hung-Yi Tsai,  C. Utku,  Fang Wang

 Contributors to earlier versions of Q-Chem not listed above: 
 R. D. Adamson,  B. Austin,  R. Baer,  J. Baker,  G. J. O. Beran,  
 K. Brandhorst,  S. T. Brown,  E. F. C. Byrd,  A. K. Chakraborty,  
 G. K. L. Chan,  Chun-Min Chang,  Yunqing Chen,  C.-L. Cheng,  
 Siu Hung Chien,  D. M. Chipman,  D. L. Crittenden,  H. Dachsel,  
 R. J. Doerksen,  A. D. Dutoi,  R. G. Edgar,  J. Fosso-Tande,  
 L. Fusti-Molnar,  D. Ghosh,  A. Ghysels,  A. Golubeva-Zadorozhnaya,  
 J. Gonthier,  M. S. Gordon,  S. R. Gwaltney,  G. Hawkins,  J. E. Herr,  
 A. Heyden,  S. Hirata,  E. G. Hohenstein,  G. Kedziora,  F. J. Keil,  
 C. Kelley,  Jihan Kim,  R. A. King,  R. Z. Khaliullin,  P. P. Korambath,  
 W. Kurlancheek,  A. Laurent,  A. M. Lee,  M. S. Lee,  S. V. Levchenko,  
 Ching Yeh Lin,  D. Liotard,  E. Livshits,  R. C. Lochan,  I. Lotan,  
 L. A. Martinez-Martinez,  P. E. Maslen,  N. Nair,  D. P. O'Neill,  
 D. Neuhauser,  E. Neuscamman,  C. M. Oana,  R. Olivares-Amaya,  R. Olson,  
 T. M. Perrine,  B. Peters,  P. A. Pieniazek,  A. Prociuk,  Y. M. Rhee,  
 J. Ritchie,  M. A. Rohrdanz,  E. Rosta,  N. J. Russ,  H. F. Schaefer III,  
 M. W. Schmidt,  N. E. Schultz,  S. Sharma,  N. Shenvi,  C. D. Sherrill,  
 A. C. Simmonett,  A. Sodt,  T. Stein,  D. Stuck,  K. S. Thanthiriwatte,  
 V. Vanovschi,  L. Vogt,  Tao Wang,  A. Warshel,  M. A. Watson,  
 C. F. Williams,  Q. Wu,  X. Xu,  Jun Yang,  W. Zhang,  Yan Zhao

 Please cite Q-Chem as follows:
 Y. Shao et al., Mol. Phys. 113, 184-215 (2015)
 DOI: 10.1080/00268976.2014.952696

 Q-Chem 5.4.1 for Intel X86 EM64T Linux

 Parts of Q-Chem use Armadillo 9.800.1 (Horizon Scraper).
 http://arma.sourceforge.net/

 Q-Chem begins on Tue Jun 21 14:55:34 2022  

 Host: 
0

     Scratch files written to /tmp/qchem3813521//
 Aug1521 |scratch|qcdevops|jenkins|workspace|build_RNUM 8286   
 Processing $rem in /opt/apps/qchem/config/preferences:
 Processing $rem in /home/rpaton/.qchemrc:

 Checking the input file for inconsistencies... 	...done.

--------------------------------------------------------------
User input:
--------------------------------------------------------------
$molecule
0 1
C  -0.521065  -1.631278  0.166662
C  1.137703  -0.711963  1.049613
C  -0.885432  1.283811  1.077449
C  -1.678502  -0.875748  0.317115
H  -0.088621  -1.710379  -0.82858
H  -0.383034  -2.512066  0.786281
H  -2.329519  -1.020965  1.17504
C  1.264551  0.458843  0.313113
C  0.242193  1.434285  0.320764
H  1.90555  -1.476126  1.002448
H  -1.730731  1.951348  0.944471
H  0.282185  2.182822  -0.465595
H  0.632769  -0.65017  2.004923
H  -0.889511  0.701837  1.990713
O  2.187112  0.637669  -0.667691
C  3.232779  -0.304253  -0.768531
H  2.856245  -1.290222  -1.066638
H  3.904891  0.070818  -1.539889
H  3.775026  -0.397585  0.179937
C  -2.256239  -0.165255  -0.823654
O  -3.386895  0.271296  -0.88443
H  -1.552908  -0.051679  -1.681322
$end

$rem
METHOD wB97X-V
BASIS def2-TZVP
XC_GRID 000099000590
MEM_TOTAL          8000
MEM_STATIC         4000
$end

--------------------------------------------------------------
 ----------------------------------------------------------------
             Standard Nuclear Orientation (Angstroms)
    I     Atom           X                Y                Z
 ----------------------------------------------------------------
    1      C       0.5210650346    -1.6312781068    -0.1666616449
    2      C      -1.1377029348    -0.7119632015    -1.0496128010
    3      C       0.8854321208     1.2838107379    -1.0774491074
    4      C       1.6785020565    -0.8757481629    -0.3171147586
    5      H       0.0886210267    -1.7103789362     0.8285803652
    6      H       0.3830340138    -2.5120662017    -0.7862805054
    7      H       2.3295190574    -1.0209653177    -1.1750397317
    8      C      -1.2645509065     0.4588429194    -0.3131129883
    9      C      -0.2421928794     1.4342848898    -0.3207641379
   10      H      -1.9055499562    -1.4761261726    -1.0024476837
   11      H       1.7307311386     1.9513477357    -0.9444712089
   12      H      -0.2821848631     2.1828220162     0.4655947426
   13      H      -0.6327689275    -0.6501703677    -2.0049228079
   14      H       0.8895111099     0.7018365923    -1.9907130146
   15      O      -2.1871119072     0.6376691013     0.6676909779
   16      C      -3.2327789339    -0.3042528536     0.7685311219
   17      H      -2.8562449630    -1.2902218165     1.0666382812
   18      H      -3.9048909280     0.0708182880     1.5398890583
   19      H      -3.7750259311    -0.3975849897    -0.1799368663
   20      C       2.2562390696    -0.1652549972     0.8236541315
   21      O       3.3868950814     0.2712959811     0.8844300684
   22      H       1.5529080678    -0.0516788410     1.6813221093
 ----------------------------------------------------------------
 Molecular Point Group                 C1    NOp =  1
 Largest Abelian Subgroup              C1    NOp =  1
 Nuclear Repulsion Energy =         525.48633961 hartrees
 There are       38 alpha and       38 beta electrons
 Requested basis set is def2-TZVP
 There are 158 shells and 382 basis functions

 Total QAlloc Memory Limit   8000 MB
 Mega-Array Size      3911 MB
 MEM_STATIC part      4000 MB
 A cutoff of  1.0D-08 yielded   9854 shell pairs
 There are     57026 function pairs (     72465 Cartesian)
 Smallest overlap matrix eigenvalue = 5.99E-05

 Q-Chem warning in module stvman/mkSTV.C, line 323:

 Overlap eigenvalue is smaller than square root of threshold
 Use THRESH >= 12 to get rid of this warning


 Scale SEOQF with 1.000000e-01/1.000000e-01/1.000000e-01

 Standard Electronic Orientation quadrupole field applied
 Nucleus-field energy     =     0.0000000112 hartrees
 Guess from superposition of atomic densities
 Warning:  Energy on first SCF cycle will be non-variational
 SAD guess density has 76.000000 electrons

 -----------------------------------------------------------------------
  General SCF calculation program by
  Eric Jon Sundstrom, Paul Horn, Yuezhi Mao, Dmitri Zuev, Alec White,
  David Stuck, Shaama M.S., Shane Yost, Joonho Lee, David Small,
  Daniel Levine, Susi Lehtola, Hugh Burton, Evgeny Epifanovsky,
  Bang C. Huynh
 -----------------------------------------------------------------------
 Exchange:     0.1670 Hartree-Fock + 1.0000 wB97X-V + LR-HF
 Correlation:  1.0000 wB97X-V
 Using Euler-Maclaurin-Lebedev (99,590) quadrature formula
 Nonlocal Correlation:  VV10 with C = 0.0100 and b = 6.00 and scale = 1.00000
 Grid used for NLC:  SG-1 standard quadrature
 using 16 threads for integral computing
 -------------------------------------------------------
 OpenMP Integral computing Module                
 Release: version 1.0, May 2013, Q-Chem Inc. Pittsburgh 
 -------------------------------------------------------
 -------------------------------------------------------
 OpenMP BLAS3 based DFT computing Module                
 Release: version 1.0, May 2013, Q-Chem Inc. Pittsburgh 
 -------------------------------------------------------
 A restricted SCF calculation will be
 performed using DIIS
 SCF converges when DIIS error is below 1.0e-05
 ---------------------------------------
  Cycle       Energy         DIIS error
 ---------------------------------------
    1    -464.9587681487      2.77e-02  
    2    -462.2859858984      2.90e-03  
    3    -462.2640595883      3.58e-03  
    4    -462.4231762902      4.33e-04  
    5    -462.4259889087      1.99e-04  
    6    -462.4267041582      5.18e-05  
    7    -462.4267769426      2.12e-05  
    8    -462.4267948536      8.95e-06  Convergence criterion met
 ---------------------------------------
 SCF time:   CPU 602.73s  wall 38.00s 
 SCF   energy in the final basis set =     -462.4267948536
 Total energy in the final basis set =     -462.4267948536
 
 --------------------------------------------------------------
 
                    Orbital Energies (a.u.)
 --------------------------------------------------------------
 
 Alpha MOs
 -- Occupied --
-19.2602 -19.1765 -10.3492 -10.3369 -10.3349 -10.2976 -10.2968 -10.2903
-10.2781 -10.2694  -1.2182  -1.1476  -0.9696  -0.9143  -0.8754  -0.8567
 -0.7604  -0.7551  -0.6822  -0.6714  -0.6436  -0.6171  -0.6028  -0.5734
 -0.5664  -0.5582  -0.5287  -0.5202  -0.5146  -0.5069  -0.4884  -0.4785
 -0.4775  -0.4540  -0.4221  -0.3591  -0.3407  -0.2983
 -- Virtual --
  0.0236   0.0617   0.0988   0.1194   0.1238   0.1340   0.1444   0.1513
  0.1653   0.1711   0.1779   0.1878   0.1913   0.2066   0.2096   0.2262
  0.2382   0.2514   0.2666   0.2701   0.2810   0.2847   0.2929   0.3046
  0.3185   0.3291   0.3363   0.3415   0.3576   0.3725   0.3824   0.3968
  0.4070   0.4143   0.4237   0.4299   0.4386   0.4547   0.4627   0.4732
  0.4775   0.4865   0.4887   0.4990   0.5069   0.5155   0.5216   0.5228
  0.5344   0.5431   0.5470   0.5525   0.5627   0.5704   0.5774   0.5860
  0.6002   0.6145   0.6262   0.6401   0.6452   0.6554   0.6697   0.6789
  0.6851   0.7063   0.7142   0.7173   0.7371   0.7547   0.7773   0.7873
  0.8059   0.8145   0.8357   0.8693   0.8719   0.8916   0.9057   0.9297
  0.9422   0.9611   0.9643   0.9857   0.9986   1.0118   1.0206   1.0316
  1.0673   1.0717   1.0948   1.1048   1.1172   1.1241   1.1523   1.1605
  1.1793   1.1818   1.1944   1.2123   1.2274   1.2461   1.2739   1.2952
  1.3152   1.3233   1.3273   1.3523   1.3694   1.3839   1.4156   1.4347
  1.4442   1.4512   1.4963   1.5042   1.5555   1.5622   1.5639   1.5836
  1.6044   1.6131   1.6171   1.6238   1.6393   1.6439   1.6641   1.6754
  1.6890   1.6997   1.7125   1.7284   1.7372   1.7550   1.7629   1.7677
  1.7767   1.7996   1.8000   1.8386   1.8474   1.8596   1.8943   1.9059
  1.9317   1.9406   1.9627   1.9687   1.9942   2.0270   2.0334   2.0441
  2.0679   2.1017   2.1111   2.1169   2.1480   2.1507   2.1620   2.2031
  2.2262   2.2353   2.2504   2.2802   2.2987   2.3120   2.3421   2.3625
  2.3639   2.3844   2.3890   2.4030   2.4189   2.4411   2.4700   2.4763
  2.4847   2.5111   2.5220   2.5328   2.5662   2.5720   2.5939   2.5998
  2.6178   2.6228   2.6349   2.6531   2.6785   2.6951   2.7083   2.7131
  2.7178   2.7388   2.7406   2.7550   2.7682   2.7820   2.8172   2.8253
  2.8321   2.8489   2.8697   2.8765   2.8906   2.9181   2.9244   2.9308
  2.9529   2.9600   2.9781   3.0169   3.0341   3.0613   3.0750   3.0866
  3.0986   3.1114   3.1317   3.1520   3.1660   3.1672   3.1809   3.1979
  3.2091   3.2228   3.2464   3.2522   3.2711   3.2787   3.2922   3.2951
  3.3057   3.3392   3.3448   3.3579   3.3628   3.3840   3.3848   3.3895
  3.4109   3.4312   3.4383   3.4574   3.4676   3.4739   3.4917   3.5079
  3.5129   3.5308   3.5455   3.5489   3.5615   3.5912   3.6067   3.6211
  3.6317   3.6436   3.6544   3.6594   3.6909   3.7073   3.7218   3.7430
  3.7471   3.7848   3.8154   3.8292   3.8701   3.8872   3.9209   3.9681
  3.9902   4.0050   4.0246   4.0767   4.1359   4.1591   4.1781   4.2249
  4.2373   4.2514   4.2587   4.2972   4.3222   4.3359   4.3614   4.3727
  4.4075   4.4167   4.4364   4.4741   4.4846   4.5344   4.6424   4.6617
  4.6740   4.6851   4.7083   4.7729   4.7887   4.8300   4.8806   4.9286
  4.9581   4.9839   5.0464   5.0785   5.2001   5.2350   5.3248   5.3412
  5.4564   5.6041   5.6919   5.7981   5.8637   6.0128   6.0250   6.2355
  6.4056   6.4733   6.4870   6.5422   6.5698   6.5994   6.7571   6.8478
  6.9455   6.9656   7.0895   7.1945   7.2533   7.4722  22.4099  22.4458
 22.4724  22.6049  22.7478  22.8186  23.0430  23.1474  43.9586  44.2829
 --------------------------------------------------------------
 
          Ground-State Mulliken Net Atomic Charges

     Atom                 Charge (a.u.)
  ----------------------------------------
      1 C                    -0.231923
      2 C                    -0.370157
      3 C                    -0.222322
      4 C                    -0.148780
      5 H                     0.145255
      6 H                     0.151799
      7 H                     0.137653
      8 C                     0.229663
      9 C                    -0.193184
     10 H                     0.158225
     11 H                     0.166457
     12 H                     0.136211
     13 H                     0.153764
     14 H                     0.143007
     15 O                    -0.233536
     16 C                    -0.232270
     17 H                     0.123185
     18 H                     0.143645
     19 H                     0.132733
     20 C                     0.071006
     21 O                    -0.316162
     22 H                     0.055733
  ----------------------------------------
  Sum of atomic charges =     0.000000

 -----------------------------------------------------------------
                    Cartesian Multipole Moments
 -----------------------------------------------------------------
    Charge (ESU x 10^10)
                 0.0000
    Dipole Moment (Debye)
         X      -5.1151      Y      -1.9195      Z      -1.5458
       Tot       5.6779
    Quadrupole Moments (Debye-Ang)
        XX     -72.7091     XY       2.7063     YY     -59.7631
        XZ      -7.1630     YZ       0.3646     ZZ     -59.8511
    Octopole Moments (Debye-Ang^2)
       XXX     -97.6951    XXY     -12.0558    XYY       1.3346
       YYY       1.6147    XXZ     -11.0192    XYZ      -2.2517
       YYZ       2.0328    XZZ      -2.5596    YZZ      -3.9386
       ZZZ       3.1655
    Hexadecapole Moments (Debye-Ang^3)
      XXXX   -1688.5194   XXXY      -5.8599   XXYY    -330.6807
      XYYY      16.4442   YYYY    -427.2385   XXXZ    -101.0563
      XXYZ      -8.8520   XYYZ      -4.6631   YYYZ      17.2038
      XXZZ    -310.8646   XYZZ      -1.4161   YYZZ    -125.1037
      XZZZ     -16.2131   YZZZ       7.6314   ZZZZ    -302.0322
 -----------------------------------------------------------------
 Total job time:  38.36s(wall), 606.58s(cpu) 
 Tue Jun 21 14:56:12 2022

        *************************************************************
        *                                                           *
        *  Thank you very much for using Q-Chem.  Have a nice day.  *
        *                                                           *
        *************************************************************


remove work dirs /tmp/qchem3813521.0 -- /tmp/qchem3813521.-1
rm -rf /tmp/qchem3813521
