You are running Q-Chem version: 5.4.1

#
# job setting
#
local host:  node01.cluster
current dir: /home/rpaton/opt
input file:  /home/rpaton/opt/DATS_13_exo_ii_TZVP.qcin
output file: 
nprocs     : 0
nthreads   : 16
#
# qchem installation setting
#
QC:          /opt/apps/qchem
QCAUX:       /opt/apps/qchem/qcaux
QCPROG:      /opt/apps/qchem/exe/qcprog.exe_s
QCPROG_S:    /opt/apps/qchem/exe/qcprog.exe_s
PARALLEL:    -DSERIAL
QCMPI:       seq
#
# qchem directory setting
#
qcrun:       qchem3968214
QCSCRATCH:   /tmp
QCLOCALSCR:  
QCTMPDIR:    /tmp
QCFILEPREF:  /tmp/qchem3968214
QCSAVEDIR:   
workdirs:    /tmp/qchem3968214
workdir0:    /tmp/qchem3968214
partmpdirs =  
#
# parallel setting
#
QCRSH:           ssh
QCMPI:           seq
QCMPIRUN:        
QCMACHINEFILE:   /tmp/qchem3968214/hostfile

#
# env setting
#
exported envs:   QC QCAUX QCSCRATCH QCRUNNAME QCFILEPREF QCPROG QCPROG_S GUIFILE

Running Job 1 of 1 /home/rpaton/opt/DATS_13_exo_ii_TZVP.qcin
qchem /home/rpaton/opt/DATS_13_exo_ii_TZVP.qcin_3968214.0 /tmp/qchem3968214/ 0
/opt/apps/qchem/exe/qcprog.exe_s /home/rpaton/opt/DATS_13_exo_ii_TZVP.qcin_3968214.0 /tmp/qchem3968214/
                  Welcome to Q-Chem
     A Quantum Leap Into The Future Of Chemistry


 Q-Chem 5.4, Q-Chem, Inc., Pleasanton, CA (2021)

 E. Epifanovsky,  A. T. B. Gilbert,  Xintian Feng,  Joonho Lee,  Yuezhi Mao,  
 N. Mardirossian,  P. Pokhilko,  A. White,  M. Wormit,  M. P. Coons,  
 A. L. Dempwolff,  Zhengting Gan,  D. Hait,  P. R. Horn,  L. D. Jacobson,  
 I. Kaliman,  J. Kussmann,  A. W. Lange,  Ka Un Lao,  D. S. Levine,  Jie Liu,  
 S. C. McKenzie,  A. F. Morrison,  K. Nanda,  F. Plasser,  D. R. Rehn,  
 M. L. Vidal,  Zhi-Qiang You,  Ying Zhu,  B. Alam,  B. Albrecht,  
 A. Aldossary,  E. Alguire,  J. H. Andersen,  D. Barton,  K. Begam,  A. Behn,  
 Y. A. Bernard,  E. J. Berquist,  H. Burton,  A. Carreras,  K. Carter-Fenk,  
 R. Chakraborty,  A. D. Chien,  K. D. Closser,  V. Cofer-Shabica,  
 S. Dasgupta,  Jia Deng,  M. de Wergifosse,  M. Diedenhofen,  Hainam Do,  
 S. Ehlert,  Po-Tung Fang,  S. Fatehi,  Qingguo Feng,  T. Friedhoff,  
 J. Gayvert,  Qinghui Ge,  G. Gidofalvi,  M. Goldey,  J. Gomes,  
 C. Gonzalez-Espinoza,  S. Gulania,  A. Gunina,  M. W. D. Hanson-Heine,  
 P. H. P. Harbach,  A. W. Hauser,  M. F. Herbst,  M. Hernandez Vera,  
 M. Hodecker,  Z. C. Holden,  S. Houck,  Xunkun Huang,  Kerwin Hui,  
 B. C. Huynh,  M. Ivanov,  Hyunjun Ji,  Hanjie Jiang,  B. Kaduk,  S. Kaehler,  
 K. Khistyaev,  Jaehoon Kim,  P. Klunzinger,  Z. Koczor-Benda,  
 Joong Hoon Koh,  D. Kosenkov,  L. Koulias,  T. Kowalczyk,  C. M. Krauter,  
 K. Kue,  A. Kunitsa,  T. Kus,  A. Landau,  K. V. Lawler,  D. Lefrancois,  
 S. Lehtola,  Rain Li,  Yi-Pei Li,  Jiashu Liang,  M. Liebenthal,  
 Hung-Hsuan Lin,  You-Sheng Lin,  Fenglai Liu,  Kuan-Yu Liu,  
 M. Loipersberger,  A. Luenser,  A. Manjanath,  P. Manohar,  E. Mansoor,  
 S. F. Manzer,  Shan-Ping Mao,  A. V. Marenich,  T. Markovich,  S. Mason,  
 S. A. Maurer,  P. F. McLaughlin,  M. F. S. J. Menger,  J.-M. Mewes,  
 S. A. Mewes,  P. Morgante,  J. W. Mullinax,  K. J. Oosterbaan,  G. Paran,  
 Alexander C. Paul,  Suranjan K. Paul,  F. Pavosevic,  Zheng Pei,  S. Prager,  
 E. I. Proynov,  E. Ramos,  B. Rana,  A. E. Rask,  A. Rettig,  R. M. Richard,  
 F. Rob,  E. Rossomme,  T. Scheele,  M. Scheurer,  M. Schneider,  
 N. Sergueev,  S. M. Sharada,  W. Skomorowski,  D. W. Small,  C. J. Stein,  
 Yu-Chuan Su,  E. J. Sundstrom,  Zhen Tao,  J. Thirman,  T. Tsuchimochi,  
 N. M. Tubman,  S. P. Veccham,  O. Vydrov,  J. Wenzel,  J. Witte,  A. Yamada,  
 Kun Yao,  S. Yeganeh,  S. R. Yost,  A. Zech,  Igor Ying Zhang,  Xing Zhang,  
 Yu Zhang,  D. Zuev,  A. Aspuru-Guzik,  A. T. Bell,  N. A. Besley,  
 K. B. Bravaya,  B. R. Brooks,  D. Casanova,  Jeng-Da Chai,  S. Coriani,  
 C. J. Cramer,  A. E. DePrince, III,  R. A. DiStasio Jr.,  A. Dreuw,  
 B. D. Dunietz,  T. R. Furlani,  W. A. Goddard III,  S. Grimme,  
 S. Hammes-Schiffer,  T. Head-Gordon,  W. J. Hehre,  Chao-Ping Hsu,  
 T.-C. Jagau,  Yousung Jung,  A. Klamt,  Jing Kong,  D. S. Lambrecht,  
 WanZhen Liang,  N. J. Mayhall,  C. W. McCurdy,  J. B. Neaton,  
 C. Ochsenfeld,  J. A. Parkhill,  R. Peverati,  V. A. Rassolov,  Yihan Shao,  
 L. V. Slipchenko,  T. Stauch,  R. P. Steele,  J. E. Subotnik,  
 A. J. W. Thom,  A. Tkatchenko,  D. G. Truhlar,  T. Van Voorhis,  
 T. A. Wesolowski,  K. B. Whaley,  H. L. Woodcock III,  P. M. Zimmerman,  
 S. Faraji,  P. M. W. Gill,  M. Head-Gordon,  J. M. Herbert,  A. I. Krylov

 Additional authors for Version 5.4.1: 
 S. Kotaru,  Shaozhi Li,  Xiangyuan Li,  F. Matz,  A. Molle,  Haisheng Ren,  
 Yingli Su,  Hung-Yi Tsai,  C. Utku,  Fang Wang

 Contributors to earlier versions of Q-Chem not listed above: 
 R. D. Adamson,  B. Austin,  R. Baer,  J. Baker,  G. J. O. Beran,  
 K. Brandhorst,  S. T. Brown,  E. F. C. Byrd,  A. K. Chakraborty,  
 G. K. L. Chan,  Chun-Min Chang,  Yunqing Chen,  C.-L. Cheng,  
 Siu Hung Chien,  D. M. Chipman,  D. L. Crittenden,  H. Dachsel,  
 R. J. Doerksen,  A. D. Dutoi,  R. G. Edgar,  J. Fosso-Tande,  
 L. Fusti-Molnar,  D. Ghosh,  A. Ghysels,  A. Golubeva-Zadorozhnaya,  
 J. Gonthier,  M. S. Gordon,  S. R. Gwaltney,  G. Hawkins,  J. E. Herr,  
 A. Heyden,  S. Hirata,  E. G. Hohenstein,  G. Kedziora,  F. J. Keil,  
 C. Kelley,  Jihan Kim,  R. A. King,  R. Z. Khaliullin,  P. P. Korambath,  
 W. Kurlancheek,  A. Laurent,  A. M. Lee,  M. S. Lee,  S. V. Levchenko,  
 Ching Yeh Lin,  D. Liotard,  E. Livshits,  R. C. Lochan,  I. Lotan,  
 L. A. Martinez-Martinez,  P. E. Maslen,  N. Nair,  D. P. O'Neill,  
 D. Neuhauser,  E. Neuscamman,  C. M. Oana,  R. Olivares-Amaya,  R. Olson,  
 T. M. Perrine,  B. Peters,  P. A. Pieniazek,  A. Prociuk,  Y. M. Rhee,  
 J. Ritchie,  M. A. Rohrdanz,  E. Rosta,  N. J. Russ,  H. F. Schaefer III,  
 M. W. Schmidt,  N. E. Schultz,  S. Sharma,  N. Shenvi,  C. D. Sherrill,  
 A. C. Simmonett,  A. Sodt,  T. Stein,  D. Stuck,  K. S. Thanthiriwatte,  
 V. Vanovschi,  L. Vogt,  Tao Wang,  A. Warshel,  M. A. Watson,  
 C. F. Williams,  Q. Wu,  X. Xu,  Jun Yang,  W. Zhang,  Yan Zhao

 Please cite Q-Chem as follows:
 Y. Shao et al., Mol. Phys. 113, 184-215 (2015)
 DOI: 10.1080/00268976.2014.952696

 Q-Chem 5.4.1 for Intel X86 EM64T Linux

 Parts of Q-Chem use Armadillo 9.800.1 (Horizon Scraper).
 http://arma.sourceforge.net/

 Q-Chem begins on Tue Jun 21 14:55:34 2022  

 Host: 
0

     Scratch files written to /tmp/qchem3968214//
 Aug1521 |scratch|qcdevops|jenkins|workspace|build_RNUM 8286   
 Processing $rem in /opt/apps/qchem/config/preferences:
 Processing $rem in /home/rpaton/.qchemrc:

 Checking the input file for inconsistencies... 	...done.

--------------------------------------------------------------
User input:
--------------------------------------------------------------
$molecule
0 1
C  -1.553318  0.904444  1.043212
C  -0.631469  1.8166  -0.524342
C  0.488305  -0.790322  -0.701942
C  -1.305681  -0.463201  0.989105
H  -1.14328  1.483383  1.863478
H  -2.516721  1.238018  0.666579
H  -0.656441  -0.954545  1.704428
C  0.718241  1.592067  -0.316813
C  1.258912  0.289542  -0.342075
H  -0.997828  2.836869  -0.449329
H  0.850823  -1.808701  -0.622998
H  -1.204476  1.188198  -1.20294
H  -0.350225  -0.638646  -1.366666
C  -2.142755  -1.289863  0.125571
O  -2.868461  -0.834537  -0.742692
H  -2.063051  -2.386968  0.269204
O  2.511411  0.199989  0.193365
C  3.119945  -1.070257  0.195837
H  4.136427  -0.922032  0.560483
H  2.595294  -1.765031  0.863844
H  3.148824  -1.498967  -0.813643
H  1.34397  2.370745  0.11086
$end

$rem
METHOD wB97X-V
BASIS def2-TZVP
XC_GRID 000099000590
MEM_TOTAL          8000
MEM_STATIC         4000
$end

--------------------------------------------------------------
 ----------------------------------------------------------------
             Standard Nuclear Orientation (Angstroms)
    I     Atom           X                Y                Z
 ----------------------------------------------------------------
    1      C       1.5533180033     0.9044440479    -1.0432118602
    2      C       0.6314690302     1.8165999267     0.5243422261
    3      C      -0.4883050991    -0.7903220374     0.7019419370
    4      C       1.3056809359    -0.4632009457    -0.9891050081
    5      H       1.1432800408     1.4833831549    -1.8634778035
    6      H       2.5167210154     1.2380179609    -0.6665788140
    7      H       0.6564409200    -0.9545448381    -1.7044280675
    8      C      -0.7182409784     1.5920670146     0.3168131871
    9      C      -1.2589120423     0.2895420384     0.3420750428
   10      H       0.9978280809     2.8368689168     0.4493293384
   11      H      -0.8508231480    -1.8087010114     0.6229978249
   12      H       1.2044759918     1.1881978267     1.2029401659
   13      H       0.3502249008    -0.6386461489     1.3666659625
   14      C       2.1427548858    -1.2898630782    -0.1255710863
   15      O       2.8684608982    -0.8345372057     0.7426919702
   16      H       2.0630508338    -2.3869680591    -0.2692042036
   17      O      -2.5114110407     0.1999891563    -0.1933649808
   18      C      -3.1199451027    -1.0702568137    -0.1958371224
   19      H      -4.1364270913    -0.9220317254    -0.5604831181
   20      H      -2.5952941291    -1.7650307685    -0.8638441901
   21      H      -3.1488241350    -1.4989669193     0.8136428318
   22      H      -1.3439699356     2.3707450906    -0.1108597374
 ----------------------------------------------------------------
 Molecular Point Group                 C1    NOp =  1
 Largest Abelian Subgroup              C1    NOp =  1
 Nuclear Repulsion Energy =         528.38584035 hartrees
 There are       38 alpha and       38 beta electrons
 Requested basis set is def2-TZVP
 There are 158 shells and 382 basis functions

 Total QAlloc Memory Limit   8000 MB
 Mega-Array Size      3911 MB
 MEM_STATIC part      4000 MB
 A cutoff of  1.0D-08 yielded   9876 shell pairs
 There are     57356 function pairs (     72960 Cartesian)
 Smallest overlap matrix eigenvalue = 5.87E-05

 Q-Chem warning in module stvman/mkSTV.C, line 323:

 Overlap eigenvalue is smaller than square root of threshold
 Use THRESH >= 12 to get rid of this warning


 Scale SEOQF with 1.000000e-01/1.000000e-01/1.000000e-01

 Standard Electronic Orientation quadrupole field applied
 Nucleus-field energy     =     0.0000000141 hartrees
 Guess from superposition of atomic densities
 Warning:  Energy on first SCF cycle will be non-variational
 SAD guess density has 76.000000 electrons

 -----------------------------------------------------------------------
  General SCF calculation program by
  Eric Jon Sundstrom, Paul Horn, Yuezhi Mao, Dmitri Zuev, Alec White,
  David Stuck, Shaama M.S., Shane Yost, Joonho Lee, David Small,
  Daniel Levine, Susi Lehtola, Hugh Burton, Evgeny Epifanovsky,
  Bang C. Huynh
 -----------------------------------------------------------------------
 Exchange:     0.1670 Hartree-Fock + 1.0000 wB97X-V + LR-HF
 Correlation:  1.0000 wB97X-V
 Using Euler-Maclaurin-Lebedev (99,590) quadrature formula
 Nonlocal Correlation:  VV10 with C = 0.0100 and b = 6.00 and scale = 1.00000
 Grid used for NLC:  SG-1 standard quadrature
 using 16 threads for integral computing
 -------------------------------------------------------
 OpenMP Integral computing Module                
 Release: version 1.0, May 2013, Q-Chem Inc. Pittsburgh 
 -------------------------------------------------------
 -------------------------------------------------------
 OpenMP BLAS3 based DFT computing Module                
 Release: version 1.0, May 2013, Q-Chem Inc. Pittsburgh 
 -------------------------------------------------------
 A restricted SCF calculation will be
 performed using DIIS
 SCF converges when DIIS error is below 1.0e-05
 ---------------------------------------
  Cycle       Energy         DIIS error
 ---------------------------------------
    1    -464.9760872176      2.77e-02  
    2    -462.2948719427      2.84e-03  
    3    -462.2738310778      3.48e-03  
    4    -462.4225840110      4.21e-04  
    5    -462.4251441423      1.91e-04  
    6    -462.4257682082      4.33e-05  
    7    -462.4258154631      1.86e-05  
    8    -462.4258264431      7.77e-06  Convergence criterion met
 ---------------------------------------
 SCF time:   CPU 603.82s  wall 38.00s 
 SCF   energy in the final basis set =     -462.4258264431
 Total energy in the final basis set =     -462.4258264431
 
 --------------------------------------------------------------
 
                    Orbital Energies (a.u.)
 --------------------------------------------------------------
 
 Alpha MOs
 -- Occupied --
-19.2476 -19.1896 -10.3450 -10.3362 -10.3261 -10.2923 -10.2879 -10.2810
-10.2798 -10.2758  -1.2059  -1.1586  -0.9640  -0.9102  -0.8687  -0.8460
 -0.7781  -0.7480  -0.6684  -0.6509  -0.6406  -0.6209  -0.6021  -0.5924
 -0.5592  -0.5464  -0.5252  -0.5215  -0.5098  -0.5046  -0.4809  -0.4764
 -0.4687  -0.4485  -0.4275  -0.3539  -0.3305  -0.3110
 -- Virtual --
  0.0051   0.0694   0.1061   0.1233   0.1421   0.1432   0.1516   0.1619
  0.1702   0.1791   0.1826   0.1885   0.1948   0.2030   0.2138   0.2244
  0.2501   0.2596   0.2650   0.2667   0.2878   0.2890   0.3019   0.3047
  0.3207   0.3253   0.3342   0.3498   0.3535   0.3689   0.3799   0.4028
  0.4047   0.4188   0.4304   0.4369   0.4498   0.4603   0.4624   0.4725
  0.4801   0.4853   0.4906   0.5038   0.5099   0.5180   0.5257   0.5284
  0.5378   0.5473   0.5518   0.5573   0.5605   0.5722   0.5831   0.5972
  0.6004   0.6229   0.6317   0.6467   0.6550   0.6588   0.6767   0.6897
  0.7067   0.7134   0.7184   0.7245   0.7417   0.7496   0.7620   0.7763
  0.7997   0.8234   0.8303   0.8548   0.8649   0.8751   0.8886   0.9223
  0.9430   0.9490   0.9856   1.0044   1.0115   1.0266   1.0355   1.0549
  1.0630   1.0736   1.0862   1.0929   1.1054   1.1225   1.1381   1.1497
  1.1636   1.1911   1.2023   1.2282   1.2442   1.2594   1.2683   1.2843
  1.2912   1.3152   1.3301   1.3443   1.3651   1.3797   1.4225   1.4334
  1.4577   1.4798   1.4982   1.5129   1.5428   1.5671   1.5696   1.5880
  1.5978   1.6058   1.6116   1.6262   1.6374   1.6491   1.6666   1.6858
  1.6927   1.7028   1.7271   1.7419   1.7511   1.7657   1.7812   1.7864
  1.7949   1.8088   1.8289   1.8526   1.8591   1.8795   1.8942   1.9043
  1.9251   1.9383   1.9557   1.9599   2.0021   2.0310   2.0397   2.0520
  2.0622   2.0696   2.1051   2.1124   2.1340   2.1671   2.1706   2.1792
  2.2187   2.2302   2.2456   2.2576   2.2748   2.3190   2.3266   2.3518
  2.3616   2.3741   2.3820   2.3984   2.4350   2.4614   2.4708   2.4762
  2.5030   2.5154   2.5210   2.5578   2.5690   2.5897   2.6149   2.6173
  2.6249   2.6414   2.6523   2.6665   2.6783   2.6946   2.7030   2.7296
  2.7349   2.7429   2.7561   2.7622   2.7806   2.7961   2.8026   2.8227
  2.8469   2.8582   2.8707   2.9031   2.9044   2.9071   2.9223   2.9349
  2.9482   2.9599   2.9698   2.9941   3.0160   3.0511   3.0679   3.0731
  3.0855   3.1125   3.1282   3.1402   3.1589   3.1686   3.1913   3.2136
  3.2140   3.2338   3.2430   3.2495   3.2598   3.2941   3.3085   3.3164
  3.3322   3.3394   3.3429   3.3472   3.3663   3.3700   3.3861   3.4165
  3.4237   3.4272   3.4328   3.4535   3.4582   3.4751   3.4998   3.5122
  3.5238   3.5321   3.5486   3.5694   3.5863   3.5945   3.6050   3.6122
  3.6461   3.6549   3.6692   3.6815   3.7097   3.7116   3.7491   3.7562
  3.7697   3.7898   3.8163   3.8488   3.8830   3.9041   3.9324   3.9435
  3.9923   4.0339   4.0640   4.1082   4.1292   4.1519   4.1768   4.2081
  4.2221   4.2445   4.2638   4.2874   4.3299   4.3336   4.3497   4.3699
  4.3996   4.4159   4.4519   4.4876   4.5053   4.5263   4.5590   4.6417
  4.6724   4.7109   4.7233   4.7732   4.8238   4.8641   4.9197   4.9418
  4.9619   4.9866   5.0630   5.0921   5.1870   5.2467   5.3121   5.3236
  5.4677   5.6217   5.6706   5.7836   5.8710   6.0057   6.0295   6.1910
  6.4097   6.4305   6.4934   6.5320   6.5497   6.6047   6.7587   6.8629
  6.9442   6.9689   7.0953   7.1850   7.2640   7.4818  22.3675  22.4716
 22.4996  22.5857  22.7291  22.8128  22.9617  23.1639  43.9615  44.2842
 --------------------------------------------------------------
 
          Ground-State Mulliken Net Atomic Charges

     Atom                 Charge (a.u.)
  ----------------------------------------
      1 C                    -0.236594
      2 C                    -0.248667
      3 C                    -0.448061
      4 C                    -0.135571
      5 H                     0.141748
      6 H                     0.172820
      7 H                     0.132341
      8 C                    -0.183455
      9 C                     0.280700
     10 H                     0.143022
     11 H                     0.154838
     12 H                     0.174032
     13 H                     0.175665
     14 C                     0.100713
     15 O                    -0.336448
     16 H                     0.072965
     17 O                    -0.250104
     18 C                    -0.225183
     19 H                     0.138812
     20 H                     0.119233
     21 H                     0.129299
     22 H                     0.127893
  ----------------------------------------
  Sum of atomic charges =     0.000000

 -----------------------------------------------------------------
                    Cartesian Multipole Moments
 -----------------------------------------------------------------
    Charge (ESU x 10^10)
                 0.0000
    Dipole Moment (Debye)
         X      -2.7199      Y      -0.3297      Z      -1.6517
       Tot       3.1992
    Quadrupole Moments (Debye-Ang)
        XX     -68.4768     XY       7.1848     YY     -54.8053
        XZ      -3.2833     YZ       0.6336     ZZ     -63.4650
    Octopole Moments (Debye-Ang^2)
       XXX     -52.3263    XXY      -3.0997    XYY       0.0899
       YYY       0.0208    XXZ     -14.1313    XYZ       4.3383
       YYZ      -4.1865    XZZ      -4.4782    YZZ      -0.9641
       ZZZ      -1.9258
    Hexadecapole Moments (Debye-Ang^3)
      XXXX   -1459.9683   XXXY      68.6284   XXYY    -315.3197
      XYYY      -5.0637   YYYY    -528.3075   XXXZ     -19.8221
      XXYZ      14.2204   XYYZ       1.0267   YYYZ      -6.4759
      XXZZ    -296.0697   XYZZ       6.1599   YYZZ    -137.9884
      XZZZ      16.5142   YZZZ      -6.2983   ZZZZ    -245.3060
 -----------------------------------------------------------------
 Total job time:  38.31s(wall), 607.78s(cpu) 
 Tue Jun 21 14:56:12 2022

        *************************************************************
        *                                                           *
        *  Thank you very much for using Q-Chem.  Have a nice day.  *
        *                                                           *
        *************************************************************


remove work dirs /tmp/qchem3968214.0 -- /tmp/qchem3968214.-1
rm -rf /tmp/qchem3968214
