 Entering Gaussian System, Link 0=/Applications/Gaussian09/g09/g09
 Input=ethane_spc.com
 Output=ethane_spc.log
 Initial command:
 /Applications/Gaussian09/g09/l1.exe /Users/rpaton/.Scratch/Gau-99057.inp -scrdir=/Users/rpaton/.Scratch/
 Entering Link 1 = /Applications/Gaussian09/g09/l1.exe PID=     99058.
  
 Copyright (c) 1988,1990,1992,1993,1995,1998,2003,2009,2010,
            Gaussian, Inc.  All Rights Reserved.
  
 This is part of the Gaussian(R) 09 program.  It is based on
 the Gaussian(R) 03 system (copyright 2003, Gaussian, Inc.),
 the Gaussian(R) 98 system (copyright 1998, Gaussian, Inc.),
 the Gaussian(R) 94 system (copyright 1995, Gaussian, Inc.),
 the Gaussian 92(TM) system (copyright 1992, Gaussian, Inc.),
 the Gaussian 90(TM) system (copyright 1990, Gaussian, Inc.),
 the Gaussian 88(TM) system (copyright 1988, Gaussian, Inc.),
 the Gaussian 86(TM) system (copyright 1986, Carnegie Mellon
 University), and the Gaussian 82(TM) system (copyright 1983,
 Carnegie Mellon University). Gaussian is a federally registered
 trademark of Gaussian, Inc.
  
 This software contains proprietary and confidential information,
 including trade secrets, belonging to Gaussian, Inc.
  
 This software is provided under written license and may be
 used, copied, transmitted, or stored only in accord with that
 written license.
  
 The following legend is applicable only to US Government
 contracts under FAR:
  
                    RESTRICTED RIGHTS LEGEND
  
 Use, reproduction and disclosure by the US Government is
 subject to restrictions as set forth in subparagraphs (a)
 and (c) of the Commercial Computer Software - Restricted
 Rights clause in FAR 52.227-19.
  
 Gaussian, Inc.
 340 Quinnipiac St., Bldg. 40, Wallingford CT 06492
  
  
 ---------------------------------------------------------------
 Warning -- This program may not be used in any manner that
 competes with the business of Gaussian, Inc. or will provide
 assistance to any competitor of Gaussian, Inc.  The licensee
 of this program is prohibited from giving any competitor of
 Gaussian, Inc. access to this program.  By using this program,
 the user acknowledges that Gaussian, Inc. is engaged in the
 business of creating and licensing software in the field of
 computational chemistry and represents and warrants to the
 licensee that it is not a competitor of Gaussian, Inc. and that
 it will not use this program in any manner prohibited above.
 ---------------------------------------------------------------
  

 Cite this work as:
 Gaussian 09, Revision B.01,
 M. J. Frisch, G. W. Trucks, H. B. Schlegel, G. E. Scuseria, 
 M. A. Robb, J. R. Cheeseman, G. Scalmani, V. Barone, B. Mennucci, 
 G. A. Petersson, H. Nakatsuji, M. Caricato, X. Li, H. P. Hratchian, 
 A. F. Izmaylov, J. Bloino, G. Zheng, J. L. Sonnenberg, M. Hada, 
 M. Ehara, K. Toyota, R. Fukuda, J. Hasegawa, M. Ishida, T. Nakajima, 
 Y. Honda, O. Kitao, H. Nakai, T. Vreven, J. A. Montgomery, Jr., 
 J. E. Peralta, F. Ogliaro, M. Bearpark, J. J. Heyd, E. Brothers, 
 K. N. Kudin, V. N. Staroverov, T. Keith, R. Kobayashi, J. Normand, 
 K. Raghavachari, A. Rendell, J. C. Burant, S. S. Iyengar, J. Tomasi, 
 M. Cossi, N. Rega, J. M. Millam, M. Klene, J. E. Knox, J. B. Cross, 
 V. Bakken, C. Adamo, J. Jaramillo, R. Gomperts, R. E. Stratmann, 
 O. Yazyev, A. J. Austin, R. Cammi, C. Pomelli, J. W. Ochterski, 
 R. L. Martin, K. Morokuma, V. G. Zakrzewski, G. A. Voth, 
 P. Salvador, J. J. Dannenberg, S. Dapprich, A. D. Daniels, 
 O. Farkas, J. B. Foresman, J. V. Ortiz, J. Cioslowski, 
 and D. J. Fox, Gaussian, Inc., Wallingford CT, 2010.
 
 ******************************************
 Gaussian 09:  EM64M-G09RevB.01 12-Aug-2010
                11-Feb-2017 
 ******************************************
 %nprocshared=4
 Will use up to    4 processors via shared memory.
 %mem=4000MB
 %chk=ethane.chk
 --------------------------
 #p b3lyp opt freq 6-31g(d)
 --------------------------
 1/14=-1,18=20,19=15,26=3,38=1/1,3;
 2/9=110,12=2,17=6,18=5,40=1/2;
 3/5=1,6=6,7=1,11=2,16=1,25=1,30=1,71=1,74=-5/1,2,3;
 4//1;
 5/5=2,38=5/2;
 6/7=2,8=2,9=2,10=2,28=1/1;
 7//1,2,3,16;
 1/14=-1,18=20,19=15/3(2);
 2/9=110/2;
 99//99;
 2/9=110/2;
 3/5=1,6=6,7=1,11=2,16=1,25=1,30=1,71=1,74=-5/1,2,3;
 4/5=5,16=3/1;
 5/5=2,38=5/2;
 7//1,2,3,16;
 1/14=-1,18=20,19=15/3(-5);
 2/9=110/2;
 6/7=2,8=2,9=2,10=2,19=2,28=1/1;
 99/9=1/99;
 Leave Link    1 at Sat Feb 11 13:40:36 2017, MaxMem=  524288000 cpu:       0.1
 (Enter /Applications/Gaussian09/g09/l101.exe)
 -----------------------------------------------------------------
 ethane optimiation and frequency calculation with small basis set
 -----------------------------------------------------------------
 Symbolic Z-matrix:
 Charge =  0 Multiplicity = 1
 C                     0.        0.        0.76961 
 H                    -0.51392   0.89069   1.16724 
 H                    -0.5144   -0.89041   1.16724 
 H                     1.02832  -0.00028   1.16724 
 C                     0.        0.       -0.76961 
 H                     0.5144   -0.89041  -1.16724 
 H                    -1.02832  -0.00028  -1.16724 
 H                     0.51392   0.89069  -1.16724 
 
 NAtoms=      8 NQM=      8 NQMF=      0 NMic=      0 NMicF=      0 NTot=      8.
                    Isotopes and Nuclear Properties:
 (Nuclear quadrupole moments (NQMom) in fm**2, nuclear magnetic moments (NMagM)
  in nuclear magnetons)

  Atom         1           2           3           4           5           6           7           8
 IAtWgt=          12           1           1           1          12           1           1           1
 AtmWgt=  12.0000000   1.0078250   1.0078250   1.0078250  12.0000000   1.0078250   1.0078250   1.0078250
 NucSpn=           0           1           1           1           0           1           1           1
 AtZEff=   0.0000000   0.0000000   0.0000000   0.0000000   0.0000000   0.0000000   0.0000000   0.0000000
 NQMom=    0.0000000   0.0000000   0.0000000   0.0000000   0.0000000   0.0000000   0.0000000   0.0000000
 NMagM=    0.0000000   2.7928460   2.7928460   2.7928460   0.0000000   2.7928460   2.7928460   2.7928460
 Leave Link  101 at Sat Feb 11 13:40:36 2017, MaxMem=  524288000 cpu:       0.3
 (Enter /Applications/Gaussian09/g09/l103.exe)

 GradGradGradGradGradGradGradGradGradGradGradGradGradGradGradGradGradGrad
 Berny optimization.
 Initialization pass.
                           ----------------------------
                           !    Initial Parameters    !
                           ! (Angstroms and Degrees)  !
 --------------------------                            --------------------------
 ! Name  Definition              Value          Derivative Info.                !
 --------------------------------------------------------------------------------
 ! R1    R(1,2)                  1.1025         estimate D2E/DX2                !
 ! R2    R(1,3)                  1.1025         estimate D2E/DX2                !
 ! R3    R(1,4)                  1.1025         estimate D2E/DX2                !
 ! R4    R(1,5)                  1.5392         estimate D2E/DX2                !
 ! R5    R(5,6)                  1.1025         estimate D2E/DX2                !
 ! R6    R(5,7)                  1.1025         estimate D2E/DX2                !
 ! R7    R(5,8)                  1.1025         estimate D2E/DX2                !
 ! A1    A(2,1,3)              107.7518         estimate D2E/DX2                !
 ! A2    A(2,1,4)              107.7518         estimate D2E/DX2                !
 ! A3    A(2,1,5)              111.1403         estimate D2E/DX2                !
 ! A4    A(3,1,4)              107.7517         estimate D2E/DX2                !
 ! A5    A(3,1,5)              111.1403         estimate D2E/DX2                !
 ! A6    A(4,1,5)              111.1403         estimate D2E/DX2                !
 ! A7    A(1,5,6)              111.1403         estimate D2E/DX2                !
 ! A8    A(1,5,7)              111.1403         estimate D2E/DX2                !
 ! A9    A(1,5,8)              111.1403         estimate D2E/DX2                !
 ! A10   A(6,5,7)              107.7517         estimate D2E/DX2                !
 ! A11   A(6,5,8)              107.7518         estimate D2E/DX2                !
 ! A12   A(7,5,8)              107.7518         estimate D2E/DX2                !
 ! D1    D(2,1,5,6)            179.969          estimate D2E/DX2                !
 ! D2    D(2,1,5,7)            -60.031          estimate D2E/DX2                !
 ! D3    D(2,1,5,8)             59.969          estimate D2E/DX2                !
 ! D4    D(3,1,5,6)            -60.0309         estimate D2E/DX2                !
 ! D5    D(3,1,5,7)             59.9691         estimate D2E/DX2                !
 ! D6    D(3,1,5,8)            179.969          estimate D2E/DX2                !
 ! D7    D(4,1,5,6)             59.9691         estimate D2E/DX2                !
 ! D8    D(4,1,5,7)            179.969          estimate D2E/DX2                !
 ! D9    D(4,1,5,8)            -60.031          estimate D2E/DX2                !
 --------------------------------------------------------------------------------
 Trust Radius=3.00D-01 FncErr=1.00D-07 GrdErr=1.00D-06
 Number of steps in this run=     38 maximum allowed number of steps=    100.
 GradGradGradGradGradGradGradGradGradGradGradGradGradGradGradGradGradGrad

 Leave Link  103 at Sat Feb 11 13:40:36 2017, MaxMem=  524288000 cpu:       0.0
 (Enter /Applications/Gaussian09/g09/l202.exe)
                          Input orientation:                          
 ---------------------------------------------------------------------
 Center     Atomic      Atomic             Coordinates (Angstroms)
 Number     Number       Type             X           Y           Z
 ---------------------------------------------------------------------
      1          6           0        0.000000    0.000000    0.769609
      2          1           0       -0.513920    0.890692    1.167237
      3          1           0       -0.514401   -0.890414    1.167237
      4          1           0        1.028322   -0.000278    1.167237
      5          6           0        0.000000    0.000000   -0.769609
      6          1           0        0.514401   -0.890414   -1.167237
      7          1           0       -1.028322   -0.000278   -1.167237
      8          1           0        0.513920    0.890692   -1.167237
 ---------------------------------------------------------------------
                    Distance matrix (angstroms):
                    1          2          3          4          5
     1  C    0.000000
     2  H    1.102522   0.000000
     3  H    1.102521   1.781106   0.000000
     4  H    1.102522   1.781106   1.781105   0.000000
     5  C    1.539218   2.192902   2.192902   2.192902   0.000000
     6  H    2.192902   3.111198   2.551118   2.550730   1.102521
     7  H    2.192902   2.551119   2.550730   3.111198   1.102522
     8  H    2.192902   2.550730   3.111198   2.551119   1.102522
                    6          7          8
     6  H    0.000000
     7  H    1.781105   0.000000
     8  H    1.781106   1.781106   0.000000
 Stoichiometry    C2H6
 Framework group  D3[C3(C.C),X(H6)]
 Deg. of freedom     4
 Full point group                 D3      NOp   6
 Largest Abelian subgroup         C2      NOp   2
 Largest concise Abelian subgroup C2      NOp   2
                         Standard orientation:                         
 ---------------------------------------------------------------------
 Center     Atomic      Atomic             Coordinates (Angstroms)
 Number     Number       Type             X           Y           Z
 ---------------------------------------------------------------------
      1          6           0        0.000000    0.000000    0.769609
      2          1           0       -0.513920    0.890692    1.167237
      3          1           0       -0.514402   -0.890414    1.167237
      4          1           0        1.028322   -0.000278    1.167237
      5          6           0        0.000000    0.000000   -0.769609
      6          1           0        0.514402   -0.890414   -1.167237
      7          1           0       -1.028322   -0.000278   -1.167237
      8          1           0        0.513920    0.890692   -1.167237
 ---------------------------------------------------------------------
 Rotational constants (GHZ):     79.0355722     19.7021676     19.7021676
 Leave Link  202 at Sat Feb 11 13:40:36 2017, MaxMem=  524288000 cpu:       0.0
 (Enter /Applications/Gaussian09/g09/l301.exe)
 Standard basis: 6-31G(d) (6D, 7F)
 Ernie: Thresh=  0.10000D-02 Tol=  0.10000D-05 Strict=F.
 There are    21 symmetry adapted basis functions of A   symmetry.
 There are    21 symmetry adapted basis functions of B   symmetry.
 Integral buffers will be    131072 words long.
 Raffenetti 2 integral format.
 Two-electron integral symmetry is turned on.
    42 basis functions,    80 primitive gaussians,    42 cartesian basis functions
     9 alpha electrons        9 beta electrons
       nuclear repulsion energy        41.8804410846 Hartrees.
 IExCor=  402 DFT=T Ex+Corr=B3LYP ExCW=0 ScaHFX=  0.200000
 ScaDFX=  0.800000  0.720000  1.000000  0.810000 ScalE2=  1.000000  1.000000
 IRadAn=      0 IRanWt=     -1 IRanGd=            0 ICorTp=0
 NAtoms=    8 NActive=    8 NUniq=    2 SFac= 4.00D+00 NAtFMM=   50 NAOKFM=F Big=F
 Leave Link  301 at Sat Feb 11 13:40:36 2017, MaxMem=  524288000 cpu:       0.2
 (Enter /Applications/Gaussian09/g09/l302.exe)
 NPDir=0 NMtPBC=     1 NCelOv=     1 NCel=       1 NClECP=     1 NCelD=      1
         NCelK=      1 NCelE2=     1 NClLst=     1 CellRange=     0.0.
 One-electron integrals computed using PRISM.
 One-electron integral symmetry used in STVInt
 NBasis=    42 RedAO= T  NBF=    21    21
 NBsUse=    42 1.00D-06 NBFU=    21    21
 Precomputing XC quadrature grid using
 IXCGrd= 2 IRadAn=           0 IRanWt=          -1 IRanGd=           0 AccXCQ= 0.00D+00.
 NRdTot=     492 NPtTot=       62472 NUsed=       66033 NTot=       66065
 NSgBfM=    42    42    42    42    42 NAtAll=     8     8.
 Leave Link  302 at Sat Feb 11 13:40:36 2017, MaxMem=  524288000 cpu:       0.5
 (Enter /Applications/Gaussian09/g09/l303.exe)
 DipDrv:  MaxL=1.
 Leave Link  303 at Sat Feb 11 13:40:36 2017, MaxMem=  524288000 cpu:       0.1
 (Enter /Applications/Gaussian09/g09/l401.exe)
 Harris functional with IExCor=  402 diagonalized for initial guess.
 ExpMin= 1.61D-01 ExpMax= 3.05D+03 ExpMxC= 4.57D+02 IAcc=1 IRadAn=         1 AccDes= 0.00D+00
 HarFok:  IExCor=  402 AccDes= 0.00D+00 IRadAn=         1 IDoV= 1
 ScaDFX=  1.000000  1.000000  1.000000  1.000000
 FoFCou: FMM=F IPFlag=           0 FMFlag=      100000 FMFlg1=           0
         NFxFlg=           0 DoJE=T BraDBF=F KetDBF=T FulRan=T
         Omega=  0.000000  0.000000  1.000000  0.000000  0.000000 ICntrl=     500 IOpCl=  0
         NMat0=    1 NMatS0=    1 NMatT0=    0 NMatD0=    1 NMtDS0=    0 NMtDT0=    0
         I1Cent=           4 NGrid=           0.
 Petite list used in FoFCou.
 Harris En= -79.8727199014645    
 Initial guess orbital symmetries:
       Occupied  (A1) (A2) (A1) (A2) (E) (E) (A1) (E) (E)
       Virtual   (A1) (E) (E) (A2) (E) (E) (A2) (A1) (E) (E) (A2)
                 (E) (E) (A1) (E) (E) (E) (E) (A2) (A1) (A2) (E)
                 (E) (A1) (E) (E) (E) (E) (E) (E) (A2) (A1) (A2)
 The electronic state of the initial guess is 1-A1.
 Leave Link  401 at Sat Feb 11 13:40:37 2017, MaxMem=  524288000 cpu:       0.5
 (Enter /Applications/Gaussian09/g09/l502.exe)
 Closed shell SCF:
 Requested convergence on RMS density matrix=1.00D-08 within 128 cycles.
 Requested convergence on MAX density matrix=1.00D-06.
 Requested convergence on             energy=1.00D-06.
 No special actions if energy rises.
 Using DIIS extrapolation, IDIIS=  1040.
 Integral symmetry usage will be decided dynamically.
        65948 words used for storage of precomputed grid.
 Keep R1 ints in memory in canonical form, NReq=1357850.
 IEnd=       90110 IEndB=       90110 NGot=   524288000 MDV=   523808153
 LenX=   523808153 LenY=   523805948
 Symmetry not used in FoFDir.
 MinBra= 0 MaxBra= 2 Meth= 1.
 IRaf=       0 NMat=   1 IRICut=       1 DoRegI=T DoRafI=F ISym2E= 0 JSym2E=0.
 Integral accuracy reduced to 1.0D-05 until final iterations.

 Cycle   1  Pass 0  IDiag  1:
 E= -79.7177276952721    
 DIIS: error= 5.98D-02 at cycle   1 NSaved=   1.
 NSaved= 1 IEnMin= 1 EnMin= -79.7177276952721     IErMin= 1 ErrMin= 5.98D-02
 ErrMax= 5.98D-02 EMaxC= 1.00D-01 BMatC= 9.86D-02 BMatP= 9.86D-02
 IDIUse=3 WtCom= 4.02D-01 WtEn= 5.98D-01
 Coeff-Com:  0.100D+01
 Coeff-En:   0.100D+01
 Coeff:      0.100D+01
 Gap=     0.385 Goal=   None    Shift=    0.000
 GapD=    0.385 DampG=1.000 DampE=0.500 DampFc=0.5000 IDamp=-1.
 Damping current iteration by 5.00D-01
 RMSDP=1.56D-02 MaxDP=1.33D-01              OVMax= 1.76D-01

 Cycle   2  Pass 0  IDiag  1:
 E= -79.7678670218161     Delta-E=       -0.050139326544 Rises=F Damp=T
 DIIS: error= 1.14D-02 at cycle   2 NSaved=   2.
 NSaved= 2 IEnMin= 2 EnMin= -79.7678670218161     IErMin= 2 ErrMin= 1.14D-02
 ErrMax= 1.14D-02 EMaxC= 1.00D-01 BMatC= 3.64D-03 BMatP= 9.86D-02
 IDIUse=3 WtCom= 8.86D-01 WtEn= 1.14D-01
 Coeff-Com:  0.896D-01 0.910D+00
 Coeff-En:   0.132D+00 0.868D+00
 Coeff:      0.944D-01 0.906D+00
 Gap=     0.436 Goal=   None    Shift=    0.000
 RMSDP=1.65D-03 MaxDP=1.07D-02 DE=-5.01D-02 OVMax= 9.09D-02

 Cycle   3  Pass 0  IDiag  1:
 E= -79.8300893399293     Delta-E=       -0.062222318113 Rises=F Damp=F
 DIIS: error= 2.08D-03 at cycle   3 NSaved=   3.
 NSaved= 3 IEnMin= 3 EnMin= -79.8300893399293     IErMin= 3 ErrMin= 2.08D-03
 ErrMax= 2.08D-03 EMaxC= 1.00D-01 BMatC= 1.06D-04 BMatP= 3.64D-03
 IDIUse=3 WtCom= 9.79D-01 WtEn= 2.08D-02
 Coeff-Com:  0.112D-01 0.900D-01 0.899D+00
 Coeff-En:   0.000D+00 0.000D+00 0.100D+01
 Coeff:      0.110D-01 0.881D-01 0.901D+00
 Gap=     0.443 Goal=   None    Shift=    0.000
 RMSDP=2.70D-04 MaxDP=1.63D-03 DE=-6.22D-02 OVMax= 3.49D-03

 Cycle   4  Pass 0  IDiag  1:
 E= -79.8301806058521     Delta-E=       -0.000091265923 Rises=F Damp=F
 DIIS: error= 6.20D-04 at cycle   4 NSaved=   4.
 NSaved= 4 IEnMin= 4 EnMin= -79.8301806058521     IErMin= 4 ErrMin= 6.20D-04
 ErrMax= 6.20D-04 EMaxC= 1.00D-01 BMatC= 7.67D-06 BMatP= 1.06D-04
 IDIUse=3 WtCom= 9.94D-01 WtEn= 6.20D-03
 Coeff-Com:  0.228D-02-0.506D-02 0.198D+00 0.805D+00
 Coeff-En:   0.000D+00 0.000D+00 0.000D+00 0.100D+01
 Coeff:      0.227D-02-0.503D-02 0.196D+00 0.806D+00
 Gap=     0.443 Goal=   None    Shift=    0.000
 RMSDP=5.89D-05 MaxDP=3.71D-04 DE=-9.13D-05 OVMax= 8.57D-04

 Cycle   5  Pass 0  IDiag  1:
 E= -79.8301877189460     Delta-E=       -0.000007113094 Rises=F Damp=F
 DIIS: error= 1.19D-05 at cycle   5 NSaved=   5.
 NSaved= 5 IEnMin= 5 EnMin= -79.8301877189460     IErMin= 5 ErrMin= 1.19D-05
 ErrMax= 1.19D-05 EMaxC= 1.00D-01 BMatC= 4.80D-09 BMatP= 7.67D-06
 IDIUse=1 WtCom= 1.00D+00 WtEn= 0.00D+00
 Coeff-Com:  0.625D-04-0.342D-03-0.932D-02-0.237D-01 0.103D+01
 Coeff:      0.625D-04-0.342D-03-0.932D-02-0.237D-01 0.103D+01
 Gap=     0.443 Goal=   None    Shift=    0.000
 RMSDP=1.53D-06 MaxDP=1.51D-05 DE=-7.11D-06 OVMax= 2.32D-05

 Initial convergence to 1.0D-05 achieved.  Increase integral accuracy.
 Cycle   6  Pass 1  IDiag  1:
 E= -79.8302189746917     Delta-E=       -0.000031255746 Rises=F Damp=F
 DIIS: error= 4.33D-06 at cycle   1 NSaved=   1.
 NSaved= 1 IEnMin= 1 EnMin= -79.8302189746917     IErMin= 1 ErrMin= 4.33D-06
 ErrMax= 4.33D-06 EMaxC= 1.00D-01 BMatC= 6.67D-10 BMatP= 6.67D-10
 IDIUse=1 WtCom= 1.00D+00 WtEn= 0.00D+00
 Coeff-Com:  0.100D+01
 Coeff:      0.100D+01
 Gap=     0.443 Goal=   None    Shift=    0.000
 RMSDP=1.53D-06 MaxDP=1.51D-05 DE=-3.13D-05 OVMax= 1.31D-05

 Cycle   7  Pass 1  IDiag  1:
 E= -79.8302189758563     Delta-E=       -0.000000001165 Rises=F Damp=F
 DIIS: error= 3.75D-07 at cycle   2 NSaved=   2.
 NSaved= 2 IEnMin= 2 EnMin= -79.8302189758563     IErMin= 2 ErrMin= 3.75D-07
 ErrMax= 3.75D-07 EMaxC= 1.00D-01 BMatC= 6.14D-12 BMatP= 6.67D-10
 IDIUse=1 WtCom= 1.00D+00 WtEn= 0.00D+00
 Coeff-Com: -0.255D-01 0.103D+01
 Coeff:     -0.255D-01 0.103D+01
 Gap=     0.443 Goal=   None    Shift=    0.000
 RMSDP=1.19D-07 MaxDP=9.26D-07 DE=-1.16D-09 OVMax= 1.08D-06

 Cycle   8  Pass 1  IDiag  1:
 E= -79.8302189758579     Delta-E=       -0.000000000002 Rises=F Damp=F
 DIIS: error= 3.95D-07 at cycle   3 NSaved=   3.
 NSaved= 3 IEnMin= 3 EnMin= -79.8302189758579     IErMin= 2 ErrMin= 3.75D-07
 ErrMax= 3.95D-07 EMaxC= 1.00D-01 BMatC= 5.04D-12 BMatP= 6.14D-12
 IDIUse=1 WtCom= 1.00D+00 WtEn= 0.00D+00
 Coeff-Com: -0.124D-01 0.494D+00 0.518D+00
 Coeff:     -0.124D-01 0.494D+00 0.518D+00
 Gap=     0.443 Goal=   None    Shift=    0.000
 RMSDP=5.26D-08 MaxDP=4.98D-07 DE=-1.55D-12 OVMax= 6.25D-07

 Cycle   9  Pass 1  IDiag  1:
 E= -79.8302189758627     Delta-E=       -0.000000000005 Rises=F Damp=F
 DIIS: error= 5.51D-08 at cycle   4 NSaved=   4.
 NSaved= 4 IEnMin= 4 EnMin= -79.8302189758627     IErMin= 4 ErrMin= 5.51D-08
 ErrMax= 5.51D-08 EMaxC= 1.00D-01 BMatC= 1.13D-13 BMatP= 5.04D-12
 IDIUse=1 WtCom= 1.00D+00 WtEn= 0.00D+00
 Coeff-Com: -0.106D-02 0.727D-02 0.132D+00 0.862D+00
 Coeff:     -0.106D-02 0.727D-02 0.132D+00 0.862D+00
 Gap=     0.443 Goal=   None    Shift=    0.000
 RMSDP=7.48D-09 MaxDP=5.94D-08 DE=-4.85D-12 OVMax= 8.18D-08

 SCF Done:  E(RB3LYP) =  -79.8302189759     A.U. after    9 cycles
             Convg  =    0.7477D-08             -V/T =  2.0116
 KE= 7.891394121068D+01 PE=-2.675230298802D+02 EE= 6.689842860912D+01
 Leave Link  502 at Sat Feb 11 13:40:37 2017, MaxMem=  524288000 cpu:       0.9
 (Enter /Applications/Gaussian09/g09/l601.exe)
 Copying SCF densities to generalized density rwf, IOpCl= 0 IROHF=0.

 **********************************************************************

            Population analysis using the SCF density.

 **********************************************************************

 Orbital symmetries:
       Occupied  (A1) (A2) (A1) (A2) (E) (E) (A1) (E) (E)
       Virtual   (A1) (A2) (E) (E) (E) (E) (A2) (A1) (E) (E) (E)
                 (E) (A2) (E) (E) (A1) (E) (E) (A2) (A1) (A2) (E)
                 (E) (A1) (E) (E) (E) (E) (E) (E) (A2) (A1) (A2)
 The electronic state is 1-A1.
 Alpha  occ. eigenvalues --  -10.17504 -10.17484  -0.74485  -0.61014  -0.42872
 Alpha  occ. eigenvalues --   -0.42872  -0.36060  -0.33999  -0.33999
 Alpha virt. eigenvalues --    0.10328   0.15422   0.16191   0.16191   0.18830
 Alpha virt. eigenvalues --    0.18830   0.23859   0.51561   0.54498   0.54498
 Alpha virt. eigenvalues --    0.63806   0.63806   0.66285   0.87996   0.87996
 Alpha virt. eigenvalues --    0.89655   0.91520   0.91520   0.97154   1.06370
 Alpha virt. eigenvalues --    1.43607   1.52617   1.52617   1.92230   1.98100
 Alpha virt. eigenvalues --    1.98100   2.26093   2.26093   2.32002   2.32002
 Alpha virt. eigenvalues --    2.58228   4.13783   4.36290
          Condensed to atoms (all electrons):
              1          2          3          4          5          6
     1  C    5.015992   0.381527   0.381527   0.381527   0.373233  -0.034361
     2  H    0.381527   0.575507  -0.031874  -0.031874  -0.034361   0.004490
     3  H    0.381527  -0.031874   0.575507  -0.031874  -0.034361  -0.003489
     4  H    0.381527  -0.031874  -0.031874   0.575507  -0.034361  -0.003499
     5  C    0.373233  -0.034361  -0.034361  -0.034361   5.015992   0.381527
     6  H   -0.034361   0.004490  -0.003489  -0.003499   0.381527   0.575507
     7  H   -0.034361  -0.003489  -0.003499   0.004490   0.381527  -0.031874
     8  H   -0.034361  -0.003499   0.004490  -0.003489   0.381527  -0.031874
              7          8
     1  C   -0.034361  -0.034361
     2  H   -0.003489  -0.003499
     3  H   -0.003499   0.004490
     4  H    0.004490  -0.003489
     5  C    0.381527   0.381527
     6  H   -0.031874  -0.031874
     7  H    0.575507  -0.031874
     8  H   -0.031874   0.575507
 Mulliken atomic charges:
              1
     1  C   -0.430723
     2  H    0.143574
     3  H    0.143574
     4  H    0.143574
     5  C   -0.430723
     6  H    0.143574
     7  H    0.143574
     8  H    0.143574
 Sum of Mulliken atomic charges =   0.00000
 Mulliken charges with hydrogens summed into heavy atoms:
              1
     1  C    0.000000
     5  C    0.000000
 Sum of Mulliken charges with hydrogens summed into heavy atoms =   0.00000
 Electronic spatial extent (au):  <R**2>=            110.5040
 Charge=              0.0000 electrons
 Dipole moment (field-independent basis, Debye):
    X=              0.0000    Y=              0.0000    Z=              0.0000  Tot=              0.0000
 Quadrupole moment (field-independent basis, Debye-Ang):
   XX=            -14.7324   YY=            -14.7324   ZZ=            -15.2884
   XY=              0.0000   XZ=              0.0000   YZ=              0.0000
 Traceless Quadrupole moment (field-independent basis, Debye-Ang):
   XX=              0.1853   YY=              0.1853   ZZ=             -0.3706
   XY=              0.0000   XZ=              0.0000   YZ=              0.0000
 Octapole moment (field-independent basis, Debye-Ang**2):
  XXX=              0.0000  YYY=              0.0008  ZZZ=              0.0000  XYY=              0.0000
  XXY=             -0.0008  XXZ=              0.0000  XZZ=              0.0000  YZZ=              0.0000
  YYZ=              0.0000  XYZ=              0.0000
 Hexadecapole moment (field-independent basis, Debye-Ang**3):
 XXXX=            -28.9383 YYYY=            -28.9383 ZZZZ=            -93.7781 XXXY=              0.0000
 XXXZ=              1.2406 YYYX=              0.0000 YYYZ=              0.0000 ZZZX=              0.0000
 ZZZY=              0.0000 XXYY=             -9.6461 XXZZ=            -19.3307 YYZZ=            -19.3307
 XXYZ=              0.0000 YYXZ=             -1.2406 ZZXY=              0.0000
 N-N= 4.188044108457D+01 E-N=-2.675230271254D+02  KE= 7.891394121068D+01
 Symmetry A    KE= 4.069227231241D+01
 Symmetry B    KE= 3.822166889826D+01
 No NMR shielding tensors so no spin-rotation constants.
 Leave Link  601 at Sat Feb 11 13:40:37 2017, MaxMem=  524288000 cpu:       0.5
 (Enter /Applications/Gaussian09/g09/l701.exe)
 Compute integral first derivatives.
 ... and contract with generalized density number  0.
 Leave Link  701 at Sat Feb 11 13:40:37 2017, MaxMem=  524288000 cpu:       0.5
 (Enter /Applications/Gaussian09/g09/l702.exe)
 L702 exits ... SP integral derivatives will be done elsewhere.
 Leave Link  702 at Sat Feb 11 13:40:37 2017, MaxMem=  524288000 cpu:       0.1
 (Enter /Applications/Gaussian09/g09/l703.exe)
 Compute integral first derivatives, UseDBF=F ICtDFT=           0.
 Integral derivatives from FoFDir, PRISM(SPDF).
 Calling FoFJK, ICntrl=      2127 FMM=F ISym2X=1 I1Cent= 0 IOpClX= 0 NMat=1 NMatS=1 NMatT=0.
 FoFCou: FMM=F IPFlag=           0 FMFlag=      100000 FMFlg1=         800
         NFxFlg=           0 DoJE=F BraDBF=F KetDBF=F FulRan=T
         Omega=  0.000000  0.000000  1.000000  0.000000  0.000000 ICntrl=    2127 IOpCl=  0
         NMat0=    1 NMatS0=    1 NMatT0=    0 NMatD0=    1 NMtDS0=    0 NMtDT0=    0
         I1Cent=           0 NGrid=           0.
 Petite list used in FoFCou.
 Leave Link  703 at Sat Feb 11 13:40:38 2017, MaxMem=  524288000 cpu:       1.0
 (Enter /Applications/Gaussian09/g09/l716.exe)
 Dipole        =-2.00927672D-16-9.38377462D-16-4.44089209D-16
 ***** Axes restored to original set *****
 -------------------------------------------------------------------
 Center     Atomic                   Forces (Hartrees/Bohr)
 Number     Number              X              Y              Z
 -------------------------------------------------------------------
      1        6           0.000000000    0.000000000   -0.000874152
      2        1           0.002043607   -0.003542259   -0.001162217
      3        1           0.002045883    0.003540945   -0.001162217
      4        1          -0.004089490    0.000001314   -0.001162217
      5        6           0.000000000    0.000000000    0.000874152
      6        1          -0.002045882    0.003540945    0.001162217
      7        1           0.004089490    0.000001313    0.001162217
      8        1          -0.002043607   -0.003542259    0.001162217
 -------------------------------------------------------------------
 Cartesian Forces:  Max     0.004089490 RMS     0.002140642
 Leave Link  716 at Sat Feb 11 13:40:38 2017, MaxMem=  524288000 cpu:       0.1
 (Enter /Applications/Gaussian09/g09/l103.exe)

 GradGradGradGradGradGradGradGradGradGradGradGradGradGradGradGradGradGrad
 Berny optimization.
 Internal  Forces:  Max     0.004360804 RMS     0.002141617
 Search for a local minimum.
 Step number   1 out of a maximum of   38
 All quantities printed in internal units (Hartrees-Bohrs-Radians)
 RMS Force = .21416D-02 SwitMx=.10000D-02 MixMth= 1
 Mixed Optimization -- RFO/linear search
 Second derivative matrix not updated -- first step.
 ITU=  0
     Eigenvalues ---    0.00247   0.05418   0.05418   0.05418   0.05418
     Eigenvalues ---    0.16000   0.16000   0.16000   0.16000   0.16000
     Eigenvalues ---    0.16000   0.28588   0.33405   0.33405   0.33405
     Eigenvalues ---    0.33405   0.33405   0.33405
 RFO step:  Lambda=-3.99632242D-04 EMin= 2.47168482D-03
 Linear search not attempted -- first point.
 Iteration  1 RMS(Cart)=  0.00748009 RMS(Int)=  0.00001223
 Iteration  2 RMS(Cart)=  0.00001707 RMS(Int)=  0.00000178
 Iteration  3 RMS(Cart)=  0.00000000 RMS(Int)=  0.00000178
 ClnCor:  largest displacement from symmetrization is 1.69D-12 for atom     8.
 Variable       Old X    -DE/DX   Delta X   Delta X   Delta X     New X
                                 (Linear)    (Quad)   (Total)
    R1        2.08346  -0.00423   0.00000  -0.01266  -0.01266   2.07081
    R2        2.08346  -0.00423   0.00000  -0.01266  -0.01266   2.07081
    R3        2.08346  -0.00423   0.00000  -0.01266  -0.01266   2.07081
    R4        2.90870  -0.00436   0.00000  -0.01523  -0.01523   2.89347
    R5        2.08346  -0.00423   0.00000  -0.01266  -0.01266   2.07081
    R6        2.08346  -0.00423   0.00000  -0.01266  -0.01266   2.07081
    R7        2.08346  -0.00423   0.00000  -0.01266  -0.01266   2.07081
    A1        1.88062  -0.00041   0.00000  -0.00253  -0.00254   1.87809
    A2        1.88062  -0.00041   0.00000  -0.00253  -0.00254   1.87809
    A3        1.93976   0.00038   0.00000   0.00239   0.00239   1.94215
    A4        1.88062  -0.00041   0.00000  -0.00253  -0.00254   1.87809
    A5        1.93976   0.00038   0.00000   0.00239   0.00239   1.94215
    A6        1.93976   0.00038   0.00000   0.00239   0.00239   1.94215
    A7        1.93976   0.00038   0.00000   0.00239   0.00239   1.94215
    A8        1.93976   0.00038   0.00000   0.00239   0.00239   1.94215
    A9        1.93976   0.00038   0.00000   0.00239   0.00239   1.94215
   A10        1.88062  -0.00041   0.00000  -0.00253  -0.00254   1.87809
   A11        1.88062  -0.00041   0.00000  -0.00253  -0.00254   1.87809
   A12        1.88062  -0.00041   0.00000  -0.00253  -0.00254   1.87809
    D1        3.14105   0.00000   0.00000   0.00005   0.00005   3.14110
    D2       -1.04774   0.00000   0.00000   0.00005   0.00005  -1.04769
    D3        1.04666   0.00000   0.00000   0.00005   0.00005   1.04670
    D4       -1.04774   0.00000   0.00000   0.00005   0.00005  -1.04769
    D5        1.04666   0.00000   0.00000   0.00005   0.00005   1.04670
    D6        3.14105   0.00000   0.00000   0.00005   0.00005   3.14110
    D7        1.04666   0.00000   0.00000   0.00005   0.00005   1.04670
    D8        3.14105   0.00000   0.00000   0.00005   0.00005   3.14110
    D9       -1.04774   0.00000   0.00000   0.00005   0.00005  -1.04769
         Item               Value     Threshold  Converged?
 Maximum Force            0.004361     0.000450     NO 
 RMS     Force            0.002142     0.000300     NO 
 Maximum Displacement     0.013596     0.001800     NO 
 RMS     Displacement     0.007485     0.001200     NO 
 Predicted change in Energy=-2.000695D-04
 GradGradGradGradGradGradGradGradGradGradGradGradGradGradGradGradGradGrad

 Leave Link  103 at Sat Feb 11 13:40:38 2017, MaxMem=  524288000 cpu:       0.3
 (Enter /Applications/Gaussian09/g09/l202.exe)
                          Input orientation:                          
 ---------------------------------------------------------------------
 Center     Atomic      Atomic             Coordinates (Angstroms)
 Number     Number       Type             X           Y           Z
 ---------------------------------------------------------------------
      1          6           0        0.000000    0.000000    0.765579
      2          1           0       -0.510345    0.884448    1.163232
      3          1           0       -0.510782   -0.884196    1.163232
      4          1           0        1.021127   -0.000252    1.163232
      5          6           0        0.000000    0.000000   -0.765579
      6          1           0        0.510782   -0.884196   -1.163232
      7          1           0       -1.021127   -0.000252   -1.163232
      8          1           0        0.510345    0.884448   -1.163232
 ---------------------------------------------------------------------
                    Distance matrix (angstroms):
                    1          2          3          4          5
     1  C    0.000000
     2  H    1.095823   0.000000
     3  H    1.095823   1.768644   0.000000
     4  H    1.095823   1.768644   1.768644   0.000000
     5  C    1.531157   2.182432   2.182432   2.182432   0.000000
     6  H    2.182432   3.095680   2.540871   2.540519   1.095823
     7  H    2.182432   2.540871   2.540519   3.095680   1.095823
     8  H    2.182432   2.540519   3.095680   2.540871   1.095823
                    6          7          8
     6  H    0.000000
     7  H    1.768644   0.000000
     8  H    1.768644   1.768644   0.000000
 Stoichiometry    C2H6
 Framework group  D3[C3(C.C),X(H6)]
 Deg. of freedom     4
 Full point group                 D3      NOp   6
 Largest Abelian subgroup         C2      NOp   2
 Largest concise Abelian subgroup C2      NOp   2
                         Standard orientation:                         
 ---------------------------------------------------------------------
 Center     Atomic      Atomic             Coordinates (Angstroms)
 Number     Number       Type             X           Y           Z
 ---------------------------------------------------------------------
      1          6           0        0.000000    0.000000    0.765579
      2          1           0       -0.510345    0.884448    1.163232
      3          1           0       -0.510782   -0.884196    1.163232
      4          1           0        1.021127   -0.000252    1.163232
      5          6           0        0.000000    0.000000   -0.765579
      6          1           0        0.510782   -0.884196   -1.163232
      7          1           0       -1.021127   -0.000252   -1.163232
      8          1           0        0.510345    0.884448   -1.163232
 ---------------------------------------------------------------------
 Rotational constants (GHZ):     80.1532262     19.8957057     19.8957057
 Leave Link  202 at Sat Feb 11 13:40:38 2017, MaxMem=  524288000 cpu:       0.0
 (Enter /Applications/Gaussian09/g09/l301.exe)
 Standard basis: 6-31G(d) (6D, 7F)
 Ernie: Thresh=  0.10000D-02 Tol=  0.10000D-05 Strict=F.
 There are    21 symmetry adapted basis functions of A   symmetry.
 There are    21 symmetry adapted basis functions of B   symmetry.
 Integral buffers will be    131072 words long.
 Raffenetti 2 integral format.
 Two-electron integral symmetry is turned on.
    42 basis functions,    80 primitive gaussians,    42 cartesian basis functions
     9 alpha electrons        9 beta electrons
       nuclear repulsion energy        42.1130205466 Hartrees.
 IExCor=  402 DFT=T Ex+Corr=B3LYP ExCW=0 ScaHFX=  0.200000
 ScaDFX=  0.800000  0.720000  1.000000  0.810000 ScalE2=  1.000000  1.000000
 IRadAn=      0 IRanWt=     -1 IRanGd=            0 ICorTp=0
 NAtoms=    8 NActive=    8 NUniq=    2 SFac= 4.00D+00 NAtFMM=   50 NAOKFM=F Big=F
 Leave Link  301 at Sat Feb 11 13:40:38 2017, MaxMem=  524288000 cpu:       0.1
 (Enter /Applications/Gaussian09/g09/l302.exe)
 NPDir=0 NMtPBC=     1 NCelOv=     1 NCel=       1 NClECP=     1 NCelD=      1
         NCelK=      1 NCelE2=     1 NClLst=     1 CellRange=     0.0.
 One-electron integrals computed using PRISM.
 One-electron integral symmetry used in STVInt
 NBasis=    42 RedAO= T  NBF=    21    21
 NBsUse=    42 1.00D-06 NBFU=    21    21
 Precomputing XC quadrature grid using
 IXCGrd= 2 IRadAn=           0 IRanWt=          -1 IRanGd=           0 AccXCQ= 0.00D+00.
 NRdTot=     492 NPtTot=       62472 NUsed=       66033 NTot=       66065
 NSgBfM=    42    42    42    42    42 NAtAll=     8     8.
 Leave Link  302 at Sat Feb 11 13:40:38 2017, MaxMem=  524288000 cpu:       0.4
 (Enter /Applications/Gaussian09/g09/l303.exe)
 DipDrv:  MaxL=1.
 Leave Link  303 at Sat Feb 11 13:40:38 2017, MaxMem=  524288000 cpu:       0.1
 (Enter /Applications/Gaussian09/g09/l401.exe)
 Initial guess read from the read-write file.
 B after Tr=     0.000000    0.000000    0.000000
         Rot=    1.000000    0.000000    0.000000    0.000000 Ang=   0.00 deg.
 Guess basis will be translated and rotated to current coordinates.
 Initial guess orbital symmetries:
       Occupied  (A1) (A2) (A1) (A2) (E) (E) (A1) (E) (E)
       Virtual   (A1) (A2) (E) (E) (E) (E) (A2) (A1) (E) (E) (E)
                 (E) (A2) (E) (E) (A1) (E) (E) (A2) (A1) (A2) (E)
                 (E) (A1) (E) (E) (E) (E) (E) (E) (A2) (A1) (A2)
 The electronic state of the initial guess is 1-A1.
 Leave Link  401 at Sat Feb 11 13:40:38 2017, MaxMem=  524288000 cpu:       0.3
 (Enter /Applications/Gaussian09/g09/l502.exe)
 Closed shell SCF:
 Requested convergence on RMS density matrix=1.00D-08 within 128 cycles.
 Requested convergence on MAX density matrix=1.00D-06.
 Requested convergence on             energy=1.00D-06.
 No special actions if energy rises.
 Using DIIS extrapolation, IDIIS=  1040.
 Integral symmetry usage will be decided dynamically.
        65948 words used for storage of precomputed grid.
 Keep R1 ints in memory in canonical form, NReq=1357850.
 IEnd=       90110 IEndB=       90110 NGot=   524288000 MDV=   523808153
 LenX=   523808153 LenY=   523805948
 Symmetry not used in FoFDir.
 MinBra= 0 MaxBra= 2 Meth= 1.
 IRaf=       0 NMat=   1 IRICut=       1 DoRegI=T DoRafI=F ISym2E= 0 JSym2E=0.

 Cycle   1  Pass 1  IDiag  1:
 E= -79.8303732007017    
 DIIS: error= 1.16D-03 at cycle   1 NSaved=   1.
 NSaved= 1 IEnMin= 1 EnMin= -79.8303732007017     IErMin= 1 ErrMin= 1.16D-03
 ErrMax= 1.16D-03 EMaxC= 1.00D-01 BMatC= 3.45D-05 BMatP= 3.45D-05
 IDIUse=3 WtCom= 9.88D-01 WtEn= 1.16D-02
 Coeff-Com:  0.100D+01
 Coeff-En:   0.100D+01
 Coeff:      0.100D+01
 Gap=     0.446 Goal=   None    Shift=    0.000
 GapD=    0.446 DampG=2.000 DampE=1.000 DampFc=2.0000 IDamp=-1.
 RMSDP=2.22D-04 MaxDP=1.98D-03              OVMax= 2.82D-03

 Cycle   2  Pass 1  IDiag  1:
 E= -79.8303893732405     Delta-E=       -0.000016172539 Rises=F Damp=F
 DIIS: error= 9.16D-04 at cycle   2 NSaved=   2.
 NSaved= 2 IEnMin= 2 EnMin= -79.8303893732405     IErMin= 2 ErrMin= 9.16D-04
 ErrMax= 9.16D-04 EMaxC= 1.00D-01 BMatC= 2.53D-05 BMatP= 3.45D-05
 IDIUse=3 WtCom= 9.91D-01 WtEn= 9.16D-03
 Coeff-Com:  0.455D+00 0.545D+00
 Coeff-En:   0.335D+00 0.665D+00
 Coeff:      0.454D+00 0.546D+00
 Gap=     0.445 Goal=   None    Shift=    0.000
 RMSDP=1.26D-04 MaxDP=1.17D-03 DE=-1.62D-05 OVMax= 1.49D-03

 Cycle   3  Pass 1  IDiag  1:
 E= -79.8304146236191     Delta-E=       -0.000025250379 Rises=F Damp=F
 DIIS: error= 1.69D-04 at cycle   3 NSaved=   3.
 NSaved= 3 IEnMin= 3 EnMin= -79.8304146236191     IErMin= 3 ErrMin= 1.69D-04
 ErrMax= 1.69D-04 EMaxC= 1.00D-01 BMatC= 1.13D-06 BMatP= 2.53D-05
 IDIUse=3 WtCom= 9.98D-01 WtEn= 1.69D-03
 Coeff-Com:  0.286D-01 0.181D+00 0.790D+00
 Coeff-En:   0.000D+00 0.000D+00 0.100D+01
 Coeff:      0.285D-01 0.181D+00 0.790D+00
 Gap=     0.445 Goal=   None    Shift=    0.000
 RMSDP=2.08D-05 MaxDP=1.98D-04 DE=-2.53D-05 OVMax= 3.06D-04

 Cycle   4  Pass 1  IDiag  1:
 E= -79.8304157492289     Delta-E=       -0.000001125610 Rises=F Damp=F
 DIIS: error= 2.45D-05 at cycle   4 NSaved=   4.
 NSaved= 4 IEnMin= 4 EnMin= -79.8304157492289     IErMin= 4 ErrMin= 2.45D-05
 ErrMax= 2.45D-05 EMaxC= 1.00D-01 BMatC= 1.18D-08 BMatP= 1.13D-06
 IDIUse=1 WtCom= 1.00D+00 WtEn= 0.00D+00
 Coeff-Com: -0.367D-02 0.318D-01 0.190D+00 0.782D+00
 Coeff:     -0.367D-02 0.318D-01 0.190D+00 0.782D+00
 Gap=     0.445 Goal=   None    Shift=    0.000
 RMSDP=2.26D-06 MaxDP=1.61D-05 DE=-1.13D-06 OVMax= 3.16D-05

 Cycle   5  Pass 1  IDiag  1:
 E= -79.8304157600337     Delta-E=       -0.000000010805 Rises=F Damp=F
 DIIS: error= 6.13D-07 at cycle   5 NSaved=   5.
 NSaved= 5 IEnMin= 5 EnMin= -79.8304157600337     IErMin= 5 ErrMin= 6.13D-07
 ErrMax= 6.13D-07 EMaxC= 1.00D-01 BMatC= 1.27D-11 BMatP= 1.18D-08
 IDIUse=1 WtCom= 1.00D+00 WtEn= 0.00D+00
 Coeff-Com: -0.521D-03-0.177D-04 0.318D-03 0.219D-01 0.978D+00
 Coeff:     -0.521D-03-0.177D-04 0.318D-03 0.219D-01 0.978D+00
 Gap=     0.445 Goal=   None    Shift=    0.000
 RMSDP=1.24D-07 MaxDP=7.30D-07 DE=-1.08D-08 OVMax= 1.64D-06

 Cycle   6  Pass 1  IDiag  1:
 E= -79.8304157600516     Delta-E=       -0.000000000018 Rises=F Damp=F
 DIIS: error= 7.34D-08 at cycle   6 NSaved=   6.
 NSaved= 6 IEnMin= 6 EnMin= -79.8304157600516     IErMin= 6 ErrMin= 7.34D-08
 ErrMax= 7.34D-08 EMaxC= 1.00D-01 BMatC= 1.54D-13 BMatP= 1.27D-11
 IDIUse=1 WtCom= 1.00D+00 WtEn= 0.00D+00
 Coeff-Com:  0.235D-04-0.134D-03-0.373D-03-0.217D-02-0.221D-01 0.102D+01
 Coeff:      0.235D-04-0.134D-03-0.373D-03-0.217D-02-0.221D-01 0.102D+01
 Gap=     0.445 Goal=   None    Shift=    0.000
 RMSDP=1.04D-08 MaxDP=7.53D-08 DE=-1.79D-11 OVMax= 1.25D-07

 Cycle   7  Pass 1  IDiag  1:
 E= -79.8304157600517     Delta-E=        0.000000000000 Rises=F Damp=F
 DIIS: error= 2.36D-09 at cycle   7 NSaved=   7.
 NSaved= 7 IEnMin= 7 EnMin= -79.8304157600517     IErMin= 7 ErrMin= 2.36D-09
 ErrMax= 2.36D-09 EMaxC= 1.00D-01 BMatC= 1.44D-16 BMatP= 1.54D-13
 IDIUse=1 WtCom= 1.00D+00 WtEn= 0.00D+00
 Coeff-Com:  0.439D-06 0.398D-06-0.524D-05 0.368D-04-0.123D-02-0.140D-02
 Coeff-Com:  0.100D+01
 Coeff:      0.439D-06 0.398D-06-0.524D-05 0.368D-04-0.123D-02-0.140D-02
 Coeff:      0.100D+01
 Gap=     0.445 Goal=   None    Shift=    0.000
 RMSDP=2.85D-10 MaxDP=1.61D-09 DE=-1.14D-13 OVMax= 3.96D-09

 SCF Done:  E(RB3LYP) =  -79.8304157601     A.U. after    7 cycles
             Convg  =    0.2851D-09             -V/T =  2.0108
 KE= 7.897702910934D+01 PE=-2.680339199333D+02 EE= 6.711345451736D+01
 Leave Link  502 at Sat Feb 11 13:40:39 2017, MaxMem=  524288000 cpu:       0.7
 (Enter /Applications/Gaussian09/g09/l701.exe)
 Compute integral first derivatives.
 ... and contract with generalized density number  0.
 Leave Link  701 at Sat Feb 11 13:40:39 2017, MaxMem=  524288000 cpu:       0.3
 (Enter /Applications/Gaussian09/g09/l702.exe)
 L702 exits ... SP integral derivatives will be done elsewhere.
 Leave Link  702 at Sat Feb 11 13:40:39 2017, MaxMem=  524288000 cpu:       0.1
 (Enter /Applications/Gaussian09/g09/l703.exe)
 Compute integral first derivatives, UseDBF=F ICtDFT=           0.
 Integral derivatives from FoFDir, PRISM(SPDF).
 Calling FoFJK, ICntrl=      2127 FMM=F ISym2X=1 I1Cent= 0 IOpClX= 0 NMat=1 NMatS=1 NMatT=0.
 FoFCou: FMM=F IPFlag=           0 FMFlag=      100000 FMFlg1=         800
         NFxFlg=           0 DoJE=F BraDBF=F KetDBF=F FulRan=T
         Omega=  0.000000  0.000000  1.000000  0.000000  0.000000 ICntrl=    2127 IOpCl=  0
         NMat0=    1 NMatS0=    1 NMatT0=    0 NMatD0=    1 NMtDS0=    0 NMtDT0=    0
         I1Cent=           0 NGrid=           0.
 Petite list used in FoFCou.
 Leave Link  703 at Sat Feb 11 13:40:39 2017, MaxMem=  524288000 cpu:       0.5
 (Enter /Applications/Gaussian09/g09/l716.exe)
 Dipole        =-5.56761355D-16 4.45065174D-16 0.00000000D+00
 ***** Axes restored to original set *****
 -------------------------------------------------------------------
 Center     Atomic                   Forces (Hartrees/Bohr)
 Number     Number              X              Y              Z
 -------------------------------------------------------------------
      1        6           0.000000000    0.000000000   -0.000730351
      2        1          -0.000058330    0.000100934    0.000223736
      3        1          -0.000058246   -0.000100982    0.000223736
      4        1           0.000116576    0.000000049    0.000223736
      5        6           0.000000000    0.000000000    0.000730351
      6        1           0.000058246   -0.000100982   -0.000223736
      7        1          -0.000116576    0.000000049   -0.000223736
      8        1           0.000058330    0.000100934   -0.000223736
 -------------------------------------------------------------------
 Cartesian Forces:  Max     0.000730351 RMS     0.000245689
 Leave Link  716 at Sat Feb 11 13:40:39 2017, MaxMem=  524288000 cpu:       0.1
 (Enter /Applications/Gaussian09/g09/l103.exe)

 GradGradGradGradGradGradGradGradGradGradGradGradGradGradGradGradGradGrad
 Berny optimization.
 Using GEDIIS/GDIIS optimizer.
 Internal  Forces:  Max     0.000189819 RMS     0.000140516
 Search for a local minimum.
 Step number   2 out of a maximum of   38
 All quantities printed in internal units (Hartrees-Bohrs-Radians)
 RMS Force = .14052D-03 SwitMx=.10000D-02 MixMth= 2
 Mixed Optimization -- En-DIIS/RFO-DIIS
 Update second derivatives using D2CorX and points    1    2
 DE= -1.97D-04 DEPred=-2.00D-04 R= 9.84D-01
 SS=  1.41D+00  RLast= 3.56D-02 DXNew= 5.0454D-01 1.0675D-01
 Trust test= 9.84D-01 RLast= 3.56D-02 DXMaxT set to 3.00D-01
 ITU=  1  0
 Use linear search instead of GDIIS.
     Eigenvalues ---    0.00247   0.05393   0.05393   0.05393   0.05393
     Eigenvalues ---    0.15548   0.16000   0.16000   0.16000   0.16000
     Eigenvalues ---    0.16000   0.28399   0.33405   0.33405   0.33405
     Eigenvalues ---    0.33405   0.33405   0.35393
 RFO step:  Lambda=-2.45694446D-06 EMin= 2.47168465D-03
 Quartic linear search produced a step of -0.02066.
 Iteration  1 RMS(Cart)=  0.00091858 RMS(Int)=  0.00000049
 Iteration  2 RMS(Cart)=  0.00000042 RMS(Int)=  0.00000028
 ClnCor:  largest displacement from symmetrization is 9.38D-13 for atom     8.
 Variable       Old X    -DE/DX   Delta X   Delta X   Delta X     New X
                                 (Linear)    (Quad)   (Total)
    R1        2.07081   0.00019   0.00026   0.00021   0.00047   2.07128
    R2        2.07081   0.00019   0.00026   0.00021   0.00047   2.07128
    R3        2.07081   0.00019   0.00026   0.00021   0.00047   2.07128
    R4        2.89347  -0.00006   0.00031  -0.00062  -0.00030   2.89317
    R5        2.07081   0.00019   0.00026   0.00021   0.00047   2.07128
    R6        2.07081   0.00019   0.00026   0.00021   0.00047   2.07128
    R7        2.07081   0.00019   0.00026   0.00021   0.00047   2.07128
    A1        1.87809  -0.00017   0.00005  -0.00112  -0.00107   1.87702
    A2        1.87809  -0.00017   0.00005  -0.00112  -0.00107   1.87702
    A3        1.94215   0.00016  -0.00005   0.00105   0.00100   1.94316
    A4        1.87809  -0.00017   0.00005  -0.00112  -0.00107   1.87702
    A5        1.94215   0.00016  -0.00005   0.00105   0.00100   1.94316
    A6        1.94215   0.00016  -0.00005   0.00105   0.00100   1.94316
    A7        1.94215   0.00016  -0.00005   0.00105   0.00100   1.94316
    A8        1.94215   0.00016  -0.00005   0.00105   0.00100   1.94316
    A9        1.94215   0.00016  -0.00005   0.00105   0.00100   1.94316
   A10        1.87809  -0.00017   0.00005  -0.00112  -0.00107   1.87702
   A11        1.87809  -0.00017   0.00005  -0.00112  -0.00107   1.87702
   A12        1.87809  -0.00017   0.00005  -0.00112  -0.00107   1.87702
    D1        3.14110   0.00000   0.00000   0.00002   0.00002   3.14112
    D2       -1.04769   0.00000   0.00000   0.00002   0.00002  -1.04767
    D3        1.04670   0.00000   0.00000   0.00002   0.00002   1.04673
    D4       -1.04769   0.00000   0.00000   0.00002   0.00002  -1.04767
    D5        1.04670   0.00000   0.00000   0.00002   0.00002   1.04673
    D6        3.14110   0.00000   0.00000   0.00002   0.00002   3.14112
    D7        1.04670   0.00000   0.00000   0.00002   0.00002   1.04673
    D8        3.14110   0.00000   0.00000   0.00002   0.00002   3.14112
    D9       -1.04769   0.00000   0.00000   0.00002   0.00002  -1.04767
         Item               Value     Threshold  Converged?
 Maximum Force            0.000190     0.000450     YES
 RMS     Force            0.000141     0.000300     YES
 Maximum Displacement     0.001957     0.001800     NO 
 RMS     Displacement     0.000919     0.001200     YES
 Predicted change in Energy=-1.315698D-06
 GradGradGradGradGradGradGradGradGradGradGradGradGradGradGradGradGradGrad

 Leave Link  103 at Sat Feb 11 13:40:39 2017, MaxMem=  524288000 cpu:       0.1
 (Enter /Applications/Gaussian09/g09/l202.exe)
                          Input orientation:                          
 ---------------------------------------------------------------------
 Center     Atomic      Atomic             Coordinates (Angstroms)
 Number     Number       Type             X           Y           Z
 ---------------------------------------------------------------------
      1          6           0        0.000000    0.000000    0.765499
      2          1           0       -0.510272    0.884299    1.164267
      3          1           0       -0.510689   -0.884058    1.164267
      4          1           0        1.020961   -0.000241    1.164267
      5          6           0        0.000000    0.000000   -0.765499
      6          1           0        0.510689   -0.884058   -1.164267
      7          1           0       -1.020961   -0.000241   -1.164267
      8          1           0        0.510272    0.884299   -1.164267
 ---------------------------------------------------------------------
                    Distance matrix (angstroms):
                    1          2          3          4          5
     1  C    0.000000
     2  H    1.096074   0.000000
     3  H    1.096074   1.768357   0.000000
     4  H    1.096074   1.768357   1.768357   0.000000
     5  C    1.530997   2.183199   2.183199   2.183199   0.000000
     6  H    2.183199   3.097018   2.542693   2.542358   1.096074
     7  H    2.183199   2.542693   2.542358   3.097018   1.096074
     8  H    2.183199   2.542358   3.097018   2.542693   1.096074
                    6          7          8
     6  H    0.000000
     7  H    1.768357   0.000000
     8  H    1.768357   1.768357   0.000000
 Stoichiometry    C2H6
 Framework group  D3[C3(C.C),X(H6)]
 Deg. of freedom     4
 Full point group                 D3      NOp   6
 Largest Abelian subgroup         C2      NOp   2
 Largest concise Abelian subgroup C2      NOp   2
                         Standard orientation:                         
 ---------------------------------------------------------------------
 Center     Atomic      Atomic             Coordinates (Angstroms)
 Number     Number       Type             X           Y           Z
 ---------------------------------------------------------------------
      1          6           0        0.000000    0.000000    0.765499
      2          1           0       -0.510272    0.884299    1.164267
      3          1           0       -0.510689   -0.884058    1.164267
      4          1           0        1.020961   -0.000241    1.164267
      5          6           0        0.000000    0.000000   -0.765499
      6          1           0        0.510689   -0.884058   -1.164267
      7          1           0       -1.020961   -0.000241   -1.164267
      8          1           0        0.510272    0.884299   -1.164267
 ---------------------------------------------------------------------
 Rotational constants (GHZ):     80.1792848     19.8873984     19.8873984
 Leave Link  202 at Sat Feb 11 13:40:39 2017, MaxMem=  524288000 cpu:       0.0
 (Enter /Applications/Gaussian09/g09/l301.exe)
 Standard basis: 6-31G(d) (6D, 7F)
 Ernie: Thresh=  0.10000D-02 Tol=  0.10000D-05 Strict=F.
 There are    21 symmetry adapted basis functions of A   symmetry.
 There are    21 symmetry adapted basis functions of B   symmetry.
 Integral buffers will be    131072 words long.
 Raffenetti 2 integral format.
 Two-electron integral symmetry is turned on.
    42 basis functions,    80 primitive gaussians,    42 cartesian basis functions
     9 alpha electrons        9 beta electrons
       nuclear repulsion energy        42.1064468236 Hartrees.
 IExCor=  402 DFT=T Ex+Corr=B3LYP ExCW=0 ScaHFX=  0.200000
 ScaDFX=  0.800000  0.720000  1.000000  0.810000 ScalE2=  1.000000  1.000000
 IRadAn=      0 IRanWt=     -1 IRanGd=            0 ICorTp=0
 NAtoms=    8 NActive=    8 NUniq=    2 SFac= 4.00D+00 NAtFMM=   50 NAOKFM=F Big=F
 Leave Link  301 at Sat Feb 11 13:40:39 2017, MaxMem=  524288000 cpu:       0.1
 (Enter /Applications/Gaussian09/g09/l302.exe)
 NPDir=0 NMtPBC=     1 NCelOv=     1 NCel=       1 NClECP=     1 NCelD=      1
         NCelK=      1 NCelE2=     1 NClLst=     1 CellRange=     0.0.
 One-electron integrals computed using PRISM.
 One-electron integral symmetry used in STVInt
 NBasis=    42 RedAO= T  NBF=    21    21
 NBsUse=    42 1.00D-06 NBFU=    21    21
 Precomputing XC quadrature grid using
 IXCGrd= 2 IRadAn=           0 IRanWt=          -1 IRanGd=           0 AccXCQ= 0.00D+00.
 NRdTot=     492 NPtTot=       62472 NUsed=       66033 NTot=       66065
 NSgBfM=    42    42    42    42    42 NAtAll=     8     8.
 Leave Link  302 at Sat Feb 11 13:40:39 2017, MaxMem=  524288000 cpu:       0.4
 (Enter /Applications/Gaussian09/g09/l303.exe)
 DipDrv:  MaxL=1.
 Leave Link  303 at Sat Feb 11 13:40:39 2017, MaxMem=  524288000 cpu:       0.1
 (Enter /Applications/Gaussian09/g09/l401.exe)
 Initial guess read from the read-write file.
 B after Tr=     0.000000    0.000000    0.000000
         Rot=    1.000000    0.000000    0.000000    0.000000 Ang=   0.00 deg.
 Guess basis will be translated and rotated to current coordinates.
 Initial guess orbital symmetries:
       Occupied  (A1) (A2) (A1) (A2) (E) (E) (A1) (E) (E)
       Virtual   (A1) (A2) (E) (E) (E) (E) (A2) (A1) (E) (E) (E)
                 (E) (A2) (E) (E) (A1) (E) (E) (A2) (A1) (A2) (E)
                 (E) (A1) (E) (E) (E) (E) (E) (E) (A2) (A1) (A2)
 The electronic state of the initial guess is 1-A1.
 Leave Link  401 at Sat Feb 11 13:40:39 2017, MaxMem=  524288000 cpu:       0.2
 (Enter /Applications/Gaussian09/g09/l502.exe)
 Closed shell SCF:
 Requested convergence on RMS density matrix=1.00D-08 within 128 cycles.
 Requested convergence on MAX density matrix=1.00D-06.
 Requested convergence on             energy=1.00D-06.
 No special actions if energy rises.
 Using DIIS extrapolation, IDIIS=  1040.
 Integral symmetry usage will be decided dynamically.
        65948 words used for storage of precomputed grid.
 Keep R1 ints in memory in canonical form, NReq=1357850.
 IEnd=       90110 IEndB=       90110 NGot=   524288000 MDV=   523808153
 LenX=   523808153 LenY=   523805948
 Symmetry not used in FoFDir.
 MinBra= 0 MaxBra= 2 Meth= 1.
 IRaf=       0 NMat=   1 IRICut=       1 DoRegI=T DoRafI=F ISym2E= 0 JSym2E=0.

 Cycle   1  Pass 1  IDiag  1:
 E= -79.8304170101998    
 DIIS: error= 8.17D-05 at cycle   1 NSaved=   1.
 NSaved= 1 IEnMin= 1 EnMin= -79.8304170101998     IErMin= 1 ErrMin= 8.17D-05
 ErrMax= 8.17D-05 EMaxC= 1.00D-01 BMatC= 2.28D-07 BMatP= 2.28D-07
 IDIUse=1 WtCom= 1.00D+00 WtEn= 0.00D+00
 Coeff-Com:  0.100D+01
 Coeff:      0.100D+01
 Gap=     0.445 Goal=   None    Shift=    0.000
 RMSDP=1.50D-05 MaxDP=9.27D-05              OVMax= 2.02D-04

 Cycle   2  Pass 1  IDiag  1:
 E= -79.8304172961928     Delta-E=       -0.000000285993 Rises=F Damp=F
 DIIS: error= 3.22D-05 at cycle   2 NSaved=   2.
 NSaved= 2 IEnMin= 2 EnMin= -79.8304172961928     IErMin= 2 ErrMin= 3.22D-05
 ErrMax= 3.22D-05 EMaxC= 1.00D-01 BMatC= 3.70D-08 BMatP= 2.28D-07
 IDIUse=1 WtCom= 1.00D+00 WtEn= 0.00D+00
 Coeff-Com:  0.204D+00 0.796D+00
 Coeff:      0.204D+00 0.796D+00
 Gap=     0.445 Goal=   None    Shift=    0.000
 RMSDP=7.11D-06 MaxDP=5.92D-05 DE=-2.86D-07 OVMax= 8.24D-05

 Cycle   3  Pass 1  IDiag  1:
 E= -79.8304173146164     Delta-E=       -0.000000018424 Rises=F Damp=F
 DIIS: error= 2.46D-05 at cycle   3 NSaved=   3.
 NSaved= 3 IEnMin= 3 EnMin= -79.8304173146164     IErMin= 3 ErrMin= 2.46D-05
 ErrMax= 2.46D-05 EMaxC= 1.00D-01 BMatC= 2.07D-08 BMatP= 3.70D-08
 IDIUse=1 WtCom= 1.00D+00 WtEn= 0.00D+00
 Coeff-Com: -0.493D-02 0.427D+00 0.578D+00
 Coeff:     -0.493D-02 0.427D+00 0.578D+00
 Gap=     0.445 Goal=   None    Shift=    0.000
 RMSDP=2.87D-06 MaxDP=2.86D-05 DE=-1.84D-08 OVMax= 3.53D-05

 Cycle   4  Pass 1  IDiag  1:
 E= -79.8304173355892     Delta-E=       -0.000000020973 Rises=F Damp=F
 DIIS: error= 1.18D-06 at cycle   4 NSaved=   4.
 NSaved= 4 IEnMin= 4 EnMin= -79.8304173355892     IErMin= 4 ErrMin= 1.18D-06
 ErrMax= 1.18D-06 EMaxC= 1.00D-01 BMatC= 4.14D-11 BMatP= 2.07D-08
 IDIUse=1 WtCom= 1.00D+00 WtEn= 0.00D+00
 Coeff-Com: -0.675D-02 0.793D-01 0.118D+00 0.809D+00
 Coeff:     -0.675D-02 0.793D-01 0.118D+00 0.809D+00
 Gap=     0.445 Goal=   None    Shift=    0.000
 RMSDP=1.35D-07 MaxDP=8.55D-07 DE=-2.10D-08 OVMax= 2.11D-06

 Cycle   5  Pass 1  IDiag  1:
 E= -79.8304173356259     Delta-E=       -0.000000000037 Rises=F Damp=F
 DIIS: error= 1.27D-07 at cycle   5 NSaved=   5.
 NSaved= 5 IEnMin= 5 EnMin= -79.8304173356259     IErMin= 5 ErrMin= 1.27D-07
 ErrMax= 1.27D-07 EMaxC= 1.00D-01 BMatC= 5.01D-13 BMatP= 4.14D-11
 IDIUse=1 WtCom= 1.00D+00 WtEn= 0.00D+00
 Coeff-Com: -0.488D-03 0.169D-02 0.702D-03 0.943D-01 0.904D+00
 Coeff:     -0.488D-03 0.169D-02 0.702D-03 0.943D-01 0.904D+00
 Gap=     0.445 Goal=   None    Shift=    0.000
 RMSDP=2.13D-08 MaxDP=1.38D-07 DE=-3.67D-11 OVMax= 2.63D-07

 Cycle   6  Pass 1  IDiag  1:
 E= -79.8304173356264     Delta-E=        0.000000000000 Rises=F Damp=F
 DIIS: error= 5.75D-09 at cycle   6 NSaved=   6.
 NSaved= 6 IEnMin= 6 EnMin= -79.8304173356264     IErMin= 6 ErrMin= 5.75D-09
 ErrMax= 5.75D-09 EMaxC= 1.00D-01 BMatC= 1.23D-15 BMatP= 5.01D-13
 IDIUse=1 WtCom= 1.00D+00 WtEn= 0.00D+00
 Coeff-Com:  0.347D-04-0.370D-03-0.325D-03-0.603D-02-0.125D-01 0.102D+01
 Coeff:      0.347D-04-0.370D-03-0.325D-03-0.603D-02-0.125D-01 0.102D+01
 Gap=     0.445 Goal=   None    Shift=    0.000
 RMSDP=1.09D-09 MaxDP=8.05D-09 DE=-4.83D-13 OVMax= 1.18D-08

 SCF Done:  E(RB3LYP) =  -79.8304173356     A.U. after    6 cycles
             Convg  =    0.1085D-08             -V/T =  2.0108
 KE= 7.897502513978D+01 PE=-2.680190086712D+02 EE= 6.710711937222D+01
 Leave Link  502 at Sat Feb 11 13:40:39 2017, MaxMem=  524288000 cpu:       0.6
 (Enter /Applications/Gaussian09/g09/l701.exe)
 Compute integral first derivatives.
 ... and contract with generalized density number  0.
 Leave Link  701 at Sat Feb 11 13:40:39 2017, MaxMem=  524288000 cpu:       0.3
 (Enter /Applications/Gaussian09/g09/l702.exe)
 L702 exits ... SP integral derivatives will be done elsewhere.
 Leave Link  702 at Sat Feb 11 13:40:40 2017, MaxMem=  524288000 cpu:       0.1
 (Enter /Applications/Gaussian09/g09/l703.exe)
 Compute integral first derivatives, UseDBF=F ICtDFT=           0.
 Integral derivatives from FoFDir, PRISM(SPDF).
 Calling FoFJK, ICntrl=      2127 FMM=F ISym2X=1 I1Cent= 0 IOpClX= 0 NMat=1 NMatS=1 NMatT=0.
 FoFCou: FMM=F IPFlag=           0 FMFlag=      100000 FMFlg1=         800
         NFxFlg=           0 DoJE=F BraDBF=F KetDBF=F FulRan=T
         Omega=  0.000000  0.000000  1.000000  0.000000  0.000000 ICntrl=    2127 IOpCl=  0
         NMat0=    1 NMatS0=    1 NMatT0=    0 NMatD0=    1 NMtDS0=    0 NMtDT0=    0
         I1Cent=           0 NGrid=           0.
 Petite list used in FoFCou.
 Leave Link  703 at Sat Feb 11 13:40:40 2017, MaxMem=  524288000 cpu:       0.5
 (Enter /Applications/Gaussian09/g09/l716.exe)
 Dipole        =-5.01481517D-16 2.21068555D-16 1.33226763D-15
 ***** Axes restored to original set *****
 -------------------------------------------------------------------
 Center     Atomic                   Forces (Hartrees/Bohr)
 Number     Number              X              Y              Z
 -------------------------------------------------------------------
      1        6           0.000000000    0.000000000   -0.000310710
      2        1          -0.000017050    0.000029512    0.000041807
      3        1          -0.000017033   -0.000029522    0.000041807
      4        1           0.000034083    0.000000010    0.000041807
      5        6           0.000000000    0.000000000    0.000310710
      6        1           0.000017033   -0.000029522   -0.000041807
      7        1          -0.000034083    0.000000010   -0.000041807
      8        1           0.000017050    0.000029512   -0.000041807
 -------------------------------------------------------------------
 Cartesian Forces:  Max     0.000310710 RMS     0.000093661
 Leave Link  716 at Sat Feb 11 13:40:40 2017, MaxMem=  524288000 cpu:       0.1
 (Enter /Applications/Gaussian09/g09/l103.exe)

 GradGradGradGradGradGradGradGradGradGradGradGradGradGradGradGradGradGrad
 Berny optimization.
 Using GEDIIS/GDIIS optimizer.
 Internal  Forces:  Max     0.000185289 RMS     0.000044741
 Search for a local minimum.
 Step number   3 out of a maximum of   38
 All quantities printed in internal units (Hartrees-Bohrs-Radians)
 RMS Force = .44741D-04 SwitMx=.10000D-02 MixMth= 2
 Mixed Optimization -- En-DIIS/RFO-DIIS
 Swaping is turned off.
 Update second derivatives using D2CorX and points    1    2    3
 DE= -1.58D-06 DEPred=-1.32D-06 R= 1.20D+00
 SS=  1.41D+00  RLast= 3.79D-03 DXNew= 5.0454D-01 1.1364D-02
 Trust test= 1.20D+00 RLast= 3.79D-03 DXMaxT set to 3.00D-01
 ITU=  1  1  0
     Eigenvalues ---    0.00247   0.05382   0.05382   0.05382   0.05382
     Eigenvalues ---    0.12486   0.16000   0.16000   0.16000   0.16000
     Eigenvalues ---    0.16000   0.28722   0.33405   0.33405   0.33405
     Eigenvalues ---    0.33405   0.33405   0.34681
 En-DIIS/RFO-DIIS IScMMF=        0 using points:     3    2
 RFO step:  Lambda=-1.27039263D-07.
 DidBck=F Rises=F RFO-DIIS coefs:    1.24664   -0.24664
 Iteration  1 RMS(Cart)=  0.00013840 RMS(Int)=  0.00000011
 Iteration  2 RMS(Cart)=  0.00000004 RMS(Int)=  0.00000010
 ClnCor:  largest displacement from symmetrization is 1.38D-13 for atom     3.
 Variable       Old X    -DE/DX   Delta X   Delta X   Delta X     New X
                                  (DIIS)     (GDIIS)  (Total)
    R1        2.07128   0.00005   0.00012   0.00006   0.00018   2.07146
    R2        2.07128   0.00005   0.00012   0.00006   0.00018   2.07146
    R3        2.07128   0.00005   0.00012   0.00006   0.00018   2.07146
    R4        2.89317  -0.00019  -0.00007  -0.00079  -0.00086   2.89230
    R5        2.07128   0.00005   0.00012   0.00006   0.00018   2.07146
    R6        2.07128   0.00005   0.00012   0.00006   0.00018   2.07146
    R7        2.07128   0.00005   0.00012   0.00006   0.00018   2.07146
    A1        1.87702  -0.00003  -0.00026  -0.00003  -0.00029   1.87673
    A2        1.87702  -0.00003  -0.00026  -0.00003  -0.00029   1.87673
    A3        1.94316   0.00003   0.00025   0.00003   0.00027   1.94343
    A4        1.87702  -0.00003  -0.00026  -0.00003  -0.00029   1.87673
    A5        1.94316   0.00003   0.00025   0.00003   0.00027   1.94343
    A6        1.94316   0.00003   0.00025   0.00003   0.00027   1.94343
    A7        1.94316   0.00003   0.00025   0.00003   0.00027   1.94343
    A8        1.94316   0.00003   0.00025   0.00003   0.00027   1.94343
    A9        1.94316   0.00003   0.00025   0.00003   0.00027   1.94343
   A10        1.87702  -0.00003  -0.00026  -0.00003  -0.00029   1.87673
   A11        1.87702  -0.00003  -0.00026  -0.00003  -0.00029   1.87673
   A12        1.87702  -0.00003  -0.00026  -0.00003  -0.00029   1.87673
    D1        3.14112   0.00000   0.00001   0.00000   0.00001   3.14113
    D2       -1.04767   0.00000   0.00001   0.00000   0.00001  -1.04766
    D3        1.04673   0.00000   0.00001   0.00000   0.00001   1.04673
    D4       -1.04767   0.00000   0.00001   0.00000   0.00001  -1.04766
    D5        1.04673   0.00000   0.00001   0.00000   0.00001   1.04673
    D6        3.14112   0.00000   0.00001   0.00000   0.00001   3.14113
    D7        1.04673   0.00000   0.00001   0.00000   0.00001   1.04673
    D8        3.14112   0.00000   0.00001   0.00000   0.00001   3.14113
    D9       -1.04767   0.00000   0.00001   0.00000   0.00001  -1.04766
         Item               Value     Threshold  Converged?
 Maximum Force            0.000185     0.000450     YES
 RMS     Force            0.000045     0.000300     YES
 Maximum Displacement     0.000432     0.001800     YES
 RMS     Displacement     0.000138     0.001200     YES
 Predicted change in Energy=-1.505320D-07
 Optimization completed.
    -- Stationary point found.
                           ----------------------------
                           !   Optimized Parameters   !
                           ! (Angstroms and Degrees)  !
 --------------------------                            --------------------------
 ! Name  Definition              Value          Derivative Info.                !
 --------------------------------------------------------------------------------
 ! R1    R(1,2)                  1.0961         -DE/DX =    0.0                 !
 ! R2    R(1,3)                  1.0961         -DE/DX =    0.0                 !
 ! R3    R(1,4)                  1.0961         -DE/DX =    0.0                 !
 ! R4    R(1,5)                  1.531          -DE/DX =   -0.0002              !
 ! R5    R(5,6)                  1.0961         -DE/DX =    0.0                 !
 ! R6    R(5,7)                  1.0961         -DE/DX =    0.0                 !
 ! R7    R(5,8)                  1.0961         -DE/DX =    0.0                 !
 ! A1    A(2,1,3)              107.5452         -DE/DX =    0.0                 !
 ! A2    A(2,1,4)              107.5452         -DE/DX =    0.0                 !
 ! A3    A(2,1,5)              111.3347         -DE/DX =    0.0                 !
 ! A4    A(3,1,4)              107.5452         -DE/DX =    0.0                 !
 ! A5    A(3,1,5)              111.3347         -DE/DX =    0.0                 !
 ! A6    A(4,1,5)              111.3347         -DE/DX =    0.0                 !
 ! A7    A(1,5,6)              111.3347         -DE/DX =    0.0                 !
 ! A8    A(1,5,7)              111.3347         -DE/DX =    0.0                 !
 ! A9    A(1,5,8)              111.3347         -DE/DX =    0.0                 !
 ! A10   A(6,5,7)              107.5452         -DE/DX =    0.0                 !
 ! A11   A(6,5,8)              107.5452         -DE/DX =    0.0                 !
 ! A12   A(7,5,8)              107.5452         -DE/DX =    0.0                 !
 ! D1    D(2,1,5,6)            179.973          -DE/DX =    0.0                 !
 ! D2    D(2,1,5,7)            -60.027          -DE/DX =    0.0                 !
 ! D3    D(2,1,5,8)             59.973          -DE/DX =    0.0                 !
 ! D4    D(3,1,5,6)            -60.027          -DE/DX =    0.0                 !
 ! D5    D(3,1,5,7)             59.973          -DE/DX =    0.0                 !
 ! D6    D(3,1,5,8)            179.973          -DE/DX =    0.0                 !
 ! D7    D(4,1,5,6)             59.973          -DE/DX =    0.0                 !
 ! D8    D(4,1,5,7)            179.973          -DE/DX =    0.0                 !
 ! D9    D(4,1,5,8)            -60.027          -DE/DX =    0.0                 !
 --------------------------------------------------------------------------------
 GradGradGradGradGradGradGradGradGradGradGradGradGradGradGradGradGradGrad

 Largest change from initial coordinates is atom    3       0.008 Angstoms.
 Leave Link  103 at Sat Feb 11 13:40:40 2017, MaxMem=  524288000 cpu:       0.0
 (Enter /Applications/Gaussian09/g09/l202.exe)
                          Input orientation:                          
 ---------------------------------------------------------------------
 Center     Atomic      Atomic             Coordinates (Angstroms)
 Number     Number       Type             X           Y           Z
 ---------------------------------------------------------------------
      1          6           0        0.000000    0.000000    0.765499
      2          1           0       -0.510272    0.884299    1.164267
      3          1           0       -0.510689   -0.884058    1.164267
      4          1           0        1.020961   -0.000241    1.164267
      5          6           0        0.000000    0.000000   -0.765499
      6          1           0        0.510689   -0.884058   -1.164267
      7          1           0       -1.020961   -0.000241   -1.164267
      8          1           0        0.510272    0.884299   -1.164267
 ---------------------------------------------------------------------
                    Distance matrix (angstroms):
                    1          2          3          4          5
     1  C    0.000000
     2  H    1.096074   0.000000
     3  H    1.096074   1.768357   0.000000
     4  H    1.096074   1.768357   1.768357   0.000000
     5  C    1.530997   2.183199   2.183199   2.183199   0.000000
     6  H    2.183199   3.097018   2.542693   2.542358   1.096074
     7  H    2.183199   2.542693   2.542358   3.097018   1.096074
     8  H    2.183199   2.542358   3.097018   2.542693   1.096074
                    6          7          8
     6  H    0.000000
     7  H    1.768357   0.000000
     8  H    1.768357   1.768357   0.000000
 Stoichiometry    C2H6
 Framework group  D3[C3(C.C),X(H6)]
 Deg. of freedom     4
 Full point group                 D3      NOp   6
 Largest Abelian subgroup         C2      NOp   2
 Largest concise Abelian subgroup C2      NOp   2
                         Standard orientation:                         
 ---------------------------------------------------------------------
 Center     Atomic      Atomic             Coordinates (Angstroms)
 Number     Number       Type             X           Y           Z
 ---------------------------------------------------------------------
      1          6           0        0.000000    0.000000    0.765499
      2          1           0       -0.510272    0.884299    1.164267
      3          1           0       -0.510689   -0.884058    1.164267
      4          1           0        1.020961   -0.000241    1.164267
      5          6           0        0.000000    0.000000   -0.765499
      6          1           0        0.510689   -0.884058   -1.164267
      7          1           0       -1.020961   -0.000241   -1.164267
      8          1           0        0.510272    0.884299   -1.164267
 ---------------------------------------------------------------------
 Rotational constants (GHZ):     80.1792848     19.8873984     19.8873984
 Leave Link  202 at Sat Feb 11 13:40:40 2017, MaxMem=  524288000 cpu:       0.0
 (Enter /Applications/Gaussian09/g09/l601.exe)
 Copying SCF densities to generalized density rwf, IOpCl= 0 IROHF=0.

 **********************************************************************

            Population analysis using the SCF density.

 **********************************************************************

 Orbital symmetries:
       Occupied  (A1) (A2) (A1) (A2) (E) (E) (A1) (E) (E)
       Virtual   (A1) (A2) (E) (E) (E) (E) (A2) (A1) (E) (E) (E)
                 (E) (A2) (E) (E) (A1) (E) (E) (A2) (A1) (A2) (E)
                 (E) (A1) (E) (E) (E) (E) (E) (E) (A2) (A1) (A2)
 The electronic state is 1-A1.
 Alpha  occ. eigenvalues --  -10.17236 -10.17215  -0.74735  -0.61198  -0.43009
 Alpha  occ. eigenvalues --   -0.43009  -0.36269  -0.34014  -0.34014
 Alpha virt. eigenvalues --    0.10478   0.15607   0.16377   0.16377   0.19021
 Alpha virt. eigenvalues --    0.19021   0.24235   0.51324   0.54373   0.54373
 Alpha virt. eigenvalues --    0.63673   0.63673   0.66828   0.88313   0.88313
 Alpha virt. eigenvalues --    0.90650   0.91971   0.91971   0.97939   1.06599
 Alpha virt. eigenvalues --    1.43933   1.52619   1.52619   1.93203   1.98110
 Alpha virt. eigenvalues --    1.98110   2.27071   2.27071   2.33280   2.33280
 Alpha virt. eigenvalues --    2.58704   4.14486   4.36594
          Condensed to atoms (all electrons):
              1          2          3          4          5          6
     1  C    5.012115   0.382778   0.382778   0.382778   0.376071  -0.034550
     2  H    0.382778   0.574801  -0.032356  -0.032356  -0.034550   0.004638
     3  H    0.382778  -0.032356   0.574801  -0.032356  -0.034550  -0.003618
     4  H    0.382778  -0.032356  -0.032356   0.574801  -0.034550  -0.003628
     5  C    0.376071  -0.034550  -0.034550  -0.034550   5.012115   0.382778
     6  H   -0.034550   0.004638  -0.003618  -0.003628   0.382778   0.574801
     7  H   -0.034550  -0.003618  -0.003628   0.004638   0.382778  -0.032356
     8  H   -0.034550  -0.003628   0.004638  -0.003618   0.382778  -0.032356
              7          8
     1  C   -0.034550  -0.034550
     2  H   -0.003618  -0.003628
     3  H   -0.003628   0.004638
     4  H    0.004638  -0.003618
     5  C    0.382778   0.382778
     6  H   -0.032356  -0.032356
     7  H    0.574801  -0.032356
     8  H   -0.032356   0.574801
 Mulliken atomic charges:
              1
     1  C   -0.432870
     2  H    0.144290
     3  H    0.144290
     4  H    0.144290
     5  C   -0.432870
     6  H    0.144290
     7  H    0.144290
     8  H    0.144290
 Sum of Mulliken atomic charges =   0.00000
 Mulliken charges with hydrogens summed into heavy atoms:
              1
     1  C    0.000000
     5  C    0.000000
 Sum of Mulliken charges with hydrogens summed into heavy atoms =   0.00000
 Electronic spatial extent (au):  <R**2>=            109.6917
 Charge=              0.0000 electrons
 Dipole moment (field-independent basis, Debye):
    X=              0.0000    Y=              0.0000    Z=              0.0000  Tot=              0.0000
 Quadrupole moment (field-independent basis, Debye-Ang):
   XX=            -14.7131   YY=            -14.7131   ZZ=            -15.2323
   XY=              0.0000   XZ=              0.0000   YZ=              0.0000
 Traceless Quadrupole moment (field-independent basis, Debye-Ang):
   XX=              0.1730   YY=              0.1730   ZZ=             -0.3461
   XY=              0.0000   XZ=              0.0000   YZ=              0.0000
 Octapole moment (field-independent basis, Debye-Ang**2):
  XXX=              0.0000  YYY=              0.0007  ZZZ=              0.0000  XYY=              0.0000
  XXY=             -0.0007  XXZ=              0.0000  XZZ=              0.0000  YZZ=              0.0000
  YYZ=              0.0000  XYZ=              0.0000
 Hexadecapole moment (field-independent basis, Debye-Ang**3):
 XXXX=            -28.6581 YYYY=            -28.6581 ZZZZ=            -92.7458 XXXY=              0.0000
 XXXZ=              1.1986 YYYX=              0.0000 YYYZ=              0.0000 ZZZX=              0.0000
 ZZZY=              0.0000 XXYY=             -9.5527 XXZZ=            -19.1613 YYZZ=            -19.1613
 XXYZ=              0.0000 YYXZ=             -1.1986 ZZXY=              0.0000
 N-N= 4.210644682362D+01 E-N=-2.680190089645D+02  KE= 7.897502513978D+01
 Symmetry A    KE= 4.073135371733D+01
 Symmetry B    KE= 3.824367142245D+01
 No NMR shielding tensors so no spin-rotation constants.
 Leave Link  601 at Sat Feb 11 13:40:40 2017, MaxMem=  524288000 cpu:       0.4
 (Enter /Applications/Gaussian09/g09/l9999.exe)
 1\1\GINC-NOVAMUTE\FOpt\RB3LYP\6-31G(d)\C2H6\RPATON\11-Feb-2017\0\\#p b
 3lyp opt freq 6-31g(d)\\ethane optimiation and frequency calculation w
 ith small basis set\\0,1\C,0.,0.,0.7654985444\H,-0.5102720666,0.884298
 9017,1.1642674103\H,-0.5106892801,-0.8840580234,1.1642674103\H,1.02096
 13468,-0.0002408783,1.1642674103\C,0.,0.,-0.7654985444\H,0.5106891373,
 -0.8840581059,-1.1642674103\H,-1.0209613468,-0.0002407133,-1.164267410
 3\H,0.5102722095,0.8842988193,-1.1642674103\\Version=EM64M-G09RevB.01\
 State=1-A1\HF=-79.8304173\RMSD=1.085e-09\RMSF=9.366e-05\Dipole=0.,0.,0
 .\Quadrupole=0.1286561,0.1286561,-0.2573121,0.,0.,0.\PG=D03 [C3(C1.C1)
 ,X(H6)]\\@


 Spring appears, and we are once more children.
                                  -- Anonymous
 Leave Link 9999 at Sat Feb 11 13:40:40 2017, MaxMem=  524288000 cpu:       0.1
 Job cpu time:  0 days  0 hours  0 minutes 10.5 seconds.
 File lengths (MBytes):  RWF=      5 Int=      0 D2E=      0 Chk=      1 Scr=      1
 Normal termination of Gaussian 09 at Sat Feb 11 13:40:40 2017.
 (Enter /Applications/Gaussian09/g09/l1.exe)
 Link1:  Proceeding to internal job step number  2.
 --------------------------------------------------------------------
 #P Geom=AllCheck Guess=TCheck SCRF=Check GenChk RB3LYP/6-31G(d) Freq
 --------------------------------------------------------------------
 1/10=4,29=7,30=1,38=1,40=1/1,3;
 2/12=2,40=1/2;
 3/5=1,6=6,7=1,11=2,14=-4,16=1,25=1,30=1,70=2,71=2,74=-5,116=1/1,2,3;
 4/5=101/1;
 5/5=2,98=1/2;
 8/6=4,10=90,11=11/1;
 11/6=1,8=1,9=11,15=111,16=1/1,2,10;
 10/6=1/2;
 6/7=2,8=2,9=2,10=2,18=1,28=1/1;
 7/8=1,10=1,25=1/1,2,3,16;
 1/10=4,30=1/3;
 99//99;
 Leave Link    1 at Sat Feb 11 13:40:40 2017, MaxMem=  524288000 cpu:       0.1
 (Enter /Applications/Gaussian09/g09/l101.exe)
 -----------------------------------------------------------------
 ethane optimiation and frequency calculation with small basis set
 -----------------------------------------------------------------
 Redundant internal coordinates taken from checkpoint file:
 ethane.chk
 Charge =  0 Multiplicity = 1
 C,0,0.,0.,0.7654985444
 H,0,-0.5102720666,0.8842989017,1.1642674103
 H,0,-0.5106892801,-0.8840580234,1.1642674103
 H,0,1.0209613468,-0.0002408783,1.1642674103
 C,0,0.,0.,-0.7654985444
 H,0,0.5106891373,-0.8840581059,-1.1642674103
 H,0,-1.0209613468,-0.0002407133,-1.1642674103
 H,0,0.5102722095,0.8842988193,-1.1642674103
 Recover connectivity data from disk.
                    Isotopes and Nuclear Properties:
 (Nuclear quadrupole moments (NQMom) in fm**2, nuclear magnetic moments (NMagM)
  in nuclear magnetons)

  Atom         1           2           3           4           5           6           7           8
 IAtWgt=          12           1           1           1          12           1           1           1
 AtmWgt=  12.0000000   1.0078250   1.0078250   1.0078250  12.0000000   1.0078250   1.0078250   1.0078250
 NucSpn=           0           1           1           1           0           1           1           1
 AtZEff=  -3.6000000  -1.0000000  -1.0000000  -1.0000000  -3.6000000  -1.0000000  -1.0000000  -1.0000000
 NQMom=    0.0000000   0.0000000   0.0000000   0.0000000   0.0000000   0.0000000   0.0000000   0.0000000
 NMagM=    0.0000000   2.7928460   2.7928460   2.7928460   0.0000000   2.7928460   2.7928460   2.7928460
 Leave Link  101 at Sat Feb 11 13:40:40 2017, MaxMem=  524288000 cpu:       0.2
 (Enter /Applications/Gaussian09/g09/l103.exe)

 GradGradGradGradGradGradGradGradGradGradGradGradGradGradGradGradGradGrad
 Berny optimization.
 Initialization pass.
                           ----------------------------
                           !    Initial Parameters    !
                           ! (Angstroms and Degrees)  !
 --------------------------                            --------------------------
 ! Name  Definition              Value          Derivative Info.                !
 --------------------------------------------------------------------------------
 ! R1    R(1,2)                  1.0961         calculate D2E/DX2 analytically  !
[...]
 ---------------------------------------------------------------------
                    Distance matrix (angstroms):
                    1          2          3          4          5
     1  C    0.000000
     2  H    1.096074   0.000000
     3  H    1.096074   1.768357   0.000000
     4  H    1.096074   1.768357   1.768357   0.000000
     5  C    1.530997   2.183199   2.183199   2.183199   0.000000
     6  H    2.183199   3.097018   2.542693   2.542358   1.096074
     7  H    2.183199   2.542693   2.542358   3.097018   1.096074
     8  H    2.183199   2.542358   3.097018   2.542693   1.096074
                    6          7          8
     6  H    0.000000
     7  H    1.768357   0.000000
     8  H    1.768357   1.768357   0.000000
 Stoichiometry    C2H6
 Framework group  D3[C3(C.C),X(H6)]
 Deg. of freedom     4
 Full point group                 D3      NOp   6
 Largest Abelian subgroup         C2      NOp   2
 Largest concise Abelian subgroup C2      NOp   2
                         Standard orientation:                         
 ---------------------------------------------------------------------
 Center     Atomic      Atomic             Coordinates (Angstroms)
 Number     Number       Type             X           Y           Z
 ---------------------------------------------------------------------
      1          6           0        0.000000    0.000000    0.765499
      2          1           0       -0.510272    0.884299    1.164267
      3          1           0       -0.510689   -0.884058    1.164267
      4          1           0        1.020961   -0.000241    1.164267
      5          6           0        0.000000    0.000000   -0.765499
      6          1           0        0.510689   -0.884058   -1.164267
      7          1           0       -1.020961   -0.000241   -1.164267
      8          1           0        0.510272    0.884299   -1.164267
 ---------------------------------------------------------------------
 Rotational constants (GHZ):     80.1792848     19.8873984     19.8873984
 Leave Link  202 at Sat Feb 11 13:40:44 2017, MaxMem=  524288000 cpu:       0.0
 (Enter /Applications/Gaussian09/g09/l301.exe)
 Standard basis: 6-311G(d,p) (5D, 7F)
 Ernie: Thresh=  0.10000D-02 Tol=  0.10000D-05 Strict=F.
 There are    36 symmetry adapted basis functions of A   symmetry.
 There are    36 symmetry adapted basis functions of B   symmetry.
 Integral buffers will be    131072 words long.
 Raffenetti 2 integral format.
 Two-electron integral symmetry is turned on.
    72 basis functions,   112 primitive gaussians,    74 cartesian basis functions
     9 alpha electrons        9 beta electrons
       nuclear repulsion energy        42.1064468236 Hartrees.
 IExCor=  402 DFT=T Ex+Corr=B3LYP ExCW=0 ScaHFX=  0.200000
 ScaDFX=  0.800000  0.720000  1.000000  0.810000 ScalE2=  1.000000  1.000000
 IRadAn=      0 IRanWt=     -1 IRanGd=            0 ICorTp=0
 NAtoms=    8 NActive=    8 NUniq=    2 SFac= 4.00D+00 NAtFMM=   50 NAOKFM=F Big=F
 ------------------------------------------------------------------------------
 Polarizable Continuum Model (PCM)
 =================================
 Model                : PCM.
 Atomic radii         : SMD-Coulomb.
 Polarization charges : Total charges.
 Charge compensation  : None.
 Solution method      : Matrix inversion.
 Cavity type          : VdW (van der Waals Surface) (Alpha=1.000).
 Cavity algorithm     : GePol (No added spheres)
                        Default sphere list used, NSphG=    8.
                        Lebedev-Laikov grids with approx.  5.0 points / Ang**2.
                        Smoothing algorithm: Karplus/York (Gamma=1.0000).
                        Polarization charges: spherical gaussians, with
                                              point-specific exponents (IZeta= 3).
                        Self-potential: point-specific (ISelfS= 7).
                        Self-field    : sphere-specific E.n sum rule (ISelfD= 2).
 Solvent              : Toluene, Eps=   2.374100 Eps(inf)=   2.238315
 ------------------------------------------------------------------------------
 Spheres list:
 ISph  on   Nord    Re0     Alpha      Xe            Ye            Ze
    1   C      1    1.850   1.000      0.000000      0.000000      0.765499
    2   H      2    1.200   1.000     -0.510272      0.884299      1.164267
    3   H      3    1.200   1.000     -0.510689     -0.884058      1.164267
    4   H      4    1.200   1.000      1.020961     -0.000241      1.164267
    5   C      5    1.850   1.000      0.000000      0.000000     -0.765499
    6   H      6    1.200   1.000      0.510689     -0.884058     -1.164267
    7   H      7    1.200   1.000     -1.020961     -0.000241     -1.164267
    8   H      8    1.200   1.000      0.510272      0.884299     -1.164267
 ------------------------------------------------------------------------------
 GePol: Number of generator spheres                  =       8
 GePol: Total number of spheres                      =       8
 GePol: Number of exposed spheres                    =       8 (100.00%)
 GePol: Number of points                             =     616
 GePol: Average weight of points                     =       0.12
 GePol: Minimum weight of points                     =   0.42D-05
 GePol: Maximum weight of points                     =    0.17992
 GePol: Number of points with low weight             =       6
 GePol: Fraction of low-weight points (<1% of avg)   =       0.97%
 GePol: Cavity surface area                          =     71.349 Ang**2
 GePol: Cavity volume                                =     49.333 Ang**3
 ------------------------------------------------------------------------------
 Atomic radii for non-electrostatic terms: SMD-CDS.
 ------------------------------------------------------------------------------
 PCM non-electrostatic energy =        -0.0016929508 Hartrees.
 Nuclear repulsion after PCM non-electrostatic terms =       42.1047538728 Hartrees.
 Leave Link  301 at Sat Feb 11 13:40:44 2017, MaxMem=  524288000 cpu:       0.3
 (Enter /Applications/Gaussian09/g09/l302.exe)
 NPDir=0 NMtPBC=     1 NCelOv=     1 NCel=       1 NClECP=     1 NCelD=      1
         NCelK=      1 NCelE2=     1 NClLst=     1 CellRange=     0.0.
 One-electron integrals computed using PRISM.
 One-electron integral symmetry used in STVInt
 NBasis=    72 RedAO= T  NBF=    36    36
 NBsUse=    72 1.00D-06 NBFU=    36    36
 Precomputing XC quadrature grid using
 IXCGrd= 2 IRadAn=           0 IRanWt=          -1 IRanGd=           0 AccXCQ= 0.00D+00.
 NRdTot=     500 NPtTot=       62764 NUsed=       66381 NTot=       66413
 NSgBfM=    74    74    74    74    74 NAtAll=     8     8.
 Leave Link  302 at Sat Feb 11 13:40:44 2017, MaxMem=  524288000 cpu:       0.5
 (Enter /Applications/Gaussian09/g09/l303.exe)
 DipDrv:  MaxL=1.
 Leave Link  303 at Sat Feb 11 13:40:44 2017, MaxMem=  524288000 cpu:       0.1
 (Enter /Applications/Gaussian09/g09/l401.exe)
 Initial guess read from the checkpoint file:  ethane.chk
 B after Tr=     0.000000    0.000000    0.000000
         Rot=    1.000000    0.000000    0.000000    0.000000 Ang=   0.00 deg.
 Guess basis will be translated and rotated to current coordinates.
 Initial guess orbital symmetries:
       Occupied  (A1) (A2) (A1) (A2) (E) (E) (A1) (E) (E)
       Virtual   (A1) (E) (A1) (E) (A1) (E) (E) (E) (A1) (E) (E)
                 (E) (A1) (E) (A1) (E) (A1) (E) (E) (E) (A1) (E)
                 (E) (E) (A1) (A1) (E) (E) (E) (A1) (E) (A2) (E)
                 (E) (A2) (A2) (E) (E) (E) (E) (E) (A2) (E) (A2)
                 (A2) (E) (E) (A2) (E) (E) (E) (E) (A2) (E) (E)
                 (A2) (E) (E) (A2) (E) (A2) (E) (A2)
 The electronic state of the initial guess is 1-A1.
 Leave Link  401 at Sat Feb 11 13:40:44 2017, MaxMem=  524288000 cpu:       0.3
 (Enter /Applications/Gaussian09/g09/l502.exe)
 Closed shell SCF:
 Requested convergence on RMS density matrix=1.00D-08 within 128 cycles.
 Requested convergence on MAX density matrix=1.00D-06.
 Requested convergence on             energy=1.00D-06.
 No special actions if energy rises.
 Using DIIS extrapolation, IDIIS=  1040.
 Integral symmetry usage will be decided dynamically.
        66296 words used for storage of precomputed grid.
 Keep R1 ints in memory in canonical form, NReq=7331887.
 IEnd=      102122 IEndB=      102122 NGot=   524288000 MDV=   520356341
 LenX=   520356341 LenY=   520350424
 Symmetry not used in FoFDir.
 MinBra= 0 MaxBra= 2 Meth= 1.
 IRaf=       0 NMat=   1 IRICut=       1 DoRegI=T DoRafI=F ISym2E= 0 JSym2E=0.

 Cycle   1  Pass 1  IDiag  1:
 E= -79.8416199779364    
 DIIS: error= 3.50D-02 at cycle   1 NSaved=   1.
 NSaved= 1 IEnMin= 1 EnMin= -79.8416199779364     IErMin= 1 ErrMin= 3.50D-02
 ErrMax= 3.50D-02 EMaxC= 1.00D-01 BMatC= 3.55D-02 BMatP= 3.55D-02
 IDIUse=3 WtCom= 6.50D-01 WtEn= 3.50D-01
 Coeff-Com:  0.100D+01
 Coeff-En:   0.100D+01
 Coeff:      0.100D+01
 Gap=     0.665 Goal=   None    Shift=    0.000
 GapD=    0.665 DampG=2.000 DampE=0.500 DampFc=1.0000 IDamp=-1.
 RMSDP=1.89D-03 MaxDP=2.27D-02              OVMax= 3.14D-02

 Cycle   2  Pass 1  IDiag  1:
 E= -79.8583431911977     Delta-E=       -0.016723213261 Rises=F Damp=F
 DIIS: error= 2.35D-03 at cycle   2 NSaved=   2.
 NSaved= 2 IEnMin= 2 EnMin= -79.8583431911977     IErMin= 2 ErrMin= 2.35D-03
 ErrMax= 2.35D-03 EMaxC= 1.00D-01 BMatC= 1.54D-04 BMatP= 3.55D-02
 IDIUse=3 WtCom= 9.77D-01 WtEn= 2.35D-02
 Coeff-Com:  0.642D-02 0.994D+00
 Coeff-En:   0.000D+00 0.100D+01
 Coeff:      0.627D-02 0.994D+00
 Gap=     0.392 Goal=   None    Shift=    0.000
 RMSDP=1.14D-04 MaxDP=2.48D-03 DE=-1.67D-02 OVMax= 2.36D-03

 Cycle   3  Pass 1  IDiag  1:
 E= -79.8584005827945     Delta-E=       -0.000057391597 Rises=F Damp=F
 DIIS: error= 3.78D-04 at cycle   3 NSaved=   3.
 NSaved= 3 IEnMin= 3 EnMin= -79.8584005827945     IErMin= 3 ErrMin= 3.78D-04
 ErrMax= 3.78D-04 EMaxC= 1.00D-01 BMatC= 8.18D-06 BMatP= 1.54D-04
 IDIUse=3 WtCom= 9.96D-01 WtEn= 3.78D-03
 Coeff-Com: -0.379D-02 0.144D+00 0.859D+00
 Coeff-En:   0.000D+00 0.000D+00 0.100D+01
 Coeff:     -0.378D-02 0.144D+00 0.860D+00
 Gap=     0.393 Goal=   None    Shift=    0.000
 RMSDP=3.84D-05 MaxDP=6.18D-04 DE=-5.74D-05 OVMax= 1.05D-03

 Cycle   4  Pass 1  IDiag  1:
 E= -79.8584041411764     Delta-E=       -0.000003558382 Rises=F Damp=F
 DIIS: error= 2.71D-04 at cycle   4 NSaved=   4.
 NSaved= 4 IEnMin= 4 EnMin= -79.8584041411764     IErMin= 4 ErrMin= 2.71D-04
 ErrMax= 2.71D-04 EMaxC= 1.00D-01 BMatC= 2.81D-06 BMatP= 8.18D-06
 IDIUse=3 WtCom= 9.97D-01 WtEn= 2.71D-03
 Coeff-Com: -0.141D-02 0.375D-01 0.418D+00 0.546D+00
 Coeff-En:   0.000D+00 0.000D+00 0.278D+00 0.722D+00
 Coeff:     -0.141D-02 0.374D-01 0.417D+00 0.547D+00
 Gap=     0.393 Goal=   None    Shift=    0.000
 RMSDP=1.63D-05 MaxDP=3.28D-04 DE=-3.56D-06 OVMax= 4.58D-04

 Cycle   5  Pass 1  IDiag  1:
 E= -79.8584069123675     Delta-E=       -0.000002771191 Rises=F Damp=F
 DIIS: error= 6.36D-05 at cycle   5 NSaved=   5.
 NSaved= 5 IEnMin= 5 EnMin= -79.8584069123675     IErMin= 5 ErrMin= 6.36D-05
 ErrMax= 6.36D-05 EMaxC= 1.00D-01 BMatC= 9.40D-08 BMatP= 2.81D-06
 IDIUse=1 WtCom= 1.00D+00 WtEn= 0.00D+00
 Coeff-Com: -0.400D-03 0.601D-02 0.105D+00 0.209D+00 0.680D+00
 Coeff:     -0.400D-03 0.601D-02 0.105D+00 0.209D+00 0.680D+00
 Gap=     0.393 Goal=   None    Shift=    0.000
 RMSDP=2.62D-06 MaxDP=2.79D-05 DE=-2.77D-06 OVMax= 8.31D-05

 Cycle   6  Pass 1  IDiag  1:
 E= -79.8584070367045     Delta-E=       -0.000000124337 Rises=F Damp=F
 DIIS: error= 3.49D-06 at cycle   6 NSaved=   6.
 NSaved= 6 IEnMin= 6 EnMin= -79.8584070367045     IErMin= 6 ErrMin= 3.49D-06
 ErrMax= 3.49D-06 EMaxC= 1.00D-01 BMatC= 3.37D-10 BMatP= 9.40D-08
 IDIUse=1 WtCom= 1.00D+00 WtEn= 0.00D+00
 Coeff-Com:  0.829D-05-0.486D-03-0.654D-02-0.987D-02 0.223D-01 0.995D+00
 Coeff:      0.829D-05-0.486D-03-0.654D-02-0.987D-02 0.223D-01 0.995D+00
 Gap=     0.393 Goal=   None    Shift=    0.000
 RMSDP=2.79D-07 MaxDP=3.02D-06 DE=-1.24D-07 OVMax= 6.19D-06

 Cycle   7  Pass 1  IDiag  1:
 E= -79.8584070354283     Delta-E=        0.000000001276 Rises=F Damp=F
 DIIS: error= 1.25D-06 at cycle   7 NSaved=   7.
 NSaved= 7 IEnMin= 6 EnMin= -79.8584070367045     IErMin= 7 ErrMin= 1.25D-06
 ErrMax= 1.25D-06 EMaxC= 1.00D-01 BMatC= 7.83D-11 BMatP= 3.37D-10
 IDIUse=1 WtCom= 1.00D+00 WtEn= 0.00D+00
 Coeff-Com:  0.214D-06 0.233D-04 0.234D-03-0.126D-03-0.213D-02-0.562D-01
 Coeff-Com:  0.106D+01
 Coeff:      0.214D-06 0.233D-04 0.234D-03-0.126D-03-0.213D-02-0.562D-01
 Coeff:      0.106D+01
 Gap=     0.393 Goal=   None    Shift=    0.000
 RMSDP=1.71D-08 MaxDP=2.21D-07 DE= 1.28D-09 OVMax= 2.43D-07

 Cycle   8  Pass 1  IDiag  1:
 E= -79.8584070353720     Delta-E=        0.000000000056 Rises=F Damp=F
 DIIS: error= 1.25D-06 at cycle   8 NSaved=   8.
 NSaved= 8 IEnMin= 6 EnMin= -79.8584070367045     IErMin= 7 ErrMin= 1.25D-06
 ErrMax= 1.25D-06 EMaxC= 1.00D-01 BMatC= 7.78D-11 BMatP= 7.83D-11
 IDIUse=1 WtCom= 1.00D+00 WtEn= 0.00D+00
 Coeff-Com: -0.908D-08 0.156D-05 0.203D-04 0.926D-05-0.165D-03-0.517D-02
 Coeff-Com:  0.353D-01 0.970D+00
 Coeff:     -0.908D-08 0.156D-05 0.203D-04 0.926D-05-0.165D-03-0.517D-02
 Coeff:      0.353D-01 0.970D+00
 Gap=     0.393 Goal=   None    Shift=    0.000
 RMSDP=7.05D-10 MaxDP=6.32D-09 DE= 5.63D-11 OVMax= 1.13D-08

 Error on total polarization charges =  0.02154
 SCF Done:  E(RB3LYP) =  -79.8584070354     A.U. after    8 cycles
             Convg  =    0.7047D-09             -V/T =  2.0060
 KE= 7.938518863497D+01 PE=-2.684530247406D+02 EE= 6.710467519748D+01
 SMD-CDS (non-electrostatic) energy       (kcal/mol) =      -1.06
 (included in total energy above)
 Leave Link  502 at Sat Feb 11 13:40:46 2017, MaxMem=  524288000 cpu:       5.3
 (Enter /Applications/Gaussian09/g09/l601.exe)
 Copying SCF densities to generalized density rwf, IOpCl= 0 IROHF=0.

 **********************************************************************

            Population analysis using the SCF density.

 **********************************************************************

 Orbital symmetries:
       Occupied  (A1) (A2) (A1) (A2) (E) (E) (A1) (E) (E)
       Virtual   (A1) (A2) (E) (E) (E) (E) (A2) (E) (E) (A1) (E)
                 (E) (A2) (A1) (E) (E) (E) (E) (A2) (A1) (A2) (E)
                 (E) (E) (E) (A1) (E) (E) (A2) (E) (E) (A1) (A2)
                 (E) (E) (E) (E) (A2) (E) (E) (A1) (A1) (E) (E)
                 (E) (E) (A2) (E) (E) (E) (E) (E) (E) (A2) (A1)
                 (A1) (E) (E) (E) (E) (A2) (A2) (A1)
 The electronic state is 1-A1.
 Alpha  occ. eigenvalues --  -10.15452 -10.15430  -0.74894  -0.61260  -0.43146
 Alpha  occ. eigenvalues --   -0.43146  -0.36605  -0.34077  -0.34077
 Alpha virt. eigenvalues --    0.05206   0.09124   0.10791   0.10791   0.14351
 Alpha virt. eigenvalues --    0.14351   0.22837   0.30158   0.30158   0.33346
 Alpha virt. eigenvalues --    0.33493   0.33493   0.53392   0.57058   0.58601
 Alpha virt. eigenvalues --    0.58601   0.60479   0.60479   0.61922   0.76121
 Alpha virt. eigenvalues --    0.86731   0.96283   0.96283   1.25494   1.25494
 Alpha virt. eigenvalues --    1.46587   1.46994   1.46994   1.47260   1.47780
 Alpha virt. eigenvalues --    1.47780   1.49945   1.69550   1.69594   1.69595
 Alpha virt. eigenvalues --    1.82667   1.82667   1.98199   2.09313   2.09314
 Alpha virt. eigenvalues --    2.09727   2.27304   2.31776   2.31776   2.38074
 Alpha virt. eigenvalues --    2.38074   2.43182   2.52290   2.52290   2.57785
 Alpha virt. eigenvalues --    2.57785   2.64691   2.64692   2.74374   2.76979
 Alpha virt. eigenvalues --    3.15631   3.79124   3.79124   3.80582   3.80582
 Alpha virt. eigenvalues --    4.21568  23.88338  23.95559
          Condensed to atoms (all electrons):
              1          2          3          4          5          6
     1  C    4.859299   0.406125   0.406125   0.406125   0.356360  -0.035362
     2  H    0.406125   0.587766  -0.031790  -0.031790  -0.035362   0.008456
     3  H    0.406125  -0.031790   0.587766  -0.031790  -0.035362  -0.006353
     4  H    0.406125  -0.031790  -0.031790   0.587766  -0.035362  -0.006367
     5  C    0.356360  -0.035362  -0.035362  -0.035362   4.859299   0.406125
     6  H   -0.035362   0.008456  -0.006353  -0.006367   0.406125   0.587766
     7  H   -0.035362  -0.006353  -0.006367   0.008456   0.406125  -0.031790
     8  H   -0.035362  -0.006367   0.008456  -0.006353   0.406125  -0.031790
              7          8
     1  C   -0.035362  -0.035362
     2  H   -0.006353  -0.006367
     3  H   -0.006367   0.008456
     4  H    0.008456  -0.006353
     5  C    0.406125   0.406125
     6  H   -0.031790  -0.031790
     7  H    0.587766  -0.031790
     8  H   -0.031790   0.587766
 Mulliken atomic charges:
              1
     1  C   -0.327948
     2  H    0.109316
     3  H    0.109316
     4  H    0.109316
     5  C   -0.327948
     6  H    0.109316
     7  H    0.109316
     8  H    0.109316
 Sum of Mulliken atomic charges =   0.00000
 Mulliken charges with hydrogens summed into heavy atoms:
              1
     1  C    0.000000
     5  C    0.000000
 Sum of Mulliken charges with hydrogens summed into heavy atoms =   0.00000
 Electronic spatial extent (au):  <R**2>=            110.4466
 Charge=              0.0000 electrons
 Dipole moment (field-independent basis, Debye):
    X=              0.0000    Y=              0.0000    Z=              0.0000  Tot=              0.0000
 Quadrupole moment (field-independent basis, Debye-Ang):
   XX=            -15.0025   YY=            -15.0025   ZZ=            -15.6689
   XY=              0.0000   XZ=              0.0000   YZ=              0.0000
 Traceless Quadrupole moment (field-independent basis, Debye-Ang):
   XX=              0.2221   YY=              0.2221   ZZ=             -0.4442
   XY=              0.0000   XZ=              0.0000   YZ=              0.0000
 Octapole moment (field-independent basis, Debye-Ang**2):
  XXX=              0.0000  YYY=              0.0008  ZZZ=              0.0000  XYY=              0.0000
  XXY=             -0.0008  XXZ=              0.0000  XZZ=              0.0000  YZZ=              0.0000
  YYZ=              0.0000  XYZ=              0.0000
 Hexadecapole moment (field-independent basis, Debye-Ang**3):
 XXXX=            -30.5297 YYYY=            -30.5297 ZZZZ=            -96.8840 XXXY=              0.0000
 XXXZ=              1.4039 YYYX=              0.0000 YYYZ=              0.0000 ZZZX=              0.0000
 ZZZY=              0.0000 XXYY=            -10.1766 XXZZ=            -20.0913 YYZZ=            -20.0913
 XXYZ=              0.0000 YYXZ=             -1.4039 ZZXY=              0.0000
 N-N= 4.210475387280D+01 E-N=-2.684530247504D+02  KE= 7.938518863497D+01
 Symmetry A    KE= 4.095596828711D+01
 Symmetry B    KE= 3.842922034786D+01
 No NMR shielding tensors so no spin-rotation constants.
 Leave Link  601 at Sat Feb 11 13:40:46 2017, MaxMem=  524288000 cpu:       0.5
 (Enter /Applications/Gaussian09/g09/l9999.exe)
 1\1\GINC-NOVAMUTE\SP\RB3LYP\6-311G(d,p)\C2H6\RPATON\11-Feb-2017\0\\#p 
 b3lyp 6-311g(d,p) SCRF(smd,solvent=toluene) geom=check guess=read\\sin
 gle point energy correction with larger basis set in solvent\\0,1\C,0,
 0.,0.,0.7654985444\H,0,-0.5102720666,0.8842989017,1.1642674103\H,0,-0.
 5106892801,-0.8840580234,1.1642674103\H,0,1.0209613468,-0.0002408783,1
 .1642674103\C,0,0.,0.,-0.7654985444\H,0,0.5106891373,-0.8840581059,-1.
 1642674103\H,0,-1.0209613468,-0.0002407133,-1.1642674103\H,0,0.5102722
 095,0.8842988193,-1.1642674103\\Version=EM64M-G09RevB.01\State=1-A1\HF
 =-79.858407\RMSD=7.047e-10\Dipole=0.,0.,0.\Quadrupole=0.1651363,0.1651
 363,-0.3302727,0.,0.,0.\PG=D03 [C3(C1.C1),X(H6)]\\@


 HAPPINESS IS NOT HAVING WHAT YOU WANT --
 HAPPINESS IS WANTING WHAT YOU HAVE!

              -- FROM MRS. SEVERN'S DESK
 Job cpu time:  0 days  0 hours  0 minutes  7.3 seconds.
 File lengths (MBytes):  RWF=     13 Int=      0 D2E=      0 Chk=      2 Scr=      1
 Normal termination of Gaussian 09 at Sat Feb 11 13:40:46 2017.
