 Entering Gaussian System, Link 0=g09
 Initial command:
 /mnt/data/applications/G09/g09/l1.exe "/scratch/Gau-28110.inp" -scrdir="/scratch/"
 Entering Link 1 = /mnt/data/applications/G09/g09/l1.exe PID=     28111.
  
 Copyright (c) 1988,1990,1992,1993,1995,1998,2003,2009,2013,
            Gaussian, Inc.  All Rights Reserved.
  
 This is part of the Gaussian(R) 09 program.  It is based on
 the Gaussian(R) 03 system (copyright 2003, Gaussian, Inc.),
 the Gaussian(R) 98 system (copyright 1998, Gaussian, Inc.),
 the Gaussian(R) 94 system (copyright 1995, Gaussian, Inc.),
 the Gaussian 92(TM) system (copyright 1992, Gaussian, Inc.),
 the Gaussian 90(TM) system (copyright 1990, Gaussian, Inc.),
 the Gaussian 88(TM) system (copyright 1988, Gaussian, Inc.),
 the Gaussian 86(TM) system (copyright 1986, Carnegie Mellon
 University), and the Gaussian 82(TM) system (copyright 1983,
 Carnegie Mellon University). Gaussian is a federally registered
 trademark of Gaussian, Inc.
  
 This software contains proprietary and confidential information,
 including trade secrets, belonging to Gaussian, Inc.
  
 This software is provided under written license and may be
 used, copied, transmitted, or stored only in accord with that
 written license.
  
 The following legend is applicable only to US Government
 contracts under FAR:
  
                    RESTRICTED RIGHTS LEGEND
  
 Use, reproduction and disclosure by the US Government is
 subject to restrictions as set forth in subparagraphs (a)
 and (c) of the Commercial Computer Software - Restricted
 Rights clause in FAR 52.227-19.
  
 Gaussian, Inc.
 340 Quinnipiac St., Bldg. 40, Wallingford CT 06492
  
  
 ---------------------------------------------------------------
 Warning -- This program may not be used in any manner that
 competes with the business of Gaussian, Inc. or will provide
 assistance to any competitor of Gaussian, Inc.  The licensee
 of this program is prohibited from giving any competitor of
 Gaussian, Inc. access to this program.  By using this program,
 the user acknowledges that Gaussian, Inc. is engaged in the
 business of creating and licensing software in the field of
 computational chemistry and represents and warrants to the
 licensee that it is not a competitor of Gaussian, Inc. and that
 it will not use this program in any manner prohibited above.
 ---------------------------------------------------------------
  

 Cite this work as:
 Gaussian 09, Revision D.01,
 M. J. Frisch, G. W. Trucks, H. B. Schlegel, G. E. Scuseria, 
 M. A. Robb, J. R. Cheeseman, G. Scalmani, V. Barone, B. Mennucci, 
 G. A. Petersson, H. Nakatsuji, M. Caricato, X. Li, H. P. Hratchian, 
 A. F. Izmaylov, J. Bloino, G. Zheng, J. L. Sonnenberg, M. Hada, 
 M. Ehara, K. Toyota, R. Fukuda, J. Hasegawa, M. Ishida, T. Nakajima, 
 Y. Honda, O. Kitao, H. Nakai, T. Vreven, J. A. Montgomery, Jr., 
 J. E. Peralta, F. Ogliaro, M. Bearpark, J. J. Heyd, E. Brothers, 
 K. N. Kudin, V. N. Staroverov, T. Keith, R. Kobayashi, J. Normand, 
 K. Raghavachari, A. Rendell, J. C. Burant, S. S. Iyengar, J. Tomasi, 
 M. Cossi, N. Rega, J. M. Millam, M. Klene, J. E. Knox, J. B. Cross, 
 V. Bakken, C. Adamo, J. Jaramillo, R. Gomperts, R. E. Stratmann, 
 O. Yazyev, A. J. Austin, R. Cammi, C. Pomelli, J. W. Ochterski, 
 R. L. Martin, K. Morokuma, V. G. Zakrzewski, G. A. Voth, 
 P. Salvador, J. J. Dannenberg, S. Dapprich, A. D. Daniels, 
 O. Farkas, J. B. Foresman, J. V. Ortiz, J. Cioslowski, 
 and D. J. Fox, Gaussian, Inc., Wallingford CT, 2013.
 
 ******************************************
 Gaussian 09:  EM64L-G09RevD.01 24-Apr-2013
                17-Mar-2016 
 ******************************************
 %nproc=4
 Will use up to    4 processors via shared memory.
 %Mem=4000MB
 %Chk=ethane
 -----------------------
 #p B97D/6-31G* opt freq
 -----------------------
 1/14=-1,18=20,19=15,26=3,38=1/1,3;
 2/9=110,12=2,17=6,18=5,40=1/2;
 3/5=1,6=6,7=1,11=2,16=1,25=1,30=1,71=1,74=-42/1,2,3;
 4//1;
 5/5=2,38=5/2;
 6/7=2,8=2,9=2,10=2,28=1/1;
 7//1,2,3,16;
 1/14=-1,18=20,19=15,26=3/3(2);
 2/9=110/2;
 99//99;
 2/9=110/2;
 3/5=1,6=6,7=1,11=2,16=1,25=1,30=1,71=1,74=-42/1,2,3;
 4/5=5,16=3,69=1/1;
 5/5=2,38=5/2;
 7//1,2,3,16;
 1/14=-1,18=20,19=15,26=3/3(-5);
 2/9=110/2;
 6/7=2,8=2,9=2,10=2,19=2,28=1/1;
 99/9=1/99;
 Leave Link    1 at Thu Mar 17 13:20:35 2016, MaxMem=   524288000 cpu:         0.1
 (Enter /mnt/data/applications/G09/g09/l101.exe)
 --------
 opt freq
 --------
 Symbolic Z-matrix:
 Charge =  0 Multiplicity = 1
 C                    -1.28761   1.08905   0. 
 H                    -0.93095   0.08024   0. 
 H                    -0.93093   1.59345   0.87365 
 H                    -2.35761   1.08906   0. 
 C                    -0.77426   1.81501  -1.2574 
 H                    -1.13251   2.82325  -1.25838 
 H                     0.29574   1.81669  -1.25643 
 H                    -1.12934   1.30948  -2.13106 
 
 NAtoms=      8 NQM=        8 NQMF=       0 NMMI=      0 NMMIF=      0
                NMic=       0 NMicF=      0.
                    Isotopes and Nuclear Properties:
 (Nuclear quadrupole moments (NQMom) in fm**2, nuclear magnetic moments (NMagM)
  in nuclear magnetons)

  Atom         1           2           3           4           5           6           7           8
 IAtWgt=          12           1           1           1          12           1           1           1
 AtmWgt=  12.0000000   1.0078250   1.0078250   1.0078250  12.0000000   1.0078250   1.0078250   1.0078250
 NucSpn=           0           1           1           1           0           1           1           1
 AtZEff=   0.0000000   0.0000000   0.0000000   0.0000000   0.0000000   0.0000000   0.0000000   0.0000000
 NQMom=    0.0000000   0.0000000   0.0000000   0.0000000   0.0000000   0.0000000   0.0000000   0.0000000
 NMagM=    0.0000000   2.7928460   2.7928460   2.7928460   0.0000000   2.7928460   2.7928460   2.7928460
 AtZNuc=   6.0000000   1.0000000   1.0000000   1.0000000   6.0000000   1.0000000   1.0000000   1.0000000
 Leave Link  101 at Thu Mar 17 13:20:36 2016, MaxMem=   524288000 cpu:         0.8
 (Enter /mnt/data/applications/G09/g09/l103.exe)

 GradGradGradGradGradGradGradGradGradGradGradGradGradGradGradGradGradGrad
 Berny optimization.
 Initialization pass.
                           ----------------------------
                           !    Initial Parameters    !
                           ! (Angstroms and Degrees)  !
 --------------------------                            --------------------------
 ! Name  Definition              Value          Derivative Info.                !
 --------------------------------------------------------------------------------
 ! R1    R(1,2)                  1.07           estimate D2E/DX2                !
 ! R2    R(1,3)                  1.07           estimate D2E/DX2                !
 ! R3    R(1,4)                  1.07           estimate D2E/DX2                !
 ! R4    R(1,5)                  1.54           estimate D2E/DX2                !
 ! R5    R(5,6)                  1.07           estimate D2E/DX2                !
 ! R6    R(5,7)                  1.07           estimate D2E/DX2                !
 ! R7    R(5,8)                  1.07           estimate D2E/DX2                !
 ! A1    A(2,1,3)              109.4712         estimate D2E/DX2                !
 ! A2    A(2,1,4)              109.4712         estimate D2E/DX2                !
 ! A3    A(2,1,5)              109.4712         estimate D2E/DX2                !
 ! A4    A(3,1,4)              109.4712         estimate D2E/DX2                !
 ! A5    A(3,1,5)              109.4713         estimate D2E/DX2                !
 ! A6    A(4,1,5)              109.4712         estimate D2E/DX2                !
 ! A7    A(1,5,6)              109.4712         estimate D2E/DX2                !
 ! A8    A(1,5,7)              109.4712         estimate D2E/DX2                !
 ! A9    A(1,5,8)              109.4712         estimate D2E/DX2                !
 ! A10   A(6,5,7)              109.4713         estimate D2E/DX2                !
 ! A11   A(6,5,8)              109.4712         estimate D2E/DX2                !
 ! A12   A(7,5,8)              109.4712         estimate D2E/DX2                !
 ! D1    D(2,1,5,6)            179.8889         estimate D2E/DX2                !
 ! D2    D(2,1,5,7)            -60.1111         estimate D2E/DX2                !
 ! D3    D(2,1,5,8)             59.8889         estimate D2E/DX2                !
 ! D4    D(3,1,5,6)            -60.1111         estimate D2E/DX2                !
 ! D5    D(3,1,5,7)             59.8889         estimate D2E/DX2                !
 ! D6    D(3,1,5,8)            179.8889         estimate D2E/DX2                !
 ! D7    D(4,1,5,6)             59.8889         estimate D2E/DX2                !
 ! D8    D(4,1,5,7)            179.8889         estimate D2E/DX2                !
 ! D9    D(4,1,5,8)            -60.1111         estimate D2E/DX2                !
 --------------------------------------------------------------------------------
 Trust Radius=3.00D-01 FncErr=1.00D-07 GrdErr=1.00D-06
 Number of steps in this run=     38 maximum allowed number of steps=    100.
 GradGradGradGradGradGradGradGradGradGradGradGradGradGradGradGradGradGrad

 Leave Link  103 at Thu Mar 17 13:20:36 2016, MaxMem=   524288000 cpu:         0.0
 (Enter /mnt/data/applications/G09/g09/l202.exe)
                          Input orientation:                          
 ---------------------------------------------------------------------
 Center     Atomic      Atomic             Coordinates (Angstroms)
 Number     Number       Type             X           Y           Z
 ---------------------------------------------------------------------
      1          6           0       -1.287605    1.089049    0.000000
      2          1           0       -0.930951    0.080239    0.000000
      3          1           0       -0.930932    1.593448    0.873652
      4          1           0       -2.357605    1.089063    0.000000
      5          6           0       -0.774263    1.815006   -1.257405
      6          1           0       -1.132514    2.823249   -1.258384
      7          1           0        0.295735    1.816687   -1.256427
      8          1           0       -1.129338    1.309479   -2.131055
 ---------------------------------------------------------------------
                    Distance matrix (angstroms):
                    1          2          3          4          5
     1  C    0.000000
     2  H    1.070000   0.000000
     3  H    1.070000   1.747302   0.000000
     4  H    1.070000   1.747303   1.747303   0.000000
     5  C    1.540000   2.148263   2.148263   2.148263   0.000000
     6  H    2.148263   3.024609   2.469539   2.468154   1.070000
     7  H    2.148263   2.469538   2.468154   3.024609   1.070000
     8  H    2.148263   2.468154   3.024610   2.469539   1.070000
                    6          7          8
     6  H    0.000000
     7  H    1.747303   0.000000
     8  H    1.747303   1.747303   0.000000
 Stoichiometry    C2H6
 Framework group  D3[C3(C.C),X(H6)]
 Deg. of freedom     4
 Full point group                 D3      NOp   6
 Largest Abelian subgroup         C2      NOp   2
 Largest concise Abelian subgroup C2      NOp   2
                         Standard orientation:                         
 ---------------------------------------------------------------------
 Center     Atomic      Atomic             Coordinates (Angstroms)
 Number     Number       Type             X           Y           Z
 ---------------------------------------------------------------------
      1          6           0        0.000000    0.000000    0.770000
      2          1           0       -0.503555    0.874140    1.126666
      3          1           0       -0.505250   -0.873162    1.126666
      4          1           0        1.008805   -0.000978    1.126666
      5          6           0        0.000000    0.000000   -0.770000
      6          1           0        0.505250   -0.873162   -1.126666
      7          1           0       -1.008805   -0.000978   -1.126666
      8          1           0        0.503555    0.874140   -1.126666
 ---------------------------------------------------------------------
 Rotational constants (GHZ):     82.1231617     20.2293891     20.2293891
 Leave Link  202 at Thu Mar 17 13:20:36 2016, MaxMem=   524288000 cpu:         0.0
 (Enter /mnt/data/applications/G09/g09/l301.exe)
 Standard basis: 6-31G(d) (6D, 7F)
 Ernie: Thresh=  0.10000D-02 Tol=  0.10000D-05 Strict=F.
 There are    21 symmetry adapted cartesian basis functions of A   symmetry.
 There are    21 symmetry adapted cartesian basis functions of B   symmetry.
 There are    21 symmetry adapted basis functions of A   symmetry.
 There are    21 symmetry adapted basis functions of B   symmetry.
    42 basis functions,    80 primitive gaussians,    42 cartesian basis functions
     9 alpha electrons        9 beta electrons
       nuclear repulsion energy        42.6703236255 Hartrees.
 IExCor= 3630 DFT=T Ex+Corr=B97D ExCW=0 ScaHFX=  0.000000
 ScaDFX=  1.000000  1.000000  1.000000  1.000000 ScalE2=  1.000000  1.000000
 IRadAn=      0 IRanWt=     -1 IRanGd=            0 ICorTp=0 IEmpDi=121
 NAtoms=    8 NActive=    8 NUniq=    2 SFac= 4.00D+00 NAtFMM=   60 NAOKFM=F Big=F
 Integral buffers will be    131072 words long.
 Raffenetti 2 integral format.
 Two-electron integral symmetry is turned on.
 R6Disp:  Grimme-D2 Dispersion energy=       -0.0041578195 Hartrees.
 Nuclear repulsion after empirical dispersion term =       42.6661658060 Hartrees.
 Leave Link  301 at Thu Mar 17 13:20:36 2016, MaxMem=   524288000 cpu:         0.2
 (Enter /mnt/data/applications/G09/g09/l302.exe)
 NPDir=0 NMtPBC=     1 NCelOv=     1 NCel=       1 NClECP=     1 NCelD=      1
         NCelK=      1 NCelE2=     1 NClLst=     1 CellRange=     0.0.
 One-electron integrals computed using PRISM.
 One-electron integral symmetry used in STVInt
 NBasis=    42 RedAO= T EigKep=  5.64D-03  NBF=    21    21
 NBsUse=    42 1.00D-06 EigRej= -1.00D+00 NBFU=    21    21
 Precomputing XC quadrature grid using
 IXCGrd= 4 IRadAn=           0 IRanWt=          -1 IRanGd=           0 AccXCQ= 0.00D+00.
 Generated NRdTot=       0 NPtTot=           0 NUsed=           0 NTot=          32
 NSgBfM=    42    42    42    42    42 MxSgAt=     8 MxSgA2=     8.
 Leave Link  302 at Thu Mar 17 13:20:36 2016, MaxMem=   524288000 cpu:         0.6
 (Enter /mnt/data/applications/G09/g09/l303.exe)
 DipDrv:  MaxL=1.
 Leave Link  303 at Thu Mar 17 13:20:36 2016, MaxMem=   524288000 cpu:         0.1
 (Enter /mnt/data/applications/G09/g09/l401.exe)
 ExpMin= 1.61D-01 ExpMax= 3.05D+03 ExpMxC= 4.57D+02 IAcc=1 IRadAn=         1 AccDes= 0.00D+00
 Harris functional with IExCor= 3630 and IRadAn=       1 diagonalized for initial guess.
 HarFok:  IExCor= 3630 AccDes= 0.00D+00 IRadAn=         1 IDoV= 1 UseB2=F ITyADJ=14
 ICtDFT=  3500011 ScaDFX=  1.000000  1.000000  1.000000  1.000000
 FoFCou: FMM=F IPFlag=           0 FMFlag=      100000 FMFlg1=           0
         NFxFlg=           0 DoJE=T BraDBF=F KetDBF=T FulRan=T
         wScrn=  0.000000 ICntrl=     500 IOpCl=  0 I1Cent=   200000004 NGrid=           0
         NMat0=    1 NMatS0=      1 NMatT0=    0 NMatD0=    1 NMtDS0=    0 NMtDT0=    0
 Petite list used in FoFCou.
 Harris En= -79.8783905259682    
 JPrj=0 DoOrth=F DoCkMO=F.
 Initial guess orbital symmetries:
       Occupied  (A1) (A2) (A1) (A2) (E) (E) (A1) (E) (E)
       Virtual   (A1) (A2) (E) (E) (E) (E) (A2) (A1) (E) (E) (E)
                 (E) (A2) (E) (E) (A1) (E) (E) (A2) (A1) (E) (E)
                 (A2) (A1) (E) (E) (E) (E) (E) (E) (A2) (A1) (A2)
 The electronic state of the initial guess is 1-A1.
 Leave Link  401 at Thu Mar 17 13:20:36 2016, MaxMem=   524288000 cpu:         0.5
 (Enter /mnt/data/applications/G09/g09/l502.exe)
 Closed shell SCF:
 Using DIIS extrapolation, IDIIS=  1040.
 Integral symmetry usage will be decided dynamically.
 Keep J ints in memory in symmetry-blocked form, NReq=1295696.
 IVT=       24570 IEndB=       24570 NGot=   524288000 MDV=   524056917
 LenX=   524056917 LenY=   524054712
 Requested convergence on RMS density matrix=1.00D-08 within 128 cycles.
 Requested convergence on MAX density matrix=1.00D-06.
 Requested convergence on             energy=1.00D-06.
 No special actions if energy rises.
 FoFCou: FMM=F IPFlag=           0 FMFlag=           0 FMFlg1=           0
         NFxFlg=           0 DoJE=F BraDBF=F KetDBF=F FulRan=T
         wScrn=  0.000000 ICntrl=     600 IOpCl=  0 I1Cent=           0 NGrid=           0
         NMat0=    1 NMatS0=    903 NMatT0=    0 NMatD0=    1 NMtDS0=    0 NMtDT0=    0
 Petite list used in FoFCou.
 Integral accuracy reduced to 1.0D-05 until final iterations.

 Cycle   1  Pass 0  IDiag  1:
 E= -79.6442325592101    
 DIIS: error= 6.23D-02 at cycle   1 NSaved=   1.
 NSaved= 1 IEnMin= 1 EnMin= -79.6442325592101     IErMin= 1 ErrMin= 6.23D-02
 ErrMax= 6.23D-02  0.00D+00 EMaxC= 1.00D-01 BMatC= 1.10D-01 BMatP= 1.10D-01
 IDIUse=3 WtCom= 3.77D-01 WtEn= 6.23D-01
 Coeff-Com:  0.100D+01
 Coeff-En:   0.100D+01
 Coeff:      0.100D+01
 Gap=     0.327 Goal=   None    Shift=    0.000
 GapD=    0.327 DampG=1.000 DampE=0.500 DampFc=0.5000 IDamp=-1.
 Damping current iteration by 5.00D-01
 RMSDP=1.83D-02 MaxDP=1.51D-01              OVMax= 2.02D-01

 Cycle   2  Pass 0  IDiag  1:
 E= -79.6900962858642     Delta-E=       -0.045863726654 Rises=F Damp=T
 DIIS: error= 1.14D-02 at cycle   2 NSaved=   2.
 NSaved= 2 IEnMin= 2 EnMin= -79.6900962858642     IErMin= 2 ErrMin= 1.14D-02
 ErrMax= 1.14D-02  0.00D+00 EMaxC= 1.00D-01 BMatC= 5.94D-03 BMatP= 1.10D-01
 IDIUse=3 WtCom= 8.86D-01 WtEn= 1.14D-01
 Coeff-Com:  0.159D+00 0.841D+00
 Coeff-En:   0.259D+00 0.741D+00
 Coeff:      0.171D+00 0.829D+00
 Gap=     0.382 Goal=   None    Shift=    0.000
 RMSDP=2.40D-03 MaxDP=2.31D-02 DE=-4.59D-02 OVMax= 1.12D-01

 Cycle   3  Pass 0  IDiag  1:
 E= -79.7662210678323     Delta-E=       -0.076124781968 Rises=F Damp=F
 DIIS: error= 2.74D-03 at cycle   3 NSaved=   3.
 NSaved= 3 IEnMin= 3 EnMin= -79.7662210678323     IErMin= 3 ErrMin= 2.74D-03
 ErrMax= 2.74D-03  0.00D+00 EMaxC= 1.00D-01 BMatC= 1.70D-04 BMatP= 5.94D-03
 IDIUse=3 WtCom= 9.73D-01 WtEn= 2.74D-02
 Coeff-Com:  0.335D-01 0.124D+00 0.842D+00
 Coeff-En:   0.000D+00 0.000D+00 0.100D+01
 Coeff:      0.325D-01 0.121D+00 0.847D+00
 Gap=     0.391 Goal=   None    Shift=    0.000
 RMSDP=4.11D-04 MaxDP=2.98D-03 DE=-7.61D-02 OVMax= 5.66D-03

 Cycle   4  Pass 0  IDiag  1:
 E= -79.7663785878227     Delta-E=       -0.000157519990 Rises=F Damp=F
 DIIS: error= 8.28D-04 at cycle   4 NSaved=   4.
 NSaved= 4 IEnMin= 4 EnMin= -79.7663785878227     IErMin= 4 ErrMin= 8.28D-04
 ErrMax= 8.28D-04  0.00D+00 EMaxC= 1.00D-01 BMatC= 1.22D-05 BMatP= 1.70D-04
 IDIUse=3 WtCom= 9.92D-01 WtEn= 8.28D-03
 Coeff-Com:  0.345D-02-0.480D-02 0.211D+00 0.790D+00
 Coeff-En:   0.000D+00 0.000D+00 0.000D+00 0.100D+01
 Coeff:      0.342D-02-0.476D-02 0.209D+00 0.792D+00
 Gap=     0.391 Goal=   None    Shift=    0.000
 RMSDP=9.14D-05 MaxDP=6.13D-04 DE=-1.58D-04 OVMax= 1.35D-03

 Cycle   5  Pass 0  IDiag  1:
 E= -79.7663906310295     Delta-E=       -0.000012043207 Rises=F Damp=F
 DIIS: error= 2.71D-05 at cycle   5 NSaved=   5.
 NSaved= 5 IEnMin= 5 EnMin= -79.7663906310295     IErMin= 5 ErrMin= 2.71D-05
 ErrMax= 2.71D-05  0.00D+00 EMaxC= 1.00D-01 BMatC= 1.68D-08 BMatP= 1.22D-05
 IDIUse=1 WtCom= 1.00D+00 WtEn= 0.00D+00
 Coeff-Com:  0.532D-03-0.890D-03 0.198D-01 0.903D-01 0.890D+00
 Coeff:      0.532D-03-0.890D-03 0.198D-01 0.903D-01 0.890D+00
 Gap=     0.391 Goal=   None    Shift=    0.000
 RMSDP=3.04D-06 MaxDP=2.35D-05 DE=-1.20D-05 OVMax= 4.17D-05

 Initial convergence to 1.0D-05 achieved.  Increase integral accuracy.
 Cycle   6  Pass 1  IDiag  1:
 E= -79.7664283431400     Delta-E=       -0.000037712110 Rises=F Damp=F
 DIIS: error= 1.20D-05 at cycle   1 NSaved=   1.
 NSaved= 1 IEnMin= 1 EnMin= -79.7664283431400     IErMin= 1 ErrMin= 1.20D-05
 ErrMax= 1.20D-05  0.00D+00 EMaxC= 1.00D-01 BMatC= 6.12D-09 BMatP= 6.12D-09
 IDIUse=1 WtCom= 1.00D+00 WtEn= 0.00D+00
 Coeff-Com:  0.100D+01
 Coeff:      0.100D+01
 Gap=     0.391 Goal=   None    Shift=    0.000
 RMSDP=3.04D-06 MaxDP=2.35D-05 DE=-3.77D-05 OVMax= 2.39D-05

 Cycle   7  Pass 1  IDiag  1:
 E= -79.7664283478120     Delta-E=       -0.000000004672 Rises=F Damp=F
 DIIS: error= 4.35D-06 at cycle   2 NSaved=   2.
 NSaved= 2 IEnMin= 2 EnMin= -79.7664283478120     IErMin= 2 ErrMin= 4.35D-06
 ErrMax= 4.35D-06  0.00D+00 EMaxC= 1.00D-01 BMatC= 6.70D-10 BMatP= 6.12D-09
 IDIUse=1 WtCom= 1.00D+00 WtEn= 0.00D+00
 Coeff-Com:  0.152D+00 0.848D+00
 Coeff:      0.152D+00 0.848D+00
 Gap=     0.391 Goal=   None    Shift=    0.000
 RMSDP=1.08D-06 MaxDP=1.01D-05 DE=-4.67D-09 OVMax= 1.27D-05

 Cycle   8  Pass 1  IDiag  1:
 E= -79.7664283477753     Delta-E=        0.000000000037 Rises=F Damp=F
 DIIS: error= 4.53D-06 at cycle   3 NSaved=   3.
 NSaved= 3 IEnMin= 2 EnMin= -79.7664283478120     IErMin= 2 ErrMin= 4.35D-06
 ErrMax= 4.53D-06  0.00D+00 EMaxC= 1.00D-01 BMatC= 7.04D-10 BMatP= 6.70D-10
 IDIUse=1 WtCom= 1.00D+00 WtEn= 0.00D+00
 Coeff-Com:  0.476D-03 0.506D+00 0.493D+00
 Coeff:      0.476D-03 0.506D+00 0.493D+00
 Gap=     0.391 Goal=   None    Shift=    0.000
 RMSDP=5.66D-07 MaxDP=5.13D-06 DE= 3.67D-11 OVMax= 6.50D-06

 Cycle   9  Pass 1  IDiag  1:
 E= -79.7664283484936     Delta-E=       -0.000000000718 Rises=F Damp=F
 DIIS: error= 5.14D-08 at cycle   4 NSaved=   4.
 NSaved= 4 IEnMin= 4 EnMin= -79.7664283484936     IErMin= 4 ErrMin= 5.14D-08
 ErrMax= 5.14D-08  0.00D+00 EMaxC= 1.00D-01 BMatC= 8.62D-14 BMatP= 6.70D-10
 IDIUse=1 WtCom= 1.00D+00 WtEn= 0.00D+00
 Coeff-Com: -0.614D-03 0.552D-01 0.598D-01 0.886D+00
 Coeff:     -0.614D-03 0.552D-01 0.598D-01 0.886D+00
 Gap=     0.391 Goal=   None    Shift=    0.000
 RMSDP=9.76D-09 MaxDP=6.12D-08 DE=-7.18D-10 OVMax= 1.02D-07

 SCF Done:  E(RB97D) =  -79.7664283485     A.U. after    9 cycles
            NFock=  9  Conv=0.98D-08     -V/T= 2.0065
 KE= 7.925129983094D+01 PE=-2.694075905713D+02 EE= 6.772369658587D+01
 Leave Link  502 at Thu Mar 17 13:20:36 2016, MaxMem=   524288000 cpu:         1.4
 (Enter /mnt/data/applications/G09/g09/l601.exe)
 Copying SCF densities to generalized density rwf, IOpCl= 0 IROHF=0.

 **********************************************************************

            Population analysis using the SCF density.

 **********************************************************************

 Orbital symmetries:
       Occupied  (A1) (A2) (A1) (A2) (E) (E) (A1) (E) (E)
       Virtual   (A1) (A2) (E) (E) (E) (E) (A2) (A1) (E) (E) (E)
                 (E) (A2) (E) (E) (A1) (E) (E) (A2) (A1) (A2) (E)
                 (E) (A1) (E) (E) (E) (E) (E) (E) (A2) (A1) (A2)
 The electronic state is 1-A1.
 Alpha  occ. eigenvalues --   -9.88841  -9.88831  -0.68021  -0.55244  -0.38642
 Alpha  occ. eigenvalues --   -0.38642  -0.30670  -0.30039  -0.30039
 Alpha virt. eigenvalues --    0.09088   0.14767   0.15382   0.15382   0.17236
 Alpha virt. eigenvalues --    0.17236   0.20673   0.48419   0.51496   0.51496
 Alpha virt. eigenvalues --    0.58997   0.58997   0.62764   0.85975   0.85975
 Alpha virt. eigenvalues --    0.86977   0.89469   0.89469   0.95915   1.03845
 Alpha virt. eigenvalues --    1.40103   1.44735   1.44735   1.86758   1.94014
 Alpha virt. eigenvalues --    1.94014   2.23556   2.23556   2.24722   2.24722
 Alpha virt. eigenvalues --    2.51628   4.09060   4.30600
          Condensed to atoms (all electrons):
               1          2          3          4          5          6
     1  C    5.028690   0.386567   0.386567   0.386567   0.377224  -0.035593
     2  H    0.386567   0.560772  -0.030878  -0.030878  -0.035593   0.005139
     3  H    0.386567  -0.030878   0.560772  -0.030878  -0.035593  -0.004017
     4  H    0.386567  -0.030878  -0.030878   0.560772  -0.035593  -0.004057
     5  C    0.377224  -0.035593  -0.035593  -0.035593   5.028690   0.386567
     6  H   -0.035593   0.005139  -0.004017  -0.004057   0.386567   0.560772
     7  H   -0.035593  -0.004017  -0.004057   0.005139   0.386567  -0.030878
     8  H   -0.035593  -0.004057   0.005139  -0.004017   0.386567  -0.030878
               7          8
     1  C   -0.035593  -0.035593
     2  H   -0.004017  -0.004057
     3  H   -0.004057   0.005139
     4  H    0.005139  -0.004017
     5  C    0.386567   0.386567
     6  H   -0.030878  -0.030878
     7  H    0.560772  -0.030878
     8  H   -0.030878   0.560772
 Mulliken charges:
               1
     1  C   -0.458834
     2  H    0.152945
     3  H    0.152945
     4  H    0.152945
     5  C   -0.458834
     6  H    0.152945
     7  H    0.152945
     8  H    0.152945
 Sum of Mulliken charges =   0.00000
 Mulliken charges with hydrogens summed into heavy atoms:
               1
     1  C    0.000000
     5  C    0.000000
 Electronic spatial extent (au):  <R**2>=            107.2330
 Charge=              0.0000 electrons
 Dipole moment (field-independent basis, Debye):
    X=              0.0000    Y=              0.0000    Z=              0.0000  Tot=              0.0000
 Quadrupole moment (field-independent basis, Debye-Ang):
   XX=            -14.4093   YY=            -14.4093   ZZ=            -15.3283
   XY=              0.0000   XZ=              0.0000   YZ=              0.0000
 Traceless Quadrupole moment (field-independent basis, Debye-Ang):
   XX=              0.3063   YY=              0.3063   ZZ=             -0.6127
   XY=              0.0000   XZ=              0.0000   YZ=              0.0000
 Octapole moment (field-independent basis, Debye-Ang**2):
  XXX=              0.0000  YYY=              0.0029  ZZZ=              0.0000  XYY=              0.0000
  XXY=             -0.0029  XXZ=              0.0000  XZZ=              0.0000  YZZ=              0.0000
  YYZ=              0.0000  XYZ=              0.0000
 Hexadecapole moment (field-independent basis, Debye-Ang**3):
 XXXX=            -27.2518 YYYY=            -27.2518 ZZZZ=            -90.2873 XXXY=              0.0000
 XXXZ=              1.1521 YYYX=              0.0000 YYYZ=              0.0000 ZZZX=              0.0000
 ZZZY=              0.0000 XXYY=             -9.0839 XXZZ=            -18.4995 YYZZ=            -18.4995
 XXYZ=              0.0000 YYXZ=             -1.1521 ZZXY=              0.0000
 N-N= 4.266616580604D+01 E-N=-2.694075882053D+02  KE= 7.925129983093D+01
 Symmetry A    KE= 4.084182843926D+01
 Symmetry B    KE= 3.840947139168D+01
 No NMR shielding tensors so no spin-rotation constants.
 Leave Link  601 at Thu Mar 17 13:20:37 2016, MaxMem=   524288000 cpu:         0.5
 (Enter /mnt/data/applications/G09/g09/l701.exe)
 Compute integral first derivatives.
 ... and contract with generalized density number  0.
 R6Disp: Adding Grimme-D2 dispersion energy 1st derivatives to the gradient.
 Leave Link  701 at Thu Mar 17 13:20:37 2016, MaxMem=   524288000 cpu:         0.6
 (Enter /mnt/data/applications/G09/g09/l702.exe)
 L702 exits ... SP integral derivatives will be done elsewhere.
 Leave Link  702 at Thu Mar 17 13:20:37 2016, MaxMem=   524288000 cpu:         0.1
 (Enter /mnt/data/applications/G09/g09/l703.exe)
 Compute integral first derivatives, UseDBF=F ICtDFT=           0.
 Integral derivatives from FoFJK, PRISM(SPDF).
 Calling FoFJK, ICntrl=      2527 FMM=F ISym2X=1 I1Cent= 0 IOpClX= 0 NMat=1 NMatS=1 NMatT=0.
 FoFJK:  IHMeth= 1 ICntrl=    2527 DoSepK=F KAlg= 0 I1Cent=   0 FoldK=F
 IRaf=         0 NMat=   1 IRICut=       1 DoRegI=T DoRafI=F ISym2E= 1.
 FoFCou: FMM=F IPFlag=           0 FMFlag=      100000 FMFlg1=         800
         NFxFlg=           0 DoJE=F BraDBF=F KetDBF=F FulRan=T
         wScrn=  0.000000 ICntrl=    2527 IOpCl=  0 I1Cent=           0 NGrid=           0
         NMat0=    1 NMatS0=      1 NMatT0=    0 NMatD0=    1 NMtDS0=    0 NMtDT0=    0
 Petite list used in FoFCou.
 Leave Link  703 at Thu Mar 17 13:20:37 2016, MaxMem=   524288000 cpu:         0.9
 (Enter /mnt/data/applications/G09/g09/l716.exe)
 Dipole        =-5.15994206D-16-1.08853898D-16-1.77635684D-15
 ***** Axes restored to original set *****
 -------------------------------------------------------------------
 Center     Atomic                   Forces (Hartrees/Bohr)
 Number     Number              X              Y              Z
 -------------------------------------------------------------------
      1        6           0.008254963    0.011673972   -0.020220106
      2        1           0.005348170   -0.020531017    0.003128579
      3        1           0.005341203    0.007561166    0.019344609
      4        1          -0.021139597   -0.001808607    0.003124096
      5        6          -0.008254963   -0.011673972    0.020220106
      6        1          -0.005370496    0.020523097   -0.003142266
      7        1           0.021139572    0.001832305   -0.003110424
      8        1          -0.005318852   -0.007576945   -0.019344593
 -------------------------------------------------------------------
 Cartesian Forces:  Max     0.021139597 RMS     0.012887395
 Leave Link  716 at Thu Mar 17 13:20:37 2016, MaxMem=   524288000 cpu:         0.1
 (Enter /mnt/data/applications/G09/g09/l103.exe)

 GradGradGradGradGradGradGradGradGradGradGradGradGradGradGradGradGradGrad
 Berny optimization.
 FormGI is forming the generalized inverse of G from B-inverse, IUseBI=4.
 Internal  Forces:  Max     0.021139573 RMS     0.010149780
 Search for a local minimum.
 Step number   1 out of a maximum of   38
 All quantities printed in internal units (Hartrees-Bohrs-Radians)
 RMS Force = .10150D-01 SwitMx=.10000D-02 MixMth= 1
 Mixed Optimization -- RFO/linear search
 Second derivative matrix not updated -- first step.
 ITU=  0
     Eigenvalues ---    0.00237   0.05720   0.05720   0.05720   0.05720
     Eigenvalues ---    0.16000   0.16000   0.16000   0.16000   0.16000
     Eigenvalues ---    0.16000   0.28519   0.37230   0.37230   0.37230
     Eigenvalues ---    0.37230   0.37230   0.37230
 RFO step:  Lambda=-8.14621600D-03 EMin= 2.36824982D-03
 Linear search not attempted -- first point.
 Iteration  1 RMS(Cart)=  0.03729712 RMS(Int)=  0.00033926
 Iteration  2 RMS(Cart)=  0.00041592 RMS(Int)=  0.00015712
 Iteration  3 RMS(Cart)=  0.00000019 RMS(Int)=  0.00015712
 ITry= 1 IFail=0 DXMaxC= 7.99D-02 DCOld= 1.00D+10 DXMaxT= 3.00D-01 DXLimC= 3.00D+00 Rises=F
 ClnCor:  largest displacement from symmetrization is 7.79D-13 for atom     4.
 Variable       Old X    -DE/DX   Delta X   Delta X   Delta X     New X
                                 (Linear)    (Quad)   (Total)
    R1        2.02201   0.02114   0.00000   0.05557   0.05557   2.07757
    R2        2.02201   0.02114   0.00000   0.05557   0.05557   2.07757
    R3        2.02201   0.02114   0.00000   0.05557   0.05557   2.07757
    R4        2.91018   0.00659   0.00000   0.02245   0.02245   2.93263
    R5        2.02201   0.02114   0.00000   0.05557   0.05557   2.07757
    R6        2.02201   0.02114   0.00000   0.05557   0.05557   2.07757
    R7        2.02201   0.02114   0.00000   0.05557   0.05557   2.07757
    A1        1.91063  -0.00365   0.00000  -0.02171  -0.02194   1.88869
    A2        1.91063  -0.00365   0.00000  -0.02171  -0.02194   1.88869
    A3        1.91063   0.00365   0.00000   0.02171   0.02146   1.93209
    A4        1.91063  -0.00365   0.00000  -0.02171  -0.02194   1.88869
    A5        1.91063   0.00365   0.00000   0.02171   0.02146   1.93209
    A6        1.91063   0.00365   0.00000   0.02171   0.02146   1.93209
    A7        1.91063   0.00365   0.00000   0.02171   0.02146   1.93209
    A8        1.91063   0.00365   0.00000   0.02171   0.02146   1.93209
    A9        1.91063   0.00365   0.00000   0.02171   0.02146   1.93209
   A10        1.91063  -0.00365   0.00000  -0.02171  -0.02194   1.88869
   A11        1.91063  -0.00365   0.00000  -0.02171  -0.02194   1.88869
   A12        1.91063  -0.00365   0.00000  -0.02171  -0.02194   1.88869
    D1        3.13965   0.00000   0.00000   0.00027   0.00027   3.13992
    D2       -1.04914   0.00000   0.00000   0.00027   0.00027  -1.04887
    D3        1.04526   0.00000   0.00000   0.00027   0.00027   1.04553
    D4       -1.04914   0.00000   0.00000   0.00027   0.00027  -1.04887
    D5        1.04526   0.00000   0.00000   0.00027   0.00027   1.04553
    D6        3.13965   0.00000   0.00000   0.00027   0.00027   3.13992
    D7        1.04526   0.00000   0.00000   0.00027   0.00027   1.04553
    D8        3.13965   0.00000   0.00000   0.00027   0.00027   3.13992
    D9       -1.04914   0.00000   0.00000   0.00027   0.00027  -1.04887
         Item               Value     Threshold  Converged?
 Maximum Force            0.021140     0.000450     NO 
 RMS     Force            0.010150     0.000300     NO 
 Maximum Displacement     0.079883     0.001800     NO 
 RMS     Displacement     0.037453     0.001200     NO 
 Predicted change in Energy=-4.173580D-03
 Lowest energy point so far.  Saving SCF results.
 GradGradGradGradGradGradGradGradGradGradGradGradGradGradGradGradGradGrad

 Leave Link  103 at Thu Mar 17 13:20:37 2016, MaxMem=   524288000 cpu:         0.0
 (Enter /mnt/data/applications/G09/g09/l202.exe)
                          Input orientation:                          
 ---------------------------------------------------------------------
 Center     Atomic      Atomic             Coordinates (Angstroms)
 Number     Number       Type             X           Y           Z
 ---------------------------------------------------------------------
      1          6           0       -1.289585    1.086249    0.004850
      2          1           0       -0.934222    0.046064    0.025351
      3          1           0       -0.934430    1.588742    0.915923
      4          1           0       -2.388736    1.074346    0.025212
      5          6           0       -0.772283    1.817806   -1.262255
      6          1           0       -1.129047    2.857494   -1.283614
      7          1           0        0.326866    1.831195   -1.281759
      8          1           0       -1.126036    1.314323   -2.173327
 ---------------------------------------------------------------------
                    Distance matrix (angstroms):
                    1          2          3          4          5
     1  C    0.000000
     2  H    1.099404   0.000000
     3  H    1.099404   1.781285   0.000000
     4  H    1.099404   1.781285   1.781285   0.000000
     5  C    1.551880   2.196184   2.196184   2.196184   0.000000
     6  H    2.196184   3.107328   2.546679   2.545478   1.099404
     7  H    2.196184   2.546679   2.545478   3.107328   1.099404
     8  H    2.196184   2.545478   3.107328   2.546679   1.099404
                    6          7          8
     6  H    0.000000
     7  H    1.781285   0.000000
     8  H    1.781285   1.781285   0.000000
 Stoichiometry    C2H6
 Framework group  D3[C3(C.C),X(H6)]
 Deg. of freedom     4
 Full point group                 D3      NOp   6
 RotChk:  IX=0 Diff= 7.28D-13
 Largest Abelian subgroup         C2      NOp   2
 Largest concise Abelian subgroup C2      NOp   2
                         Standard orientation:                         
 ---------------------------------------------------------------------
 Center     Atomic      Atomic             Coordinates (Angstroms)
 Number     Number       Type             X           Y           Z
 ---------------------------------------------------------------------
      1          6           0        0.000000    0.000000    0.775940
      2          1           0       -0.513469    0.891071    1.164566
      3          1           0       -0.514956   -0.890213    1.164566
      4          1           0        1.028425   -0.000858    1.164566
      5          6           0        0.000000    0.000000   -0.775940
      6          1           0        0.514956   -0.890213   -1.164566
      7          1           0       -1.028425   -0.000858   -1.164566
      8          1           0        0.513469    0.891071   -1.164566
 ---------------------------------------------------------------------
 Rotational constants (GHZ):     79.0196838     19.5513818     19.5513818
 Leave Link  202 at Thu Mar 17 13:20:37 2016, MaxMem=   524288000 cpu:         0.0
 (Enter /mnt/data/applications/G09/g09/l301.exe)
 Standard basis: 6-31G(d) (6D, 7F)
 Ernie: Thresh=  0.10000D-02 Tol=  0.10000D-05 Strict=F.
 There are    21 symmetry adapted cartesian basis functions of A   symmetry.
 There are    21 symmetry adapted cartesian basis functions of B   symmetry.
 There are    21 symmetry adapted basis functions of A   symmetry.
 There are    21 symmetry adapted basis functions of B   symmetry.
    42 basis functions,    80 primitive gaussians,    42 cartesian basis functions
     9 alpha electrons        9 beta electrons
       nuclear repulsion energy        41.8183004855 Hartrees.
 IExCor= 3630 DFT=T Ex+Corr=B97D ExCW=0 ScaHFX=  0.000000
 ScaDFX=  1.000000  1.000000  1.000000  1.000000 ScalE2=  1.000000  1.000000
 IRadAn=      0 IRanWt=     -1 IRanGd=            0 ICorTp=0 IEmpDi=121
 NAtoms=    8 NActive=    8 NUniq=    2 SFac= 4.00D+00 NAtFMM=   60 NAOKFM=F Big=F
 Integral buffers will be    131072 words long.
 Raffenetti 2 integral format.
 Two-electron integral symmetry is turned on.
 R6Disp:  Grimme-D2 Dispersion energy=       -0.0043276386 Hartrees.
 Nuclear repulsion after empirical dispersion term =       41.8139728468 Hartrees.
 Leave Link  301 at Thu Mar 17 13:20:37 2016, MaxMem=   524288000 cpu:         0.2
 (Enter /mnt/data/applications/G09/g09/l302.exe)
 NPDir=0 NMtPBC=     1 NCelOv=     1 NCel=       1 NClECP=     1 NCelD=      1
         NCelK=      1 NCelE2=     1 NClLst=     1 CellRange=     0.0.
 One-electron integrals computed using PRISM.
 One-electron integral symmetry used in STVInt
 NBasis=    42 RedAO= T EigKep=  6.21D-03  NBF=    21    21
 NBsUse=    42 1.00D-06 EigRej= -1.00D+00 NBFU=    21    21
 Precomputing XC quadrature grid using
 IXCGrd= 4 IRadAn=           0 IRanWt=          -1 IRanGd=           0 AccXCQ= 0.00D+00.
 Generated NRdTot=       0 NPtTot=           0 NUsed=           0 NTot=          32
 NSgBfM=    42    42    42    42    42 MxSgAt=     8 MxSgA2=     8.
 Leave Link  302 at Thu Mar 17 13:20:37 2016, MaxMem=   524288000 cpu:         0.6
 (Enter /mnt/data/applications/G09/g09/l303.exe)
 DipDrv:  MaxL=1.
 Leave Link  303 at Thu Mar 17 13:20:38 2016, MaxMem=   524288000 cpu:         0.1
 (Enter /mnt/data/applications/G09/g09/l401.exe)
 Initial guess from the checkpoint file:  "ethane.chk"
 B after Tr=     0.000000    0.000000    0.000000
         Rot=    1.000000    0.000000    0.000000    0.000000 Ang=   0.00 deg.
 Guess basis will be translated and rotated to current coordinates.
 JPrj=2 DoOrth=T DoCkMO=T.
 Initial guess orbital symmetries:
       Occupied  (A1) (A2) (A1) (A2) (E) (E) (A1) (E) (E)
       Virtual   (A1) (?A) (A1) (?A) (?A) (?A) (A1) (A1) (?A) (?A)
                 (A1) (?A) (?A) (A1) (?A) (?A) (A2) (?A) (?A) (?A)
                 (?A) (A2) (A2) (?A) (?A) (A2) (?A) (?A) (A2) (?A)
                 (A2) (?A) (A2)
 The electronic state of the initial guess is 1-A1.
 Generating alternative initial guess.
 ExpMin= 1.61D-01 ExpMax= 3.05D+03 ExpMxC= 4.57D+02 IAcc=1 IRadAn=         1 AccDes= 0.00D+00
 Harris functional with IExCor= 3630 and IRadAn=       1 diagonalized for initial guess.
 HarFok:  IExCor= 3630 AccDes= 0.00D+00 IRadAn=         1 IDoV= 1 UseB2=F ITyADJ=14
 ICtDFT=  3500011 ScaDFX=  1.000000  1.000000  1.000000  1.000000
 FoFCou: FMM=F IPFlag=           0 FMFlag=      100000 FMFlg1=           0
         NFxFlg=           0 DoJE=T BraDBF=F KetDBF=T FulRan=T
         wScrn=  0.000000 ICntrl=     500 IOpCl=  0 I1Cent=   200000004 NGrid=           0
         NMat0=    1 NMatS0=      1 NMatT0=    0 NMatD0=    1 NMtDS0=    0 NMtDT0=    0
 Petite list used in FoFCou.
 Harris En= -79.8660024943773    
 Leave Link  401 at Thu Mar 17 13:20:38 2016, MaxMem=   524288000 cpu:         0.8
 (Enter /mnt/data/applications/G09/g09/l502.exe)
 Closed shell SCF:
 Using DIIS extrapolation, IDIIS=  1040.
 Integral symmetry usage will be decided dynamically.
 Keep J ints in memory in symmetry-blocked form, NReq=1295696.
 IVT=       24570 IEndB=       24570 NGot=   524288000 MDV=   524056917
 LenX=   524056917 LenY=   524054712
 Requested convergence on RMS density matrix=1.00D-08 within 128 cycles.
 Requested convergence on MAX density matrix=1.00D-06.
 Requested convergence on             energy=1.00D-06.
 No special actions if energy rises.
 FoFCou: FMM=F IPFlag=           0 FMFlag=           0 FMFlg1=           0
         NFxFlg=           0 DoJE=F BraDBF=F KetDBF=F FulRan=T
         wScrn=  0.000000 ICntrl=     600 IOpCl=  0 I1Cent=           0 NGrid=           0
         NMat0=    1 NMatS0=    903 NMatT0=    0 NMatD0=    1 NMtDS0=    0 NMtDT0=    0
 Petite list used in FoFCou.
 Integral accuracy reduced to 1.0D-05 until final iterations.

 Cycle   1  Pass 0  IDiag  1:
 E= -79.7698563632666    
 DIIS: error= 4.39D-03 at cycle   1 NSaved=   1.
 NSaved= 1 IEnMin= 1 EnMin= -79.7698563632666     IErMin= 1 ErrMin= 4.39D-03
 ErrMax= 4.39D-03  0.00D+00 EMaxC= 1.00D-01 BMatC= 5.93D-04 BMatP= 5.93D-04
 IDIUse=3 WtCom= 9.56D-01 WtEn= 4.39D-02
 Coeff-Com:  0.100D+01
 Coeff-En:   0.100D+01
 Coeff:      0.100D+01
 Gap=     1.804 Goal=   None    Shift=    0.000
 GapD=    1.804 DampG=2.000 DampE=1.000 DampFc=2.0000 IDamp=-1.
 RMSDP=1.08D-03 MaxDP=1.04D-02              OVMax= 1.27D-02

 Cycle   2  Pass 0  IDiag  1:
 E= -79.7699565854534     Delta-E=       -0.000100222187 Rises=F Damp=F
 DIIS: error= 4.61D-03 at cycle   2 NSaved=   2.
 NSaved= 2 IEnMin= 2 EnMin= -79.7699565854534     IErMin= 1 ErrMin= 4.39D-03
 ErrMax= 4.61D-03  0.00D+00 EMaxC= 1.00D-01 BMatC= 6.60D-04 BMatP= 5.93D-04
 IDIUse=3 WtCom= 1.28D-01 WtEn= 8.72D-01
 Coeff-Com:  0.516D+00 0.484D+00
 Coeff-En:   0.459D+00 0.541D+00
 Coeff:      0.466D+00 0.534D+00
 Gap=     0.383 Goal=   None    Shift=    0.000
 RMSDP=7.44D-04 MaxDP=6.51D-03 DE=-1.00D-04 OVMax= 8.63D-03

 Cycle   3  Pass 0  IDiag  1:
 E= -79.7705933541931     Delta-E=       -0.000636768740 Rises=F Damp=F
 DIIS: error= 1.36D-03 at cycle   3 NSaved=   3.
 NSaved= 3 IEnMin= 3 EnMin= -79.7705933541931     IErMin= 3 ErrMin= 1.36D-03
 ErrMax= 1.36D-03  0.00D+00 EMaxC= 1.00D-01 BMatC= 6.88D-05 BMatP= 5.93D-04
 IDIUse=3 WtCom= 9.86D-01 WtEn= 1.36D-02
 Coeff-Com:  0.390D-01 0.251D+00 0.710D+00
 Coeff-En:   0.000D+00 0.554D-01 0.945D+00
 Coeff:      0.384D-01 0.249D+00 0.713D+00
 Gap=     0.383 Goal=   None    Shift=    0.000
 RMSDP=1.63D-04 MaxDP=1.57D-03 DE=-6.37D-04 OVMax= 2.13D-03

 Cycle   4  Pass 0  IDiag  1:
 E= -79.7706630554272     Delta-E=       -0.000069701234 Rises=F Damp=F
 DIIS: error= 8.80D-05 at cycle   4 NSaved=   4.
 NSaved= 4 IEnMin= 4 EnMin= -79.7706630554272     IErMin= 4 ErrMin= 8.80D-05
 ErrMax= 8.80D-05  0.00D+00 EMaxC= 1.00D-01 BMatC= 1.62D-07 BMatP= 6.88D-05
 IDIUse=1 WtCom= 1.00D+00 WtEn= 0.00D+00
 Coeff-Com:  0.528D-02 0.573D-01 0.176D+00 0.762D+00
 Coeff:      0.528D-02 0.573D-01 0.176D+00 0.762D+00
 Gap=     0.383 Goal=   None    Shift=    0.000
 RMSDP=1.12D-05 MaxDP=7.21D-05 DE=-6.97D-05 OVMax= 1.57D-04

 Cycle   5  Pass 0  IDiag  1:
 E= -79.7706632195639     Delta-E=       -0.000000164137 Rises=F Damp=F
 DIIS: error= 1.27D-05 at cycle   5 NSaved=   5.
 NSaved= 5 IEnMin= 5 EnMin= -79.7706632195639     IErMin= 5 ErrMin= 1.27D-05
 ErrMax= 1.27D-05  0.00D+00 EMaxC= 1.00D-01 BMatC= 3.13D-09 BMatP= 1.62D-07
 IDIUse=1 WtCom= 1.00D+00 WtEn= 0.00D+00
 Coeff-Com: -0.284D-03 0.499D-02 0.156D-01 0.157D+00 0.823D+00
 Coeff:     -0.284D-03 0.499D-02 0.156D-01 0.157D+00 0.823D+00
 Gap=     0.383 Goal=   None    Shift=    0.000
 RMSDP=1.52D-06 MaxDP=8.02D-06 DE=-1.64D-07 OVMax= 1.95D-05

 Initial convergence to 1.0D-05 achieved.  Increase integral accuracy.
 Cycle   6  Pass 1  IDiag  1:
 E= -79.7707002503488     Delta-E=       -0.000037030785 Rises=F Damp=F
 DIIS: error= 1.85D-05 at cycle   1 NSaved=   1.
 NSaved= 1 IEnMin= 1 EnMin= -79.7707002503488     IErMin= 1 ErrMin= 1.85D-05
 ErrMax= 1.85D-05  0.00D+00 EMaxC= 1.00D-01 BMatC= 7.93D-09 BMatP= 7.93D-09
 IDIUse=1 WtCom= 1.00D+00 WtEn= 0.00D+00
 Coeff-Com:  0.100D+01
 Coeff:      0.100D+01
 Gap=     0.383 Goal=   None    Shift=    0.000
 RMSDP=1.52D-06 MaxDP=8.02D-06 DE=-3.70D-05 OVMax= 2.64D-05

 Cycle   7  Pass 1  IDiag  1:
 E= -79.7707002557203     Delta-E=       -0.000000005372 Rises=F Damp=F
 DIIS: error= 5.04D-06 at cycle   2 NSaved=   2.
 NSaved= 2 IEnMin= 2 EnMin= -79.7707002557203     IErMin= 2 ErrMin= 5.04D-06
 ErrMax= 5.04D-06  0.00D+00 EMaxC= 1.00D-01 BMatC= 8.09D-10 BMatP= 7.93D-09
 IDIUse=1 WtCom= 1.00D+00 WtEn= 0.00D+00
 Coeff-Com:  0.157D+00 0.843D+00
 Coeff:      0.157D+00 0.843D+00
 Gap=     0.383 Goal=   None    Shift=    0.000
 RMSDP=1.22D-06 MaxDP=1.12D-05 DE=-5.37D-09 OVMax= 1.45D-05

 Cycle   8  Pass 1  IDiag  1:
 E= -79.7707002556471     Delta-E=        0.000000000073 Rises=F Damp=F
 DIIS: error= 5.16D-06 at cycle   3 NSaved=   3.
 NSaved= 3 IEnMin= 2 EnMin= -79.7707002557203     IErMin= 2 ErrMin= 5.04D-06
 ErrMax= 5.16D-06  0.00D+00 EMaxC= 1.00D-01 BMatC= 8.77D-10 BMatP= 8.09D-10
 IDIUse=1 WtCom= 1.00D+00 WtEn= 0.00D+00
 Coeff-Com:  0.103D-01 0.510D+00 0.480D+00
 Coeff:      0.103D-01 0.510D+00 0.480D+00
 Gap=     0.383 Goal=   None    Shift=    0.000
 RMSDP=6.39D-07 MaxDP=5.77D-06 DE= 7.33D-11 OVMax= 7.49D-06

 Cycle   9  Pass 1  IDiag  1:
 E= -79.7707002565587     Delta-E=       -0.000000000912 Rises=F Damp=F
 DIIS: error= 2.72D-07 at cycle   4 NSaved=   4.
 NSaved= 4 IEnMin= 4 EnMin= -79.7707002565587     IErMin= 4 ErrMin= 2.72D-07
 ErrMax= 2.72D-07  0.00D+00 EMaxC= 1.00D-01 BMatC= 1.37D-12 BMatP= 8.09D-10
 IDIUse=1 WtCom= 1.00D+00 WtEn= 0.00D+00
 Coeff-Com:  0.264D-03 0.118D+00 0.123D+00 0.759D+00
 Coeff:      0.264D-03 0.118D+00 0.123D+00 0.759D+00
 Gap=     0.383 Goal=   None    Shift=    0.000
 RMSDP=3.12D-08 MaxDP=1.78D-07 DE=-9.12D-10 OVMax= 4.61D-07

 Cycle  10  Pass 1  IDiag  1:
 E= -79.7707002565600     Delta-E=       -0.000000000001 Rises=F Damp=F
 DIIS: error= 2.84D-08 at cycle   5 NSaved=   5.
 NSaved= 5 IEnMin= 5 EnMin= -79.7707002565600     IErMin= 5 ErrMin= 2.84D-08
 ErrMax= 2.84D-08  0.00D+00 EMaxC= 1.00D-01 BMatC= 2.09D-14 BMatP= 1.37D-12
 IDIUse=1 WtCom= 1.00D+00 WtEn= 0.00D+00
 Coeff-Com: -0.123D-03 0.141D-01 0.161D-01 0.171D+00 0.799D+00
 Coeff:     -0.123D-03 0.141D-01 0.161D-01 0.171D+00 0.799D+00
 Gap=     0.383 Goal=   None    Shift=    0.000
 RMSDP=4.17D-09 MaxDP=2.65D-08 DE=-1.36D-12 OVMax= 4.76D-08

 SCF Done:  E(RB97D) =  -79.7707002566     A.U. after   10 cycles
            NFock= 10  Conv=0.42D-08     -V/T= 2.0098
 KE= 7.899511725645D+01 PE=-2.675115797664D+02 EE= 6.693178940658D+01
 Leave Link  502 at Thu Mar 17 13:20:38 2016, MaxMem=   524288000 cpu:         1.6
 (Enter /mnt/data/applications/G09/g09/l701.exe)
 Compute integral first derivatives.
 ... and contract with generalized density number  0.
 R6Disp: Adding Grimme-D2 dispersion energy 1st derivatives to the gradient.
 Leave Link  701 at Thu Mar 17 13:20:38 2016, MaxMem=   524288000 cpu:         0.6
 (Enter /mnt/data/applications/G09/g09/l702.exe)
 L702 exits ... SP integral derivatives will be done elsewhere.
 Leave Link  702 at Thu Mar 17 13:20:38 2016, MaxMem=   524288000 cpu:         0.1
 (Enter /mnt/data/applications/G09/g09/l703.exe)
 Compute integral first derivatives, UseDBF=F ICtDFT=           0.
 Integral derivatives from FoFJK, PRISM(SPDF).
 Calling FoFJK, ICntrl=      2527 FMM=F ISym2X=1 I1Cent= 0 IOpClX= 0 NMat=1 NMatS=1 NMatT=0.
 FoFJK:  IHMeth= 1 ICntrl=    2527 DoSepK=F KAlg= 0 I1Cent=   0 FoldK=F
 IRaf=         0 NMat=   1 IRICut=       1 DoRegI=T DoRafI=F ISym2E= 1.
 FoFCou: FMM=F IPFlag=           0 FMFlag=      100000 FMFlg1=         800
         NFxFlg=           0 DoJE=F BraDBF=F KetDBF=F FulRan=T
         wScrn=  0.000000 ICntrl=    2527 IOpCl=  0 I1Cent=           0 NGrid=           0
         NMat0=    1 NMatS0=      1 NMatT0=    0 NMatD0=    1 NMtDS0=    0 NMtDT0=    0
 Petite list used in FoFCou.
 Leave Link  703 at Thu Mar 17 13:20:39 2016, MaxMem=   524288000 cpu:         0.9
 (Enter /mnt/data/applications/G09/g09/l716.exe)
 Dipole        =-2.01891795D-16 6.27296045D-16-4.44089209D-16
 ***** Axes restored to original set *****
 -------------------------------------------------------------------
 Center     Atomic                   Forces (Hartrees/Bohr)
 Number     Number              X              Y              Z
 -------------------------------------------------------------------
      1        6           0.002778034    0.003928630   -0.006804651
      2        1           0.000175107   -0.001572200    0.000630360
      3        1           0.000168083    0.000245173    0.001676743
      4        1          -0.001540663   -0.000366410    0.000626045
      5        6          -0.002778034   -0.003928630    0.006804651
      6        1          -0.000169981    0.001574018   -0.000627217
      7        1           0.001540668    0.000360969   -0.000629184
      8        1          -0.000173215   -0.000241550   -0.001676747
 -------------------------------------------------------------------
 Cartesian Forces:  Max     0.006804651 RMS     0.002552031
 Leave Link  716 at Thu Mar 17 13:20:39 2016, MaxMem=   524288000 cpu:         0.1
 (Enter /mnt/data/applications/G09/g09/l103.exe)

 GradGradGradGradGradGradGradGradGradGradGradGradGradGradGradGradGradGrad
 Berny optimization.
 Using GEDIIS/GDIIS optimizer.
 FormGI is forming the generalized inverse of G from B-inverse, IUseBI=4.
 Internal  Forces:  Max     0.004741603 RMS     0.001238403
 Search for a local minimum.
 Step number   2 out of a maximum of   38
 All quantities printed in internal units (Hartrees-Bohrs-Radians)
 RMS Force = .12384D-02 SwitMx=.10000D-02 MixMth= 1
 Mixed Optimization -- RFO/linear search
 Update second derivatives using D2CorX and points    1    2
 DE= -4.27D-03 DEPred=-4.17D-03 R= 1.02D+00
 TightC=F SS=  1.41D+00  RLast= 1.57D-01 DXNew= 5.0454D-01 4.7131D-01
 Trust test= 1.02D+00 RLast= 1.57D-01 DXMaxT set to 4.71D-01
 ITU=  1  0
 Use linear search instead of GDIIS.
     Eigenvalues ---    0.00237   0.05492   0.05492   0.05492   0.05492
     Eigenvalues ---    0.15447   0.16000   0.16000   0.16000   0.16000
     Eigenvalues ---    0.16000   0.28406   0.36795   0.37230   0.37230
     Eigenvalues ---    0.37230   0.37230   0.37230
 RFO step:  Lambda=-1.31155845D-04 EMin= 2.36824910D-03
 Quartic linear search produced a step of  0.08608.
 Iteration  1 RMS(Cart)=  0.00293972 RMS(Int)=  0.00002458
 Iteration  2 RMS(Cart)=  0.00001233 RMS(Int)=  0.00002160
 Iteration  3 RMS(Cart)=  0.00000000 RMS(Int)=  0.00002160
 ITry= 1 IFail=0 DXMaxC= 7.18D-03 DCOld= 1.00D+10 DXMaxT= 4.71D-01 DXLimC= 3.00D+00 Rises=F
 ClnCor:  largest displacement from symmetrization is 7.37D-13 for atom     3.
 Variable       Old X    -DE/DX   Delta X   Delta X   Delta X     New X
                                 (Linear)    (Quad)   (Total)
    R1        2.07757   0.00156   0.00478   0.00084   0.00563   2.08320
    R2        2.07757   0.00156   0.00478   0.00084   0.00563   2.08320
    R3        2.07757   0.00156   0.00478   0.00084   0.00563   2.08320
    R4        2.93263  -0.00474   0.00193  -0.01951  -0.01758   2.91505
    R5        2.07757   0.00156   0.00478   0.00084   0.00563   2.08320
    R6        2.07757   0.00156   0.00478   0.00084   0.00563   2.08320
    R7        2.07757   0.00156   0.00478   0.00084   0.00563   2.08320
    A1        1.88869  -0.00072  -0.00189  -0.00352  -0.00544   1.88325
    A2        1.88869  -0.00072  -0.00189  -0.00352  -0.00544   1.88325
    A3        1.93209   0.00069   0.00185   0.00337   0.00518   1.93728
    A4        1.88869  -0.00072  -0.00189  -0.00352  -0.00544   1.88325
    A5        1.93209   0.00069   0.00185   0.00337   0.00518   1.93728
    A6        1.93209   0.00069   0.00185   0.00337   0.00518   1.93728
    A7        1.93209   0.00069   0.00185   0.00337   0.00518   1.93728
    A8        1.93209   0.00069   0.00185   0.00337   0.00518   1.93728
    A9        1.93209   0.00069   0.00185   0.00337   0.00518   1.93728
   A10        1.88869  -0.00072  -0.00189  -0.00352  -0.00544   1.88325
   A11        1.88869  -0.00072  -0.00189  -0.00352  -0.00544   1.88325
   A12        1.88869  -0.00072  -0.00189  -0.00352  -0.00544   1.88325
    D1        3.13992   0.00000   0.00002   0.00131   0.00134   3.14126
    D2       -1.04887   0.00000   0.00002   0.00131   0.00134  -1.04753
    D3        1.04553   0.00000   0.00002   0.00131   0.00134   1.04687
    D4       -1.04887   0.00000   0.00002   0.00131   0.00134  -1.04753
    D5        1.04553   0.00000   0.00002   0.00131   0.00134   1.04687
    D6        3.13992   0.00000   0.00002   0.00131   0.00134   3.14126
    D7        1.04553   0.00000   0.00002   0.00131   0.00134   1.04687
    D8        3.13992   0.00000   0.00002   0.00131   0.00134   3.14126
    D9       -1.04887   0.00000   0.00002   0.00131   0.00134  -1.04753
         Item               Value     Threshold  Converged?
 Maximum Force            0.004742     0.000450     NO 
 RMS     Force            0.001238     0.000300     NO 
 Maximum Displacement     0.007177     0.001800     NO 
 RMS     Displacement     0.002938     0.001200     NO 
 Predicted change in Energy=-8.724878D-05
 Lowest energy point so far.  Saving SCF results.
 GradGradGradGradGradGradGradGradGradGradGradGradGradGradGradGradGradGrad

 Leave Link  103 at Thu Mar 17 13:20:39 2016, MaxMem=   524288000 cpu:         0.0
 (Enter /mnt/data/applications/G09/g09/l202.exe)
                          Input orientation:                          
 ---------------------------------------------------------------------
 Center     Atomic      Atomic             Coordinates (Angstroms)
 Number     Number       Type             X           Y           Z
 ---------------------------------------------------------------------
      1          6           0       -1.288035    1.088442    0.001052
      2          1           0       -0.933886    0.044816    0.026899
      3          1           0       -0.935218    1.588820    0.917778
      4          1           0       -2.390025    1.073055    0.026071
      5          6           0       -0.773834    1.815613   -1.258457
      6          1           0       -1.128261    2.859140   -1.284475
      7          1           0        0.328156    1.831295   -1.283306
      8          1           0       -1.126372    1.315038   -2.175183
 ---------------------------------------------------------------------
                    Distance matrix (angstroms):
                    1          2          3          4          5
     1  C    0.000000
     2  H    1.102382   0.000000
     3  H    1.102382   1.782588   0.000000
     4  H    1.102382   1.782588   1.782588   0.000000
     5  C    1.542577   2.193964   2.193964   2.193964   0.000000
     6  H    2.193964   3.110933   2.549685   2.549447   1.102382
     7  H    2.193964   2.549685   2.549447   3.110933   1.102382
     8  H    2.193964   2.549447   3.110933   2.549685   1.102382
                    6          7          8
     6  H    0.000000
     7  H    1.782588   0.000000
     8  H    1.782588   1.782588   0.000000
 Stoichiometry    C2H6
 Framework group  D3[C3(C.C),X(H6)]
 Deg. of freedom     4
 Full point group                 D3      NOp   6
 RotChk:  IX=0 Diff= 1.09D-12
 Largest Abelian subgroup         C2      NOp   2
 Largest concise Abelian subgroup C2      NOp   2
                         Standard orientation:                         
 ---------------------------------------------------------------------
 Center     Atomic      Atomic             Coordinates (Angstroms)
 Number     Number       Type             X           Y           Z
 ---------------------------------------------------------------------
      1          6           0        0.000000    0.000000    0.771289
      2          1           0       -0.514441    0.891379    1.166306
      3          1           0       -0.514736   -0.891208    1.166306
      4          1           0        1.029177   -0.000171    1.166306
      5          6           0        0.000000    0.000000   -0.771289
      6          1           0        0.514736   -0.891208   -1.166306
      7          1           0       -1.029177   -0.000171   -1.166306
      8          1           0        0.514441    0.891379   -1.166306
 ---------------------------------------------------------------------
 Rotational constants (GHZ):     78.9042369     19.6605456     19.6605456
 Leave Link  202 at Thu Mar 17 13:20:39 2016, MaxMem=   524288000 cpu:         0.0
 (Enter /mnt/data/applications/G09/g09/l301.exe)
 Standard basis: 6-31G(d) (6D, 7F)
 Ernie: Thresh=  0.10000D-02 Tol=  0.10000D-05 Strict=F.
 There are    21 symmetry adapted cartesian basis functions of A   symmetry.
 There are    21 symmetry adapted cartesian basis functions of B   symmetry.
 There are    21 symmetry adapted basis functions of A   symmetry.
 There are    21 symmetry adapted basis functions of B   symmetry.
    42 basis functions,    80 primitive gaussians,    42 cartesian basis functions
     9 alpha electrons        9 beta electrons
       nuclear repulsion energy        41.8507020383 Hartrees.
 IExCor= 3630 DFT=T Ex+Corr=B97D ExCW=0 ScaHFX=  0.000000
 ScaDFX=  1.000000  1.000000  1.000000  1.000000 ScalE2=  1.000000  1.000000
 IRadAn=      0 IRanWt=     -1 IRanGd=            0 ICorTp=0 IEmpDi=121
 NAtoms=    8 NActive=    8 NUniq=    2 SFac= 4.00D+00 NAtFMM=   60 NAOKFM=F Big=F
 Integral buffers will be    131072 words long.
 Raffenetti 2 integral format.
 Two-electron integral symmetry is turned on.
 R6Disp:  Grimme-D2 Dispersion energy=       -0.0043096203 Hartrees.
 Nuclear repulsion after empirical dispersion term =       41.8463924180 Hartrees.
 Leave Link  301 at Thu Mar 17 13:20:39 2016, MaxMem=   524288000 cpu:         0.2
 (Enter /mnt/data/applications/G09/g09/l302.exe)
 NPDir=0 NMtPBC=     1 NCelOv=     1 NCel=       1 NClECP=     1 NCelD=      1
         NCelK=      1 NCelE2=     1 NClLst=     1 CellRange=     0.0.
 One-electron integrals computed using PRISM.
 One-electron integral symmetry used in STVInt
 NBasis=    42 RedAO= T EigKep=  6.16D-03  NBF=    21    21
 NBsUse=    42 1.00D-06 EigRej= -1.00D+00 NBFU=    21    21
 Precomputing XC quadrature grid using
 IXCGrd= 4 IRadAn=           0 IRanWt=          -1 IRanGd=           0 AccXCQ= 0.00D+00.
 Generated NRdTot=       0 NPtTot=           0 NUsed=           0 NTot=          32
 NSgBfM=    42    42    42    42    42 MxSgAt=     8 MxSgA2=     8.
 Leave Link  302 at Thu Mar 17 13:20:39 2016, MaxMem=   524288000 cpu:         0.6
 (Enter /mnt/data/applications/G09/g09/l303.exe)
 DipDrv:  MaxL=1.
 Leave Link  303 at Thu Mar 17 13:20:39 2016, MaxMem=   524288000 cpu:         0.1
 (Enter /mnt/data/applications/G09/g09/l401.exe)
 Initial guess from the checkpoint file:  "ethane.chk"
 B after Tr=     0.000000    0.000000    0.000000
         Rot=    1.000000    0.000000    0.000000    0.000000 Ang=   0.00 deg.
 Guess basis will be translated and rotated to current coordinates.
 JPrj=2 DoOrth=T DoCkMO=T.
 Initial guess orbital symmetries:
       Occupied  (A1) (A2) (A1) (A2) (E) (E) (A1) (E) (E)
       Virtual   (A1) (?A) (A1) (?B) (?A) (?A) (A1) (A1) (?B) (?B)
                 (A1) (?A) (?B) (A1) (?A) (?B) (A2) (?A) (?B) (?A)
                 (?B) (A2) (A2) (?A) (?B) (A2) (?A) (?B) (A2) (?A)
                 (A2) (?B) (A2)
 The electronic state of the initial guess is 1-A1.
 Leave Link  401 at Thu Mar 17 13:20:39 2016, MaxMem=   524288000 cpu:         0.4
 (Enter /mnt/data/applications/G09/g09/l502.exe)
 Closed shell SCF:
 Using DIIS extrapolation, IDIIS=  1040.
 Integral symmetry usage will be decided dynamically.
 Keep J ints in memory in symmetry-blocked form, NReq=1295696.
 IVT=       24570 IEndB=       24570 NGot=   524288000 MDV=   524056917
 LenX=   524056917 LenY=   524054712
 Requested convergence on RMS density matrix=1.00D-08 within 128 cycles.
 Requested convergence on MAX density matrix=1.00D-06.
 Requested convergence on             energy=1.00D-06.
 No special actions if energy rises.
 FoFCou: FMM=F IPFlag=           0 FMFlag=           0 FMFlg1=           0
         NFxFlg=           0 DoJE=F BraDBF=F KetDBF=F FulRan=T
         wScrn=  0.000000 ICntrl=     600 IOpCl=  0 I1Cent=           0 NGrid=           0
         NMat0=    1 NMatS0=    903 NMatT0=    0 NMatD0=    1 NMtDS0=    0 NMtDT0=    0
 Petite list used in FoFCou.

 Cycle   1  Pass 1  IDiag  1:
 E= -79.7707754194615    
 DIIS: error= 6.85D-04 at cycle   1 NSaved=   1.
 NSaved= 1 IEnMin= 1 EnMin= -79.7707754194615     IErMin= 1 ErrMin= 6.85D-04
 ErrMax= 6.85D-04  0.00D+00 EMaxC= 1.00D-01 BMatC= 1.73D-05 BMatP= 1.73D-05
 IDIUse=3 WtCom= 9.93D-01 WtEn= 6.85D-03
 Coeff-Com:  0.100D+01
 Coeff-En:   0.100D+01
 Coeff:      0.100D+01
 Gap=     1.822 Goal=   None    Shift=    0.000
 RMSDP=1.83D-04 MaxDP=1.26D-03              OVMax= 2.65D-03

 Cycle   2  Pass 1  IDiag  1:
 E= -79.7708066318221     Delta-E=       -0.000031212361 Rises=F Damp=F
 DIIS: error= 3.09D-04 at cycle   2 NSaved=   2.
 NSaved= 2 IEnMin= 2 EnMin= -79.7708066318221     IErMin= 2 ErrMin= 3.09D-04
 ErrMax= 3.09D-04  0.00D+00 EMaxC= 1.00D-01 BMatC= 2.70D-06 BMatP= 1.73D-05
 IDIUse=3 WtCom= 9.97D-01 WtEn= 3.09D-03
 Coeff-Com:  0.193D+00 0.807D+00
 Coeff-En:   0.000D+00 0.100D+01
 Coeff:      0.192D+00 0.808D+00
 Gap=     0.382 Goal=   None    Shift=    0.000
 RMSDP=7.58D-05 MaxDP=6.18D-04 DE=-3.12D-05 OVMax= 8.59D-04

 Cycle   3  Pass 1  IDiag  1:
 E= -79.7708070192851     Delta-E=       -0.000000387463 Rises=F Damp=F
 DIIS: error= 2.79D-04 at cycle   3 NSaved=   3.
 NSaved= 3 IEnMin= 3 EnMin= -79.7708070192851     IErMin= 3 ErrMin= 2.79D-04
 ErrMax= 2.79D-04  0.00D+00 EMaxC= 1.00D-01 BMatC= 2.56D-06 BMatP= 2.70D-06
 IDIUse=3 WtCom= 9.97D-01 WtEn= 2.79D-03
 Coeff-Com:  0.235D-01 0.489D+00 0.488D+00
 Coeff-En:   0.000D+00 0.470D+00 0.530D+00
 Coeff:      0.234D-01 0.489D+00 0.488D+00
 Gap=     0.381 Goal=   None    Shift=    0.000
 RMSDP=3.35D-05 MaxDP=3.13D-04 DE=-3.87D-07 OVMax= 3.99D-04

 Cycle   4  Pass 1  IDiag  1:
 E= -79.7708096638332     Delta-E=       -0.000002644548 Rises=F Damp=F
 DIIS: error= 1.95D-05 at cycle   4 NSaved=   4.
 NSaved= 4 IEnMin= 4 EnMin= -79.7708096638332     IErMin= 4 ErrMin= 1.95D-05
 ErrMax= 1.95D-05  0.00D+00 EMaxC= 1.00D-01 BMatC= 8.25D-09 BMatP= 2.56D-06
 IDIUse=1 WtCom= 1.00D+00 WtEn= 0.00D+00
 Coeff-Com:  0.242D-02 0.113D+00 0.124D+00 0.760D+00
 Coeff:      0.242D-02 0.113D+00 0.124D+00 0.760D+00
 Gap=     0.381 Goal=   None    Shift=    0.000
 RMSDP=2.39D-06 MaxDP=1.38D-05 DE=-2.64D-06 OVMax= 3.40D-05

 Cycle   5  Pass 1  IDiag  1:
 E= -79.7708096718792     Delta-E=       -0.000000008046 Rises=F Damp=F
 DIIS: error= 2.88D-06 at cycle   5 NSaved=   5.
 NSaved= 5 IEnMin= 5 EnMin= -79.7708096718792     IErMin= 5 ErrMin= 2.88D-06
 ErrMax= 2.88D-06  0.00D+00 EMaxC= 1.00D-01 BMatC= 1.90D-10 BMatP= 8.25D-09
 IDIUse=1 WtCom= 1.00D+00 WtEn= 0.00D+00
 Coeff-Com: -0.297D-03 0.103D-01 0.101D-01 0.164D+00 0.816D+00
 Coeff:     -0.297D-03 0.103D-01 0.101D-01 0.164D+00 0.816D+00
 Gap=     0.381 Goal=   None    Shift=    0.000
 RMSDP=3.86D-07 MaxDP=2.28D-06 DE=-8.05D-09 OVMax= 4.42D-06

 Cycle   6  Pass 1  IDiag  1:
 E= -79.7708096720798     Delta-E=       -0.000000000201 Rises=F Damp=F
 DIIS: error= 2.80D-08 at cycle   6 NSaved=   6.
 NSaved= 6 IEnMin= 6 EnMin= -79.7708096720798     IErMin= 6 ErrMin= 2.80D-08
 ErrMax= 2.80D-08  0.00D+00 EMaxC= 1.00D-01 BMatC= 3.07D-14 BMatP= 1.90D-10
 IDIUse=1 WtCom= 1.00D+00 WtEn= 0.00D+00
 Coeff-Com: -0.162D-04 0.226D-03 0.227D-03 0.602D-02 0.362D-01 0.957D+00
 Coeff:     -0.162D-04 0.226D-03 0.227D-03 0.602D-02 0.362D-01 0.957D+00
 Gap=     0.381 Goal=   None    Shift=    0.000
 RMSDP=5.79D-09 MaxDP=3.75D-08 DE=-2.01D-10 OVMax= 7.35D-08

 SCF Done:  E(RB97D) =  -79.7708096721     A.U. after    6 cycles
            NFock=  6  Conv=0.58D-08     -V/T= 2.0099
 KE= 7.898535317794D+01 PE=-2.675665752682D+02 EE= 6.696402000024D+01
 Leave Link  502 at Thu Mar 17 13:20:40 2016, MaxMem=   524288000 cpu:         1.4
 (Enter /mnt/data/applications/G09/g09/l701.exe)
 Compute integral first derivatives.
 ... and contract with generalized density number  0.
 R6Disp: Adding Grimme-D2 dispersion energy 1st derivatives to the gradient.
 Leave Link  701 at Thu Mar 17 13:20:40 2016, MaxMem=   524288000 cpu:         0.6
 (Enter /mnt/data/applications/G09/g09/l702.exe)
 L702 exits ... SP integral derivatives will be done elsewhere.
 Leave Link  702 at Thu Mar 17 13:20:40 2016, MaxMem=   524288000 cpu:         0.1
 (Enter /mnt/data/applications/G09/g09/l703.exe)
 Compute integral first derivatives, UseDBF=F ICtDFT=           0.
 Integral derivatives from FoFJK, PRISM(SPDF).
 Calling FoFJK, ICntrl=      2527 FMM=F ISym2X=1 I1Cent= 0 IOpClX= 0 NMat=1 NMatS=1 NMatT=0.
 FoFJK:  IHMeth= 1 ICntrl=    2527 DoSepK=F KAlg= 0 I1Cent=   0 FoldK=F
 IRaf=         0 NMat=   1 IRICut=       1 DoRegI=T DoRafI=F ISym2E= 1.
 FoFCou: FMM=F IPFlag=           0 FMFlag=      100000 FMFlg1=         800
         NFxFlg=           0 DoJE=F BraDBF=F KetDBF=F FulRan=T
         wScrn=  0.000000 ICntrl=    2527 IOpCl=  0 I1Cent=           0 NGrid=           0
         NMat0=    1 NMatS0=      1 NMatT0=    0 NMatD0=    1 NMtDS0=    0 NMtDT0=    0
 Petite list used in FoFCou.
 Leave Link  703 at Thu Mar 17 13:20:40 2016, MaxMem=   524288000 cpu:         0.9
 (Enter /mnt/data/applications/G09/g09/l716.exe)
 Dipole        =-5.75780974D-16 2.89998817D-16 1.33226763D-15
 ***** Axes restored to original set *****
 -------------------------------------------------------------------
 Center     Atomic                   Forces (Hartrees/Bohr)
 Number     Number              X              Y              Z
 -------------------------------------------------------------------
      1        6           0.000664837    0.000940196   -0.001628483
      2        1          -0.000167005    0.000064014    0.000235195
      3        1          -0.000166546   -0.000236016    0.000062161
      4        1           0.000116018   -0.000135627    0.000235479
      5        6          -0.000664837   -0.000940196    0.001628483
      6        1           0.000166859   -0.000064066   -0.000235285
      7        1          -0.000116018    0.000135783   -0.000235389
      8        1           0.000166692    0.000235913   -0.000062161
 -------------------------------------------------------------------
 Cartesian Forces:  Max     0.001628483 RMS     0.000594408
 Leave Link  716 at Thu Mar 17 13:20:40 2016, MaxMem=   524288000 cpu:         0.1
 (Enter /mnt/data/applications/G09/g09/l103.exe)

 GradGradGradGradGradGradGradGradGradGradGradGradGradGradGradGradGradGrad
 Berny optimization.
 Using GEDIIS/GDIIS optimizer.
 FormGI is forming the generalized inverse of G from B-inverse, IUseBI=4.
 Internal  Forces:  Max     0.001341889 RMS     0.000316343
 Search for a local minimum.
 Step number   3 out of a maximum of   38
 All quantities printed in internal units (Hartrees-Bohrs-Radians)
 RMS Force = .31634D-03 SwitMx=.10000D-02 MixMth= 2
 Mixed Optimization -- En-DIIS/RFO-DIIS
 Update second derivatives using D2CorX and points    1    2    3
 DE= -1.09D-04 DEPred=-8.72D-05 R= 1.25D+00
 TightC=F SS=  1.41D+00  RLast= 2.92D-02 DXNew= 7.9264D-01 8.7661D-02
 Trust test= 1.25D+00 RLast= 2.92D-02 DXMaxT set to 4.71D-01
 ITU=  1  1  0
 Use linear search instead of GDIIS.
     Eigenvalues ---    0.00237   0.05437   0.05437   0.05437   0.05437
     Eigenvalues ---    0.12017   0.16000   0.16000   0.16000   0.16000
     Eigenvalues ---    0.16000   0.26256   0.37230   0.37230   0.37230
     Eigenvalues ---    0.37230   0.37230   0.40228
 RFO step:  Lambda=-7.06105866D-06 EMin= 2.36823233D-03
 Quartic linear search produced a step of  0.26048.
 Iteration  1 RMS(Cart)=  0.00139682 RMS(Int)=  0.00000519
 Iteration  2 RMS(Cart)=  0.00000385 RMS(Int)=  0.00000417
 Iteration  3 RMS(Cart)=  0.00000000 RMS(Int)=  0.00000417
 ITry= 1 IFail=0 DXMaxC= 2.59D-03 DCOld= 1.00D+10 DXMaxT= 4.71D-01 DXLimC= 3.00D+00 Rises=F
 ClnCor:  largest displacement from symmetrization is 9.66D-13 for atom     3.
 Variable       Old X    -DE/DX   Delta X   Delta X   Delta X     New X
                                 (Linear)    (Quad)   (Total)
    R1        2.08320  -0.00011   0.00147  -0.00120   0.00026   2.08346
    R2        2.08320  -0.00011   0.00147  -0.00120   0.00026   2.08346
    R3        2.08320  -0.00011   0.00147  -0.00120   0.00026   2.08346
    R4        2.91505  -0.00134  -0.00458  -0.00177  -0.00635   2.90870
    R5        2.08320  -0.00011   0.00147  -0.00120   0.00026   2.08346
    R6        2.08320  -0.00011   0.00147  -0.00120   0.00026   2.08346
    R7        2.08320  -0.00011   0.00147  -0.00120   0.00026   2.08346
    A1        1.88325  -0.00029  -0.00142  -0.00121  -0.00263   1.88062
    A2        1.88325  -0.00029  -0.00142  -0.00121  -0.00263   1.88062
    A3        1.93728   0.00027   0.00135   0.00114   0.00249   1.93976
    A4        1.88325  -0.00029  -0.00142  -0.00121  -0.00263   1.88062
    A5        1.93728   0.00027   0.00135   0.00114   0.00249   1.93976
    A6        1.93728   0.00027   0.00135   0.00114   0.00249   1.93976
    A7        1.93728   0.00027   0.00135   0.00114   0.00249   1.93976
    A8        1.93728   0.00027   0.00135   0.00114   0.00249   1.93976
    A9        1.93728   0.00027   0.00135   0.00114   0.00249   1.93976
   A10        1.88325  -0.00029  -0.00142  -0.00121  -0.00263   1.88062
   A11        1.88325  -0.00029  -0.00142  -0.00121  -0.00263   1.88062
   A12        1.88325  -0.00029  -0.00142  -0.00121  -0.00263   1.88062
    D1        3.14126   0.00000   0.00035  -0.00056  -0.00021   3.14105
    D2       -1.04753   0.00000   0.00035  -0.00056  -0.00021  -1.04774
    D3        1.04687   0.00000   0.00035  -0.00056  -0.00021   1.04666
    D4       -1.04753   0.00000   0.00035  -0.00056  -0.00021  -1.04774
    D5        1.04687   0.00000   0.00035  -0.00056  -0.00021   1.04666
    D6        3.14126   0.00000   0.00035  -0.00056  -0.00021   3.14105
    D7        1.04687   0.00000   0.00035  -0.00056  -0.00021   1.04666
    D8        3.14126   0.00000   0.00035  -0.00056  -0.00021   3.14105
    D9       -1.04753   0.00000   0.00035  -0.00056  -0.00021  -1.04774
         Item               Value     Threshold  Converged?
 Maximum Force            0.001342     0.000450     NO 
 RMS     Force            0.000316     0.000300     NO 
 Maximum Displacement     0.002591     0.001800     NO 
 RMS     Displacement     0.001397     0.001200     NO 
 Predicted change in Energy=-8.516271D-06
 Lowest energy point so far.  Saving SCF results.
 GradGradGradGradGradGradGradGradGradGradGradGradGradGradGradGradGradGrad

 Leave Link  103 at Thu Mar 17 13:20:40 2016, MaxMem=   524288000 cpu:         0.0
 (Enter /mnt/data/applications/G09/g09/l202.exe)
                          Input orientation:                          
 ---------------------------------------------------------------------
 Center     Atomic      Atomic             Coordinates (Angstroms)
 Number     Number       Type             X           Y           Z
 ---------------------------------------------------------------------
      1          6           0       -1.287475    1.089234   -0.000319
      2          1           0       -0.934688    0.045059    0.027852
      3          1           0       -0.935843    1.587749    0.918044
      4          1           0       -2.389529    1.072567    0.027132
      5          6           0       -0.774393    1.814821   -1.257086
      6          1           0       -1.127634    2.858835   -1.285535
      7          1           0        0.327660    1.831968   -1.284260
      8          1           0       -1.125571    1.315985   -2.175449
 ---------------------------------------------------------------------
                    Distance matrix (angstroms):
                    1          2          3          4          5
     1  C    0.000000
     2  H    1.102522   0.000000
     3  H    1.102522   1.781106   0.000000
     4  H    1.102522   1.781106   1.781106   0.000000
     5  C    1.539218   2.192902   2.192902   2.192902   0.000000
     6  H    2.192902   3.111198   2.551118   2.550731   1.102522
     7  H    2.192902   2.551118   2.550731   3.111198   1.102522
     8  H    2.192902   2.550731   3.111198   2.551118   1.102522
                    6          7          8
     6  H    0.000000
     7  H    1.781106   0.000000
     8  H    1.781106   1.781106   0.000000
 Stoichiometry    C2H6
 Framework group  D3[C3(C.C),X(H6)]
 Deg. of freedom     4
 Full point group                 D3      NOp   6
 RotChk:  IX=0 Diff= 9.33D-13
 Largest Abelian subgroup         C2      NOp   2
 Largest concise Abelian subgroup C2      NOp   2
                         Standard orientation:                         
 ---------------------------------------------------------------------
 Center     Atomic      Atomic             Coordinates (Angstroms)
 Number     Number       Type             X           Y           Z
 ---------------------------------------------------------------------
      1          6           0        0.000000    0.000000    0.769609
      2          1           0       -0.513920    0.890692    1.167237
      3          1           0       -0.514401   -0.890414    1.167237
      4          1           0        1.028322   -0.000278    1.167237
      5          6           0        0.000000    0.000000   -0.769609
      6          1           0        0.514401   -0.890414   -1.167237
      7          1           0       -1.028322   -0.000278   -1.167237
      8          1           0        0.513920    0.890692   -1.167237
 ---------------------------------------------------------------------
 Rotational constants (GHZ):     79.0355743     19.7021623     19.7021623
 Leave Link  202 at Thu Mar 17 13:20:40 2016, MaxMem=   524288000 cpu:         0.0
 (Enter /mnt/data/applications/G09/g09/l301.exe)
 Standard basis: 6-31G(d) (6D, 7F)
 Ernie: Thresh=  0.10000D-02 Tol=  0.10000D-05 Strict=F.
 There are    21 symmetry adapted cartesian basis functions of A   symmetry.
 There are    21 symmetry adapted cartesian basis functions of B   symmetry.
 There are    21 symmetry adapted basis functions of A   symmetry.
 There are    21 symmetry adapted basis functions of B   symmetry.
    42 basis functions,    80 primitive gaussians,    42 cartesian basis functions
     9 alpha electrons        9 beta electrons
       nuclear repulsion energy        41.8804386027 Hartrees.
 IExCor= 3630 DFT=T Ex+Corr=B97D ExCW=0 ScaHFX=  0.000000
 ScaDFX=  1.000000  1.000000  1.000000  1.000000 ScalE2=  1.000000  1.000000
 IRadAn=      0 IRanWt=     -1 IRanGd=            0 ICorTp=0 IEmpDi=121
 NAtoms=    8 NActive=    8 NUniq=    2 SFac= 4.00D+00 NAtFMM=   60 NAOKFM=F Big=F
 Integral buffers will be    131072 words long.
 Raffenetti 2 integral format.
 Two-electron integral symmetry is turned on.
 R6Disp:  Grimme-D2 Dispersion energy=       -0.0042879332 Hartrees.
 Nuclear repulsion after empirical dispersion term =       41.8761506695 Hartrees.
 Leave Link  301 at Thu Mar 17 13:20:40 2016, MaxMem=   524288000 cpu:         0.2
 (Enter /mnt/data/applications/G09/g09/l302.exe)
 NPDir=0 NMtPBC=     1 NCelOv=     1 NCel=       1 NClECP=     1 NCelD=      1
         NCelK=      1 NCelE2=     1 NClLst=     1 CellRange=     0.0.
 One-electron integrals computed using PRISM.
 One-electron integral symmetry used in STVInt
 NBasis=    42 RedAO= T EigKep=  6.14D-03  NBF=    21    21
 NBsUse=    42 1.00D-06 EigRej= -1.00D+00 NBFU=    21    21
 Precomputing XC quadrature grid using
 IXCGrd= 4 IRadAn=           0 IRanWt=          -1 IRanGd=           0 AccXCQ= 0.00D+00.
 Generated NRdTot=       0 NPtTot=           0 NUsed=           0 NTot=          32
 NSgBfM=    42    42    42    42    42 MxSgAt=     8 MxSgA2=     8.
 Leave Link  302 at Thu Mar 17 13:20:40 2016, MaxMem=   524288000 cpu:         0.6
 (Enter /mnt/data/applications/G09/g09/l303.exe)
 DipDrv:  MaxL=1.
 Leave Link  303 at Thu Mar 17 13:20:40 2016, MaxMem=   524288000 cpu:         0.1
 (Enter /mnt/data/applications/G09/g09/l401.exe)
 Initial guess from the checkpoint file:  "ethane.chk"
 B after Tr=     0.000000    0.000000    0.000000
         Rot=    1.000000    0.000000    0.000000    0.000000 Ang=   0.00 deg.
 Guess basis will be translated and rotated to current coordinates.
 JPrj=2 DoOrth=T DoCkMO=T.
 Initial guess orbital symmetries:
       Occupied  (A1) (A2) (A1) (A2) (E) (E) (A1) (E) (E)
       Virtual   (A1) (?A) (A1) (?B) (?A) (?A) (A1) (A1) (?B) (?B)
                 (A1) (?A) (?B) (A1) (?A) (?B) (A2) (?A) (?B) (?A)
                 (?B) (A2) (A2) (?A) (?B) (A2) (?A) (?B) (A2) (?A)
                 (A2) (?B) (A2)
 The electronic state of the initial guess is 1-A1.
 Leave Link  401 at Thu Mar 17 13:20:41 2016, MaxMem=   524288000 cpu:         0.4
 (Enter /mnt/data/applications/G09/g09/l502.exe)
 Closed shell SCF:
 Using DIIS extrapolation, IDIIS=  1040.
 Integral symmetry usage will be decided dynamically.
 Keep J ints in memory in symmetry-blocked form, NReq=1295696.
 IVT=       24570 IEndB=       24570 NGot=   524288000 MDV=   524056917
 LenX=   524056917 LenY=   524054712
 Requested convergence on RMS density matrix=1.00D-08 within 128 cycles.
 Requested convergence on MAX density matrix=1.00D-06.
 Requested convergence on             energy=1.00D-06.
 No special actions if energy rises.
 FoFCou: FMM=F IPFlag=           0 FMFlag=           0 FMFlg1=           0
         NFxFlg=           0 DoJE=F BraDBF=F KetDBF=F FulRan=T
         wScrn=  0.000000 ICntrl=     600 IOpCl=  0 I1Cent=           0 NGrid=           0
         NMat0=    1 NMatS0=    903 NMatT0=    0 NMatD0=    1 NMtDS0=    0 NMtDT0=    0
 Petite list used in FoFCou.

 Cycle   1  Pass 1  IDiag  1:
 E= -79.7708148285732    
 DIIS: error= 3.37D-04 at cycle   1 NSaved=   1.
 NSaved= 1 IEnMin= 1 EnMin= -79.7708148285732     IErMin= 1 ErrMin= 3.37D-04
 ErrMax= 3.37D-04  0.00D+00 EMaxC= 1.00D-01 BMatC= 2.12D-06 BMatP= 2.12D-06
 IDIUse=3 WtCom= 9.97D-01 WtEn= 3.37D-03
 Coeff-Com:  0.100D+01
 Coeff-En:   0.100D+01
 Coeff:      0.100D+01
 Gap=     1.813 Goal=   None    Shift=    0.000
 RMSDP=5.69D-05 MaxDP=4.56D-04              OVMax= 8.54D-04

 Cycle   2  Pass 1  IDiag  1:
 E= -79.7708187552625     Delta-E=       -0.000003926689 Rises=F Damp=F
 DIIS: error= 3.48D-05 at cycle   2 NSaved=   2.
 NSaved= 2 IEnMin= 2 EnMin= -79.7708187552625     IErMin= 2 ErrMin= 3.48D-05
 ErrMax= 3.48D-05  0.00D+00 EMaxC= 1.00D-01 BMatC= 3.31D-08 BMatP= 2.12D-06
 IDIUse=1 WtCom= 1.00D+00 WtEn= 0.00D+00
 Coeff-Com:  0.464D-01 0.954D+00
 Coeff:      0.464D-01 0.954D+00
 Gap=     0.381 Goal=   None    Shift=    0.000
 RMSDP=8.14D-06 MaxDP=6.82D-05 DE=-3.93D-06 OVMax= 8.17D-05

 Cycle   3  Pass 1  IDiag  1:
 E= -79.7708187506213     Delta-E=        0.000000004641 Rises=F Damp=F
 DIIS: error= 3.38D-05 at cycle   3 NSaved=   3.
 NSaved= 3 IEnMin= 2 EnMin= -79.7708187552625     IErMin= 3 ErrMin= 3.38D-05
 ErrMax= 3.38D-05  0.00D+00 EMaxC= 1.00D-01 BMatC= 3.70D-08 BMatP= 3.31D-08
 IDIUse=1 WtCom= 1.00D+00 WtEn= 0.00D+00
 Coeff-Com:  0.105D-01 0.518D+00 0.471D+00
 Coeff:      0.105D-01 0.518D+00 0.471D+00
 Gap=     0.381 Goal=   None    Shift=    0.000
 RMSDP=4.63D-06 MaxDP=4.18D-05 DE= 4.64D-09 OVMax= 5.43D-05

 Cycle   4  Pass 1  IDiag  1:
 E= -79.7708187881695     Delta-E=       -0.000000037548 Rises=F Damp=F
 DIIS: error= 4.29D-06 at cycle   4 NSaved=   4.
 NSaved= 4 IEnMin= 4 EnMin= -79.7708187881695     IErMin= 4 ErrMin= 4.29D-06
 ErrMax= 4.29D-06  0.00D+00 EMaxC= 1.00D-01 BMatC= 7.71D-10 BMatP= 3.31D-08
 IDIUse=1 WtCom= 1.00D+00 WtEn= 0.00D+00
 Coeff-Com: -0.905D-03 0.689D-01 0.160D+00 0.772D+00
 Coeff:     -0.905D-03 0.689D-01 0.160D+00 0.772D+00
 Gap=     0.381 Goal=   None    Shift=    0.000
[...]
     20  0.308405D-01  0.218012D-02 -0.591236D-04  0.288978D-02  0.469170D-01
     21  0.229006D-04 -0.346151D-03 -0.959489D-03 -0.438681D-02 -0.181775D-02
     22  0.333251D-02  0.502396D-02  0.102204D-01 -0.831997D-02 -0.154831D-01
     23 -0.112980D-01 -0.120660D-01 -0.247031D-01  0.859880D-03 -0.380845D-03
     24  0.772939D-03  0.115830D-02  0.157099D-02  0.821216D-03  0.109570D-02
               21            22            23            24 
     21  0.489783D-01
     22 -0.266981D-01  0.754387D-01
     23  0.134868D-02  0.419991D-01  0.105488D+00
     24  0.153836D-02  0.722419D-01  0.102621D+00  0.234937D+00
 FormGI is forming the generalized inverse of G from B-inverse, IUseBI=4.
 Force constants in internal coordinates: 
                1             2             3             4             5 
      1  0.320035D+00
      2  0.148361D-02  0.320035D+00
      3  0.148331D-02  0.148330D-02  0.320036D+00
      4  0.448913D-02  0.448913D-02  0.448970D-02  0.265179D+00
      5 -0.118934D-02  0.484140D-03  0.485048D-03  0.448913D-02  0.320035D+00
      6  0.483957D-03  0.485048D-03 -0.119023D-02  0.448970D-02  0.148330D-02
      7  0.485228D-03 -0.118934D-02  0.483957D-03  0.448913D-02  0.148361D-02
      8  0.512370D-02  0.512682D-02  0.140940D-03 -0.149734D-01 -0.101179D-02
      9  0.512686D-02  0.141305D-03  0.512309D-02 -0.149735D-01 -0.101198D-02
     10 -0.485338D-04 -0.487710D-02 -0.488079D-02  0.141314D-01  0.405826D-02
     11  0.141306D-03  0.512373D-02  0.512621D-02 -0.149735D-01  0.410944D-03
     12 -0.488178D-02 -0.485371D-04 -0.487611D-02  0.141315D-01 -0.126877D-02
     13 -0.487708D-02 -0.488175D-02 -0.489756D-04  0.141311D-01 -0.126737D-02
     14  0.405825D-02 -0.126877D-02 -0.126821D-02  0.141315D-01 -0.485371D-04
     15 -0.126801D-02 -0.126737D-02  0.405786D-02  0.141311D-01 -0.488175D-02
     16 -0.126812D-02  0.405826D-02 -0.126885D-02  0.141314D-01 -0.487710D-02
     17 -0.101186D-02  0.410944D-03 -0.101137D-02 -0.149735D-01  0.512373D-02
     18 -0.101191D-02 -0.101179D-02  0.411185D-03 -0.149734D-01  0.512682D-02
     19  0.410945D-03 -0.101198D-02 -0.101125D-02 -0.149735D-01  0.141305D-03
     20  0.230307D-05 -0.259040D-02  0.258730D-02  0.000000D+00  0.257580D-05
     21  0.591904D-03 -0.376946D-02  0.317712D-02  0.000000D+00  0.317771D-02
     22 -0.587159D-03 -0.317958D-02  0.376667D-02  0.000000D+00 -0.317958D-02
     23  0.317738D-02  0.591761D-03 -0.376915D-02  0.000000D+00  0.591761D-03
     24  0.376699D-02 -0.587303D-03 -0.317932D-02  0.000000D+00  0.376690D-02
     25  0.258792D-02  0.257580D-05 -0.258977D-02  0.000000D+00 -0.259040D-02
     26 -0.317991D-02  0.376690D-02 -0.587387D-03  0.000000D+00 -0.587303D-03
     27 -0.259031D-02  0.258784D-02  0.243968D-05  0.000000D+00  0.258784D-02
     28 -0.376938D-02  0.317771D-02  0.591989D-03  0.000000D+00 -0.376946D-02
                6             7             8             9            10 
      6  0.320036D+00
      7  0.148331D-02  0.320035D+00
      8  0.411185D-03 -0.101191D-02  0.508858D-01
      9 -0.101125D-02  0.410945D-03  0.913788D-02  0.508859D-01
     10 -0.126885D-02 -0.126812D-02 -0.392267D-01 -0.392400D-01  0.998948D-01
     11 -0.101137D-02 -0.101186D-02  0.913788D-02  0.913796D-02  0.131940D-01
     12 -0.126821D-02  0.405825D-02 -0.392398D-01  0.131940D-01 -0.191466D-01
     13  0.405786D-02 -0.126801D-02  0.131947D-01 -0.392259D-01 -0.191467D-01
     14 -0.487611D-02 -0.488178D-02 -0.376720D-02 -0.375612D-02  0.177009D-01
     15 -0.489756D-04 -0.487708D-02  0.450206D-02 -0.376769D-02 -0.741569D-02
     16 -0.488079D-02 -0.485338D-04 -0.375611D-02  0.450277D-02 -0.743459D-02
     17  0.512621D-02  0.141306D-03  0.222142D-03  0.275980D-02 -0.376721D-02
     18  0.140940D-03  0.512370D-02  0.275990D-02  0.219267D-03 -0.375611D-02
     19  0.512309D-02  0.512686D-02  0.219267D-03  0.222012D-03  0.450277D-02
     20 -0.258977D-02  0.258792D-02 -0.665868D-02  0.666668D-02 -0.661944D-05
     21  0.591989D-03 -0.376938D-02 -0.588570D-02  0.511645D-02  0.211954D-02
     22  0.376667D-02 -0.587159D-03 -0.510892D-02  0.588942D-02 -0.213415D-02
     23 -0.376915D-02  0.317738D-02  0.511622D-02  0.774189D-03  0.448557D-02
     24 -0.587387D-03 -0.317991D-02  0.588920D-02 -0.776035D-03  0.661173D-02
     25  0.258730D-02  0.230307D-05  0.666598D-02 -0.306265D-05  0.235803D-02
     26 -0.317932D-02  0.376699D-02 -0.775641D-03 -0.510874D-02 -0.448190D-02
     27  0.243968D-05 -0.259031D-02 -0.265666D-05 -0.665896D-02 -0.235574D-02
     28  0.317712D-02  0.591904D-03  0.774120D-03 -0.588599D-02 -0.660944D-02
               11            12            13            14            15 
     11  0.508859D-01
     12 -0.392268D-01  0.998948D-01
     13 -0.392390D-01 -0.191467D-01  0.998925D-01
     14  0.450278D-02 -0.741643D-02 -0.743385D-02  0.998948D-01
     15 -0.375660D-02 -0.743385D-02  0.177018D-01 -0.191467D-01  0.998925D-01
     16 -0.376721D-02  0.177009D-01 -0.741569D-02 -0.191466D-01 -0.191467D-01
     17  0.219137D-03  0.450278D-02 -0.375660D-02 -0.392268D-01 -0.392390D-01
     18  0.222142D-03 -0.376720D-02  0.450206D-02 -0.392398D-01  0.131947D-01
     19  0.275980D-02 -0.375612D-02 -0.376769D-02  0.131940D-01 -0.392259D-01
     20 -0.225159D-05 -0.235603D-02  0.235723D-02 -0.615296D-05 -0.235521D-02
     21  0.774515D-03 -0.660972D-02  0.448521D-02  0.448577D-02  0.211974D-02
     22 -0.775710D-03 -0.448170D-02  0.661133D-02 -0.448170D-02  0.661133D-02
     23 -0.588592D-02  0.211952D-02 -0.660932D-02  0.211952D-02 -0.660932D-02
     24 -0.510916D-02 -0.213417D-02 -0.448134D-02  0.661145D-02 -0.213437D-02
     25 -0.665938D-02 -0.615296D-05 -0.235521D-02 -0.235603D-02  0.235723D-02
     26  0.588949D-02  0.661145D-02 -0.213437D-02 -0.213417D-02 -0.448134D-02
     27  0.666626D-02  0.235775D-02 -0.638756D-05  0.235775D-02 -0.638756D-05
     28  0.511603D-02  0.448577D-02  0.211974D-02 -0.660972D-02  0.448521D-02
               16            17            18            19            20 
     16  0.998948D-01
     17  0.131940D-01  0.508859D-01
     18 -0.392267D-01  0.913788D-02  0.508858D-01
     19 -0.392400D-01  0.913796D-02  0.913788D-02  0.508859D-01
     20  0.235803D-02 -0.665938D-02  0.666598D-02 -0.306265D-05  0.135759D-01
     21 -0.660944D-02  0.511603D-02  0.774120D-03 -0.588599D-02  0.357596D-02
     22 -0.213415D-02 -0.775710D-03 -0.510892D-02  0.588942D-02  0.357398D-02
     23  0.448557D-02 -0.588592D-02  0.511622D-02  0.774189D-03  0.357599D-02
     24 -0.448190D-02  0.588949D-02 -0.775641D-03 -0.510874D-02 -0.642397D-02
     25 -0.661944D-05 -0.225159D-05 -0.665868D-02  0.666668D-02 -0.642596D-02
     26  0.661173D-02 -0.510916D-02  0.588920D-02 -0.776035D-03  0.357395D-02
     27 -0.235574D-02  0.666626D-02 -0.265666D-05 -0.665896D-02 -0.642602D-02
     28  0.211954D-02  0.774515D-03 -0.588570D-02  0.511645D-02 -0.642800D-02
               21            22            23            24            25 
     21  0.144674D-01
     22  0.401967D-02  0.144633D-01
     23 -0.687171D-02 -0.731539D-02  0.144674D-01
     24  0.401972D-02 -0.686970D-02  0.401967D-02  0.144634D-01
     25 -0.642800D-02  0.357398D-02  0.357599D-02  0.357395D-02  0.135759D-01
     26 -0.731548D-02 -0.686970D-02  0.401967D-02 -0.686976D-02 -0.642397D-02
     27  0.357594D-02 -0.642400D-02 -0.642803D-02  0.357393D-02 -0.642602D-02
     28 -0.687178D-02  0.401967D-02 -0.687171D-02 -0.731548D-02  0.357596D-02
               26            27            28 
     26  0.144634D-01
     27  0.357393D-02  0.135759D-01
     28  0.401972D-02  0.357594D-02  0.144674D-01
 Leave Link  716 at Thu Mar 17 13:20:46 2016, MaxMem=   524288000 cpu:         0.1
 (Enter /mnt/data/applications/G09/g09/l103.exe)

 GradGradGradGradGradGradGradGradGradGradGradGradGradGradGradGradGradGrad
 Berny optimization.
 Red2BG is reusing G-inverse.
 Internal  Forces:  Max     0.000127724 RMS     0.000063172
 Search for a local minimum.
 Step number   1 out of a maximum of    2
 All quantities printed in internal units (Hartrees-Bohrs-Radians)
 Second derivative matrix not updated -- analytic derivatives used.
 ITU=  0
     Eigenvalues ---    0.00217   0.04416   0.04416   0.04674   0.04674
     Eigenvalues ---    0.11827   0.11858   0.11858   0.12335   0.17325
     Eigenvalues ---    0.17325   0.28165   0.31802   0.31802   0.32061
     Eigenvalues ---    0.32062   0.32459   0.32486
 Angle between quadratic step and forces=  32.68 degrees.
 Linear search not attempted -- first point.
 Iteration  1 RMS(Cart)=  0.00025300 RMS(Int)=  0.00000005
 Iteration  2 RMS(Cart)=  0.00000006 RMS(Int)=  0.00000001
 ITry= 1 IFail=0 DXMaxC= 4.74D-04 DCOld= 1.00D+10 DXMaxT= 3.00D-01 DXLimC= 3.00D+00 Rises=F
 ClnCor:  largest displacement from symmetrization is 2.09D-09 for atom     7.
 Variable       Old X    -DE/DX   Delta X   Delta X   Delta X     New X
                                 (Linear)    (Quad)   (Total)
    R1        2.08346  -0.00012   0.00000  -0.00036  -0.00036   2.08310
    R2        2.08346  -0.00012   0.00000  -0.00036  -0.00036   2.08310
    R3        2.08346  -0.00012   0.00000  -0.00036  -0.00036   2.08310
    R4        2.90870  -0.00013   0.00000  -0.00058  -0.00058   2.90812
    R5        2.08346  -0.00012   0.00000  -0.00036  -0.00036   2.08310
    R6        2.08346  -0.00012   0.00000  -0.00036  -0.00036   2.08310
    R7        2.08346  -0.00012   0.00000  -0.00036  -0.00036   2.08310
    A1        1.88062  -0.00002   0.00000  -0.00021  -0.00021   1.88041
    A2        1.88062  -0.00002   0.00000  -0.00021  -0.00021   1.88041
    A3        1.93976   0.00002   0.00000   0.00020   0.00020   1.93996
    A4        1.88062  -0.00002   0.00000  -0.00021  -0.00021   1.88041
    A5        1.93976   0.00002   0.00000   0.00020   0.00020   1.93996
    A6        1.93976   0.00002   0.00000   0.00020   0.00020   1.93996
    A7        1.93976   0.00002   0.00000   0.00020   0.00020   1.93996
    A8        1.93976   0.00002   0.00000   0.00020   0.00020   1.93996
    A9        1.93976   0.00002   0.00000   0.00020   0.00020   1.93996
   A10        1.88062  -0.00002   0.00000  -0.00021  -0.00021   1.88041
   A11        1.88062  -0.00002   0.00000  -0.00021  -0.00021   1.88041
   A12        1.88062  -0.00002   0.00000  -0.00021  -0.00021   1.88041
    D1        3.14105   0.00000   0.00000   0.00019   0.00019   3.14125
    D2       -1.04774   0.00000   0.00000   0.00019   0.00019  -1.04754
    D3        1.04666   0.00000   0.00000   0.00019   0.00019   1.04685
    D4       -1.04774   0.00000   0.00000   0.00019   0.00019  -1.04754
    D5        1.04666   0.00000   0.00000   0.00019   0.00019   1.04685
    D6        3.14105   0.00000   0.00000   0.00019   0.00019   3.14125
    D7        1.04666   0.00000   0.00000   0.00019   0.00019   1.04685
    D8        3.14105   0.00000   0.00000   0.00019   0.00019   3.14125
    D9       -1.04774   0.00000   0.00000   0.00019   0.00019  -1.04754
         Item               Value     Threshold  Converged?
 Maximum Force            0.000128     0.000450     YES
 RMS     Force            0.000063     0.000300     YES
 Maximum Displacement     0.000474     0.001800     YES
 RMS     Displacement     0.000253     0.001200     YES
 Predicted change in Energy=-1.963197D-07
 Optimization completed.
    -- Stationary point found.
                           ----------------------------
                           !   Optimized Parameters   !
                           ! (Angstroms and Degrees)  !
 --------------------------                            --------------------------
 ! Name  Definition              Value          Derivative Info.                !
 --------------------------------------------------------------------------------
 ! R1    R(1,2)                  1.1025         -DE/DX =   -0.0001              !
 ! R2    R(1,3)                  1.1025         -DE/DX =   -0.0001              !
 ! R3    R(1,4)                  1.1025         -DE/DX =   -0.0001              !
 ! R4    R(1,5)                  1.5392         -DE/DX =   -0.0001              !
 ! R5    R(5,6)                  1.1025         -DE/DX =   -0.0001              !
 ! R6    R(5,7)                  1.1025         -DE/DX =   -0.0001              !
 ! R7    R(5,8)                  1.1025         -DE/DX =   -0.0001              !
 ! A1    A(2,1,3)              107.7518         -DE/DX =    0.0                 !
 ! A2    A(2,1,4)              107.7518         -DE/DX =    0.0                 !
 ! A3    A(2,1,5)              111.1403         -DE/DX =    0.0                 !
 ! A4    A(3,1,4)              107.7518         -DE/DX =    0.0                 !
 ! A5    A(3,1,5)              111.1403         -DE/DX =    0.0                 !
 ! A6    A(4,1,5)              111.1403         -DE/DX =    0.0                 !
 ! A7    A(1,5,6)              111.1403         -DE/DX =    0.0                 !
 ! A8    A(1,5,7)              111.1403         -DE/DX =    0.0                 !
 ! A9    A(1,5,8)              111.1403         -DE/DX =    0.0                 !
 ! A10   A(6,5,7)              107.7518         -DE/DX =    0.0                 !
 ! A11   A(6,5,8)              107.7518         -DE/DX =    0.0                 !
 ! A12   A(7,5,8)              107.7518         -DE/DX =    0.0                 !
 ! D1    D(2,1,5,6)            179.9691         -DE/DX =    0.0                 !
 ! D2    D(2,1,5,7)            -60.0309         -DE/DX =    0.0                 !
 ! D3    D(2,1,5,8)             59.9691         -DE/DX =    0.0                 !
 ! D4    D(3,1,5,6)            -60.0309         -DE/DX =    0.0                 !
 ! D5    D(3,1,5,7)             59.9691         -DE/DX =    0.0                 !
 ! D6    D(3,1,5,8)            179.9691         -DE/DX =    0.0                 !
 ! D7    D(4,1,5,6)             59.9691         -DE/DX =    0.0                 !
 ! D8    D(4,1,5,7)            179.9691         -DE/DX =    0.0                 !
 ! D9    D(4,1,5,8)            -60.0309         -DE/DX =    0.0                 !
 --------------------------------------------------------------------------------
 GradGradGradGradGradGradGradGradGradGradGradGradGradGradGradGradGradGrad

 Leave Link  103 at Thu Mar 17 13:20:46 2016, MaxMem=   524288000 cpu:         0.0
 (Enter /mnt/data/applications/G09/g09/l9999.exe)
 1\1\GINC-KIMIK2014\Freq\RB97D\6-31G(d)\C2H6\IFUNES\17-Mar-2016\0\\#P G
 eom=AllCheck Guess=TCheck SCRF=Check GenChk RB97D/6-31G(d) Freq\\opt f
 req\\0,1\C,-1.2874750076,1.0892335568,-0.0003190489\H,-0.9346875511,0.
 0450586238,0.0278518988\H,-0.9358433473,1.5877491508,0.9180443107\H,-2
 .3895287951,1.0725674388,0.0271322216\C,-0.7743934202,1.8148212865,-1.
 2570858833\H,-1.127634036,2.8588354712,-1.2855346428\H,0.3276598656,1.
 8319684095,-1.284259653\H,-1.1255714195,1.3159854359,-2.175448932\\Ver
 sion=EM64L-G09RevD.01\State=1-A1\HF=-79.7708188\RMSD=2.920e-10\RMSF=6.
 423e-05\ZeroPoint=0.0730703\Thermal=0.0765866\Dipole=0.,0.,0.\DipoleDe
 riv=0.1300409,-0.0056331,0.0097141,-0.0055779,0.1260751,0.0137177,0.00
 97039,0.0137023,0.1102441,0.0316661,0.0708782,0.0076711,0.0566647,-0.1
 765563,0.0452153,0.0158845,0.02201,0.0228055,0.0318155,-0.0420343,-0.0
 573086,-0.0420319,0.0019238,-0.081292,-0.0408865,-0.058091,-0.1558242,
 -0.1935138,-0.0232367,0.0399095,-0.0090209,0.0485678,0.0223494,0.01529
 78,0.0223481,0.0228085,0.1300409,-0.005596,0.0097355,-0.0056148,0.1260
 752,0.0137022,0.0096826,0.0137176,0.110244,0.0315948,0.070959,0.00764,
 0.0567202,-0.176499,0.0452538,0.0158945,0.0220786,0.0228193,-0.1935136
 ,-0.0233175,0.0398629,-0.009127,0.0485816,0.0223656,0.0152367,0.022315
 6,0.0227945,0.0318866,-0.0420205,-0.0572229,-0.0419952,0.0018527,-0.08
 13524,-0.0408434,-0.0581215,-0.155824\Polar=23.1111892,0.2707906,23.30
 06224,-0.4690241,-0.663142,24.0663673\PG=D03 [C3(C1.C1),X(H6)]\NImag=0
 \\0.53787444,-0.01592201,0.52660845,0.02757804,0.03900269,0.48157121,-
 0.07520422,0.07738337,-0.00169296,0.07570110,0.07725857,-0.27001982,0.
 00187469,-0.08389620,0.29117843,-0.00162265,0.00166946,-0.04709885,-0.
 00016550,-0.00497541,0.04898421,-0.07500004,-0.03715219,-0.06764562,0.
 00333254,0.00500922,0.01020785,0.07548756,-0.03715414,-0.10150018,-0.0
 9589826,-0.01131621,-0.01205861,-0.02470735,0.04201653,0.10543917,-0.0
 6750221,-0.09569315,-0.21582265,0.00076647,0.00115403,0.00156362,0.072
 33847,0.10255248,0.23493700,-0.29697714,-0.00144289,0.00215844,-0.0083
 6620,-0.00115744,-0.00033987,-0.00833690,0.00086861,0.00082305,0.31996
 870,-0.00131878,-0.04822798,-0.00098604,0.03084649,0.00216322,-0.00006
 811,-0.01547087,-0.00037128,0.00110323,0.00278020,0.04689446,0.0019416
 7,-0.00098457,-0.04711756,0.00003361,-0.00034941,-0.00095948,-0.026698
 31,0.00136194,0.00154572,-0.00445005,-0.00180493,0.04900059,-0.0892648
 8,-0.01703405,0.02951185,0.00371923,0.00452414,-0.00960546,0.00370238,
 0.00603242,-0.00868974,-0.00884408,-0.01639041,0.02838279,0.53787444,-
 0.01704074,-0.10131924,0.04173797,-0.01194294,-0.01303652,0.02671065,0
 .00605014,0.00799242,-0.01232381,0.00007436,-0.00049862,-0.00011555,-0
 .01592204,0.52660849,0.02950799,0.04174064,-0.14951657,-0.00007677,-0.
 00017028,-0.00034351,0.01031085,0.01457457,-0.02135561,-0.00013911,-0.
 00013902,-0.00031949,0.02757803,0.03900267,0.48157117,0.00372275,-0.01
 195249,-0.00007250,0.00008175,-0.00155696,0.00237495,0.00011526,0.0005
 1854,-0.00045335,0.00061887,-0.00002556,-0.00078578,-0.07523883,0.0774
 6147,-0.00172623,0.07575022,0.00452949,-0.01303846,-0.00016625,-0.0015
 5590,0.00037044,0.00289509,0.00013163,0.00091084,0.00003594,-0.0003174
 7,0.00049600,-0.00046625,0.07733811,-0.26995956,0.00191917,-0.08398831
 ,0.29110690,-0.00961017,0.02670237,-0.00034511,0.00237390,0.00289406,-
 0.00456268,-0.00067588,-0.00062239,0.00124857,-0.00017656,-0.00089613,
 0.00116582,-0.00165244,0.00171428,-0.04712448,-0.00013216,-0.00503074,
 0.04900662,-0.00884409,0.00007025,-0.00014148,0.00061812,-0.00031492,-
 0.00017547,0.00061746,0.00031285,0.00018653,0.00131658,-0.00111864,0.0
 0193836,-0.29697695,-0.00153473,0.00210542,-0.00838309,-0.00116345,-0.
 00034654,0.31996847,-0.01637960,-0.00050020,-0.00014438,-0.00003509,0.
 00049277,-0.00089364,0.00069375,0.00040919,-0.00041423,-0.00111757,-0.
 00086380,0.00320243,-0.00140921,-0.04825372,-0.00096962,0.03084048,0.0
 0218012,-0.00005912,0.00288978,0.04691696,0.02838902,-0.00010835,-0.00
 031791,-0.00078379,-0.00046439,0.00116377,-0.00037046,-0.00084532,0.00
 125403,0.00193897,0.00320377,-0.00456327,0.00188947,-0.00097155,-0.047
 09201,0.00002290,-0.00034615,-0.00095949,-0.00438681,-0.00181775,0.048
 97831,0.00369887,0.00604905,0.01030042,0.00011600,0.00013385,-0.000673
 64,0.00008117,-0.00127809,0.00253273,0.00061671,0.00069680,-0.00036121
 ,-0.07496562,-0.03714174,-0.06756123,0.00333251,0.00502396,0.01022039,
 -0.00831997,-0.01548310,-0.02669811,0.07543867,0.00603101,0.00799594,0
 .01458192,0.00051549,0.00091129,-0.00063140,-0.00127847,-0.00082198,0.
 00358506,0.00031063,0.00040874,-0.00084442,-0.03713995,-0.10153473,-0.
 09595779,-0.01129797,-0.01206595,-0.02470308,0.00085988,-0.00038085,0.
 00134868,0.04199906,0.10548820,-0.00868274,-0.01232875,-0.02135560,-0.
 00045415,0.00003742,0.00125338,0.00253418,0.00358404,-0.00336968,0.000
 18487,-0.00041397,0.00124922,-0.06741832,-0.09575233,-0.21582254,0.000
 77294,0.00115830,0.00157099,0.00082122,0.00109570,0.00153836,0.0722418
 9,0.10262062,0.23493687\\-0.00001928,-0.00002727,0.00004723,0.00004921
 ,-0.00011268,-0.00001643,0.00005013,0.00006992,0.00008937,-0.00012264,
 0.00000981,-0.00001587,0.00001928,0.00002727,-0.00004723,-0.00005032,0
 .00011229,0.00001575,0.00012264,-0.00000864,0.00001655,-0.00004902,-0.
 00007071,-0.00008937\\\@


 UNLESS WE CHANGE DIRECTIONS, WE WILL WIND UP WHERE WE ARE HEADED.
     -- CONFUCIUS
 Job cpu time:       0 days  0 hours  0 minutes 16.7 seconds.
 File lengths (MBytes):  RWF=      5 Int=      0 D2E=      0 Chk=      2 Scr=      1
 Normal termination of Gaussian 09 at Thu Mar 17 13:20:46 2016.
