 argument  1 = nwchem_ethaneInput.nw



============================== echo of input deck ==============================
memory heap 200 mb stack 1000 mb global 2800 mb
start calc
title "B3LYP-D3/def2-SVP/LOOSE"
echo
charge 0
dft
    grid medium
    mult 1
    xc b3lyp
    disp vdw 3
    iterations 200
    convergence energy 1d-6
    print low
    direct
end
basis "cd basis" spherical
  * library "Weigend Coulomb Fitting"
end
basis large spherical
  * library def2-tzvp
end
basis smaller spherical
  * library def2-sv(p)
end
driver
  gmax 0.002 ; grms 0.0003 ; xrms 1 ; xmax 1
  maxiter 400
end

geometry units angstroms
  load ./ethane.xyz
end
set "ao basis" smaller
task dft freq numerical
set "ao basis" large
task dft energy

================================================================================


                                         
                                         


              Northwest Computational Chemistry Package (NWChem) 6.8
              ------------------------------------------------------


                    Environmental Molecular Sciences Laboratory
                       Pacific Northwest National Laboratory
                                Richland, WA 99352

                              Copyright (c) 1994-2017
                       Pacific Northwest National Laboratory
                            Battelle Memorial Institute

             NWChem is an open-source computational chemistry package
                        distributed under the terms of the
                      Educational Community License (ECL) 2.0
             A copy of the license is included with this distribution
                              in the LICENSE.TXT file

                                  ACKNOWLEDGMENT
                                  --------------

            This software and its documentation were developed at the
            EMSL at Pacific Northwest National Laboratory, a multiprogram
            national laboratory, operated for the U.S. Department of Energy
            by Battelle under Contract Number DE-AC05-76RL01830. Support
            for this work was provided by the Department of Energy Office
            of Biological and Environmental Research, Office of Basic
            Energy Sciences, and the Office of Advanced Scientific Computing.


           Job information
           ---------------

    hostname        = hrcnode066
    program         = nwchem_mpich
    date            = Wed May 27 17:29:06 2020

    compiled        = Mon_Jul_02_10:07:05_2018
    source          = /builddir/build/BUILD/nwchem-6.8.1
    nwchem branch   = 6.8.1
    nwchem revision = v6.8-133-ge032219
    ga revision     = 
    use scalapack   = T
    input           = nwchem_ethaneInput.nw
    prefix          = calc.
    data base       = ./calc.db
    status          = startup
    nproc           =       24
    time left       =     -1s



           Memory information
           ------------------

    heap     =   26214398 doubles =    200.0 Mbytes
    stack    =  131071995 doubles =   1000.0 Mbytes
    global   =  367001600 doubles =   2800.0 Mbytes (distinct from heap & stack)
    total    =  524287993 doubles =   4000.0 Mbytes
    verify   = yes
    hardfail = no 


           Directory information
           ---------------------

  0 permanent = .
  0 scratch   = .




                                NWChem Input Module
                                -------------------


                              B3LYP-D3/def2-SVP/LOOSE
                              -----------------------
  library name resolved from: environment
  library file name is: </usr/share/nwchem/libraries/>
  


 Summary of "cd basis" -> "" (spherical)
 ------------------------------------------------------------------------------
       Tag                 Description            Shells   Functions and Types
 ---------------- ------------------------------  ------  ---------------------
 *                  Weigend Coulomb Fitting           on all atoms 


  library name resolved from: environment
  library file name is: </usr/share/nwchem/libraries/>
  


 Summary of "large" -> "" (spherical)
 ------------------------------------------------------------------------------
       Tag                 Description            Shells   Functions and Types
 ---------------- ------------------------------  ------  ---------------------
 *                         def2-tzvp                  on all atoms 


  library name resolved from: environment
  library file name is: </usr/share/nwchem/libraries/>
  


 Summary of "smaller" -> "" (spherical)
 ------------------------------------------------------------------------------
       Tag                 Description            Shells   Functions and Types
 ---------------- ------------------------------  ------  ---------------------
 *                         def2-sv(p)                 on all atoms 



 Scaling coordinates for geometry "geometry" by  1.889725989
 (inverse scale =  0.529177249)

 D3D symmetry detected

          ------
          auto-z
          ------


                             Geometry "geometry" -> ""
                             -------------------------

 Output coordinates in angstroms (scale by  1.889725989 to convert to a.u.)

  No.       Tag          Charge          X              Y              Z
 ---- ---------------- ---------- -------------- -------------- --------------
    1 C                    6.0000    -0.00000000     0.00000000    -0.76532000
    2 H                    1.0000     0.26425632     0.98621801    -1.16448333
    3 H                    1.0000     0.72196169    -0.72196169    -1.16448333
    4 H                    1.0000    -0.98621801    -0.26425632    -1.16448333
    5 C                    6.0000     0.00000000    -0.00000000     0.76532000
    6 H                    1.0000    -0.26425632    -0.98621801     1.16448333
    7 H                    1.0000     0.98621801     0.26425632     1.16448333
    8 H                    1.0000    -0.72196169     0.72196169     1.16448333

      Atomic Mass 
      ----------- 

      C                 12.000000
      H                  1.007825


 Effective nuclear repulsion energy (a.u.)      42.1058193193

            Nuclear Dipole moment (a.u.) 
            ----------------------------
        X                 Y               Z
 ---------------- ---------------- ----------------
     0.0000000000    -0.0000000000     0.0000000000

      Symmetry information
      --------------------

 Group name             D3d       
 Group number             33
 Group order              12
 No. of unique centers     2

      Symmetry unique atoms

     1    2



                                Z-matrix (autoz)
                                -------- 

 Units are Angstrom for bonds and degrees for angles

      Type          Name      I     J     K     L     M      Value
      ----------- --------  ----- ----- ----- ----- ----- ----------
    1 Stretch                  1     2                       1.09626
    2 Stretch                  1     3                       1.09626
    3 Stretch                  1     4                       1.09626
    4 Stretch                  1     5                       1.53064
    5 Stretch                  5     6                       1.09626
    6 Stretch                  5     7                       1.09626
    7 Stretch                  5     8                       1.09626
    8 Bend                     1     5     6               111.35303
    9 Bend                     1     5     7               111.35303
   10 Bend                     1     5     8               111.35303
   11 Bend                     2     1     3               107.52562
   12 Bend                     2     1     4               107.52562
   13 Bend                     2     1     5               111.35303
   14 Bend                     3     1     4               107.52562
   15 Bend                     3     1     5               111.35303
   16 Bend                     4     1     5               111.35303
   17 Bend                     6     5     7               107.52562
   18 Bend                     6     5     8               107.52562
   19 Bend                     7     5     8               107.52562
   20 Torsion                  2     1     5     6        -180.00000
   21 Torsion                  2     1     5     7         -60.00000
   22 Torsion                  2     1     5     8          60.00000
   23 Torsion                  3     1     5     6         -60.00000
   24 Torsion                  3     1     5     7          60.00000
   25 Torsion                  3     1     5     8        -180.00000
   26 Torsion                  4     1     5     6          60.00000
   27 Torsion                  4     1     5     7        -180.00000
   28 Torsion                  4     1     5     8         -60.00000


            XYZ format geometry
            -------------------
     8
 geometry
 C                    -0.00000000     0.00000000    -0.76532000
 H                     0.26425632     0.98621801    -1.16448333
 H                     0.72196169    -0.72196169    -1.16448333
 H                    -0.98621801    -0.26425632    -1.16448333
 C                     0.00000000    -0.00000000     0.76532000
 H                    -0.26425632    -0.98621801     1.16448333
 H                     0.98621801     0.26425632     1.16448333
 H                    -0.72196169     0.72196169     1.16448333

 ==============================================================================
                                internuclear distances
 ------------------------------------------------------------------------------
       center one      |      center two      | atomic units |  angstroms
 ------------------------------------------------------------------------------
    2 H                |   1 C                |     2.07163  |     1.09626
    3 H                |   1 C                |     2.07163  |     1.09626
    4 H                |   1 C                |     2.07163  |     1.09626
    5 C                |   1 C                |     2.89249  |     1.53064
    6 H                |   5 C                |     2.07163  |     1.09626
    7 H                |   5 C                |     2.07163  |     1.09626
    8 H                |   5 C                |     2.07163  |     1.09626
 ------------------------------------------------------------------------------
                         number of included internuclear distances:          7
 ==============================================================================



 ==============================================================================
                                 internuclear angles
 ------------------------------------------------------------------------------
        center 1       |       center 2       |       center 3       |  degrees
 ------------------------------------------------------------------------------
    2 H                |   1 C                |   3 H                |   107.53
    2 H                |   1 C                |   4 H                |   107.53
    2 H                |   1 C                |   5 C                |   111.35
    3 H                |   1 C                |   4 H                |   107.53
    3 H                |   1 C                |   5 C                |   111.35
    4 H                |   1 C                |   5 C                |   111.35
    1 C                |   5 C                |   6 H                |   111.35
    1 C                |   5 C                |   7 H                |   111.35
    1 C                |   5 C                |   8 H                |   111.35
    6 H                |   5 C                |   7 H                |   107.53
    6 H                |   5 C                |   8 H                |   107.53
    7 H                |   5 C                |   8 H                |   107.53
 ------------------------------------------------------------------------------
                            number of included internuclear angles:         12
 ==============================================================================





                   NWChem Nuclear Hessian and Frequency Analysis
                   ---------------------------------------------

                      Basis "cd basis" -> "cd basis" (spherical)
                      -----
  C (Carbon)
  ----------
            Exponent  Coefficients 
       -------------- ---------------------------------------------------------
  1 S  1.86109163E+03  0.074417
  1 S  6.42993976E+02  0.165396
  1 S  2.35110573E+02  0.557648
  1 S  9.07028894E+01  1.310830
  1 S  3.67794552E+01  2.169468
  1 S  1.56046273E+01  1.766885
  1 S  6.89072940E+00  0.293077

  2 S  3.14788500E+00  1.000000

  3 S  1.47772870E+00  1.000000

  4 S  7.07646600E-01  1.000000

  5 S  3.43012200E-01  1.000000

  6 S  1.66945300E-01  1.000000

  7 P  1.35472892E+01 -0.020648
  7 P  5.46694190E+00 -0.011528

  8 P  2.17517210E+00  1.000000

  9 P  8.58219400E-01  1.000000

 10 P  3.37672000E-01  1.000000

 11 D  5.92872530E+00 -0.022595
 11 D  1.98092090E+00 -0.047683

 12 D  8.05541700E-01  1.000000

 13 D  3.53124400E-01  1.000000

 14 F  1.67556260E+00  0.008880
 14 F  5.99753600E-01  0.006990

 15 G  1.00246000E+00  1.000000

  H (Hydrogen)
  ------------
            Exponent  Coefficients 
       -------------- ---------------------------------------------------------
  1 S  1.56752927E+01  0.018689
  1 S  3.60635780E+00  0.063167
  1 S  1.20800160E+00  0.120461

  2 S  4.72679400E-01  1.000000

  3 S  2.01810000E-01  1.000000

  4 P  2.02813650E+00  1.000000
  4 P  5.35873000E-01  1.000000

  5 D  2.21651240E+00  1.000000



 Summary of "cd basis" -> "cd basis" (spherical)
 ------------------------------------------------------------------------------
       Tag                 Description            Shells   Functions and Types
 ---------------- ------------------------------  ------  ---------------------
 C                  Weigend Coulomb Fitting         15       49   6s4p3d1f1g
 H                  Weigend Coulomb Fitting          5       11   3s1p1d


 CD fit detected


                         NWChem Finite-difference Hessian
                         --------------------------------



                                 NWChem DFT Module
                                 -----------------


                              B3LYP-D3/def2-SVP/LOOSE


                      Basis "ao basis" -> "smaller" (spherical)
                      -----
  C (Carbon)
  ----------
            Exponent  Coefficients 
       -------------- ---------------------------------------------------------
  1 S  1.23840169E+03  0.005457
  1 S  1.86290050E+02  0.040638
  1 S  4.22511763E+01  0.180256
  1 S  1.16765579E+01  0.463151
  1 S  3.59305065E+00  0.440872

  2 S  4.02451474E-01  1.000000

  3 S  1.30901827E-01  1.000000

  4 P  9.46809706E+00  0.038388
  4 P  2.01035451E+00  0.211170
  4 P  5.47710047E-01  0.513282

  5 P  1.52686138E-01  1.000000

  6 D  8.00000000E-01  1.000000

  H (Hydrogen)
  ------------
            Exponent  Coefficients 
       -------------- ---------------------------------------------------------
  1 S  1.30107010E+01  0.019682
  1 S  1.96225720E+00  0.137965
  1 S  4.44537960E-01  0.478319

  2 S  1.21949620E-01  1.000000



 Summary of "ao basis" -> "smaller" (spherical)
 ------------------------------------------------------------------------------
       Tag                 Description            Shells   Functions and Types
 ---------------- ------------------------------  ------  ---------------------
 C                         def2-sv(p)                6       14   3s2p1d
 H                         def2-sv(p)                2        2   2s



  Caching 1-el integrals 
  Rotation of axis 
   Time after variat. SCF:      2.3
   Time prior to 1st pass:      2.3


         Total DFT energy =      -79.759256918283
      One electron energy =     -188.884355911032
           Coulomb energy =       80.088943024200
    Exchange-Corr. energy =      -13.067858535811
 Nuclear repulsion energy =       42.105819319347

    Dispersion correction =       -0.001804814987

 Numeric. integr. density =       17.999996009706

     Total iterative time =      2.2s



                  Occupations of the irreducible representations
                  ----------------------------------------------

                     irrep           alpha         beta
                     --------     --------     --------
                     a1g               3.0          3.0
                     a1u               0.0          0.0
                     a2g               0.0          0.0
                     a2u               2.0          2.0
                     eg                2.0          2.0
                     eu                2.0          2.0


 Saving state for dft with suffix hess
        ./calc.movecs

  
 initial hessian

 zero matrix

  
 atom:   5 xyz: 1(+) wall time:       4.9      date:  Wed May 27 17:29:10 2020


                                 NWChem DFT Module
                                 -----------------


                              B3LYP-D3/def2-SVP/LOOSE



  Caching 1-el integrals 
   Time after variat. SCF:      5.2
   Time prior to 1st pass:      5.2


         Total DFT energy =      -79.759228240335
      One electron energy =     -188.884141092777
           Coulomb energy =       80.088801972808
    Exchange-Corr. energy =      -13.067851452789
 Nuclear repulsion energy =       42.105767157860

    Dispersion correction =       -0.001804825438

 Numeric. integr. density =       18.000002245008

     Total iterative time =      2.2s


  int_init: cando_txs set to always be  F
  intd_init: cando_txs set to always be  F


                         DFT ENERGY GRADIENTS

    atom               coordinates                        gradient
                 x          y          z           x          y          z
   1 C      -0.000000   0.000000  -1.446245   -0.000846   0.000001  -0.006189
   2 H       0.499372   1.863682  -2.200554    0.000000   0.000000   0.000000
   3 H       1.364310  -1.364310  -2.200554    0.000000   0.000000   0.000000
   4 H      -1.863682  -0.499372  -2.200554    0.000000   0.000000   0.000000
   5 C       0.010000  -0.000000   1.446245    0.005911   0.000032   0.006219
   6 H      -0.499372  -1.863682   2.200554    0.000000   0.000000   0.000000
   7 H       1.863682   0.499372   2.200554    0.000000   0.000000   0.000000
   8 H      -1.364310   1.364310   2.200554    0.000000   0.000000   0.000000

 atom:   5 xyz: 1(-) wall time:       7.9      date:  Wed May 27 17:29:13 2020


                                 NWChem DFT Module
                                 -----------------


                              B3LYP-D3/def2-SVP/LOOSE



  Caching 1-el integrals 
   Time after variat. SCF:      8.2
   Time prior to 1st pass:      8.2


         Total DFT energy =      -79.759228525702
      One electron energy =     -188.884140756241
           Coulomb energy =       80.088802064340
    Exchange-Corr. energy =      -13.067851473954
 Nuclear repulsion energy =       42.105766465629

    Dispersion correction =       -0.001804825476

 Numeric. integr. density =       18.000002463798

     Total iterative time =     11.2s


  int_init: cando_txs set to always be  F
  intd_init: cando_txs set to always be  F


                         DFT ENERGY GRADIENTS

    atom               coordinates                        gradient
                 x          y          z           x          y          z
   1 C      -0.000000   0.000000  -1.446245    0.000838   0.000001  -0.006189
   2 H       0.499372   1.863682  -2.200554    0.000000   0.000000   0.000000
   3 H       1.364310  -1.364310  -2.200554    0.000000   0.000000   0.000000
   4 H      -1.863682  -0.499372  -2.200554    0.000000   0.000000   0.000000
   5 C      -0.010000  -0.000000   1.446245   -0.005836   0.000032   0.006218
   6 H      -0.499372  -1.863682   2.200554    0.000000   0.000000   0.000000
   7 H       1.863682   0.499372   2.200554    0.000000   0.000000   0.000000
   8 H      -1.364310   1.364310   2.200554    0.000000   0.000000   0.000000

 atom:   5 xyz: 2(+) wall time:      20.0      date:  Wed May 27 17:29:25 2020


                                 NWChem DFT Module
                                 -----------------


                              B3LYP-D3/def2-SVP/LOOSE



  Caching 1-el integrals 
   Time after variat. SCF:     20.3
   Time prior to 1st pass:     20.3


         Total DFT energy =      -79.759228525785
      One electron energy =     -188.884140756452
           Coulomb energy =       80.088802064575
    Exchange-Corr. energy =      -13.067851474061
 Nuclear repulsion energy =       42.105766465629

    Dispersion correction =       -0.001804825476

 Numeric. integr. density =       18.000002463944

     Total iterative time =      7.0s


  int_init: cando_txs set to always be  F
  intd_init: cando_txs set to always be  F


                         DFT ENERGY GRADIENTS

    atom               coordinates                        gradient
                 x          y          z           x          y          z
   1 C      -0.000000   0.000000  -1.446245   -0.000001  -0.000838  -0.006189
   2 H       0.499372   1.863682  -2.200554    0.000000   0.000000   0.000000
   3 H       1.364310  -1.364310  -2.200554    0.000000   0.000000   0.000000
   4 H      -1.863682  -0.499372  -2.200554    0.000000   0.000000   0.000000
   5 C       0.000000   0.010000   1.446245   -0.000032   0.005836   0.006218
   6 H      -0.499372  -1.863682   2.200554    0.000000   0.000000   0.000000
   7 H       1.863682   0.499372   2.200554    0.000000   0.000000   0.000000
   8 H      -1.364310   1.364310   2.200554    0.000000   0.000000   0.000000

 atom:   5 xyz: 2(-) wall time:      27.8      date:  Wed May 27 17:29:33 2020


                                 NWChem DFT Module
                                 -----------------


                              B3LYP-D3/def2-SVP/LOOSE



  Caching 1-el integrals 
   Time after variat. SCF:     29.2
   Time prior to 1st pass:     29.2


         Total DFT energy =      -79.759228240239
      One electron energy =     -188.884141092242
           Coulomb energy =       80.088801972224
    Exchange-Corr. energy =      -13.067851452644
 Nuclear repulsion energy =       42.105767157860

    Dispersion correction =       -0.001804825438

 Numeric. integr. density =       18.000002244850

     Total iterative time =     14.8s


  int_init: cando_txs set to always be  F
  intd_init: cando_txs set to always be  F


                         DFT ENERGY GRADIENTS

    atom               coordinates                        gradient
                 x          y          z           x          y          z
   1 C      -0.000000   0.000000  -1.446245   -0.000001   0.000846  -0.006189
   2 H       0.499372   1.863682  -2.200554    0.000000   0.000000   0.000000
   3 H       1.364310  -1.364310  -2.200554    0.000000   0.000000   0.000000
   4 H      -1.863682  -0.499372  -2.200554    0.000000   0.000000   0.000000
   5 C       0.000000  -0.010000   1.446245   -0.000032  -0.005911   0.006219
   6 H      -0.499372  -1.863682   2.200554    0.000000   0.000000   0.000000
   7 H       1.863682   0.499372   2.200554    0.000000   0.000000   0.000000
   8 H      -1.364310   1.364310   2.200554    0.000000   0.000000   0.000000

 atom:   5 xyz: 3(+) wall time:      48.9      date:  Wed May 27 17:29:54 2020


                                 NWChem DFT Module
                                 -----------------


                              B3LYP-D3/def2-SVP/LOOSE



  Caching 1-el integrals 
   Time after variat. SCF:     50.9
   Time prior to 1st pass:     50.9


         Total DFT energy =      -79.759172016381
      One electron energy =     -188.811249647095
           Coulomb energy =       80.052934147472
    Exchange-Corr. energy =      -13.067867142151
 Nuclear repulsion energy =       42.068819129085

    Dispersion correction =       -0.001808503692

 Numeric. integr. density =       18.000002221795

     Total iterative time =      1.6s


  int_init: cando_txs set to always be  F
  intd_init: cando_txs set to always be  F


                         DFT ENERGY GRADIENTS

    atom               coordinates                        gradient
                 x          y          z           x          y          z
   1 C      -0.000000   0.000000  -1.446245   -0.000002   0.000002  -0.008227
   2 H       0.499372   1.863682  -2.200554    0.000000   0.000000   0.000000
   3 H       1.364310  -1.364310  -2.200554    0.000000   0.000000   0.000000
   4 H      -1.863682  -0.499372  -2.200554    0.000000   0.000000   0.000000
   5 C       0.000000  -0.000000   1.456245    0.000003  -0.000003   0.010974
   6 H      -0.499372  -1.863682   2.200554    0.000000   0.000000   0.000000
   7 H       1.863682   0.499372   2.200554    0.000000   0.000000   0.000000
   8 H      -1.364310   1.364310   2.200554    0.000000   0.000000   0.000000

 atom:   5 xyz: 3(-) wall time:      53.1      date:  Wed May 27 17:29:59 2020


                                 NWChem DFT Module
                                 -----------------


                              B3LYP-D3/def2-SVP/LOOSE



  Caching 1-el integrals 
   Time after variat. SCF:     57.8
   Time prior to 1st pass:     57.8


         Total DFT energy =      -79.759295417812
      One electron energy =     -188.957647841482
           Coulomb energy =       80.124962011506
    Exchange-Corr. energy =      -13.067837956433
 Nuclear repulsion energy =       42.143029545555

    Dispersion correction =       -0.001801176958

 Numeric. integr. density =       18.000002456841

     Total iterative time =      6.2s


  int_init: cando_txs set to always be  F
  intd_init: cando_txs set to always be  F


                         DFT ENERGY GRADIENTS

    atom               coordinates                        gradient
                 x          y          z           x          y          z
   1 C      -0.000000   0.000000  -1.446245   -0.000003   0.000003  -0.004072
   2 H       0.499372   1.863682  -2.200554    0.000000   0.000000   0.000000
   3 H       1.364310  -1.364310  -2.200554    0.000000   0.000000   0.000000
   4 H      -1.863682  -0.499372  -2.200554    0.000000   0.000000   0.000000
   5 C       0.000000  -0.000000   1.436245    0.000002  -0.000002   0.001296
   6 H      -0.499372  -1.863682   2.200554    0.000000   0.000000   0.000000
   7 H       1.863682   0.499372   2.200554    0.000000   0.000000   0.000000
   8 H      -1.364310   1.364310   2.200554    0.000000   0.000000   0.000000

 atom:   8 xyz: 1(+) wall time:      66.5      date:  Wed May 27 17:30:12 2020


                                 NWChem DFT Module
                                 -----------------


                              B3LYP-D3/def2-SVP/LOOSE



  Caching 1-el integrals 
   Time after variat. SCF:     70.9
   Time prior to 1st pass:     70.9


         Total DFT energy =      -79.759210027900
      One electron energy =     -188.906638381056
           Coulomb energy =       80.100768285347
    Exchange-Corr. energy =      -13.069091424439
 Nuclear repulsion energy =       42.117555517454

    Dispersion correction =       -0.001804025207

 Numeric. integr. density =       18.000002393677

     Total iterative time =     16.0s


  int_init: cando_txs set to always be  F
  intd_init: cando_txs set to always be  F


                         DFT ENERGY GRADIENTS

    atom               coordinates                        gradient
                 x          y          z           x          y          z
   1 C      -0.000000   0.000000  -1.446245    0.000012  -0.000019  -0.006187
   2 H       0.499372   1.863682  -2.200554    0.000000   0.000000   0.000000
   3 H       1.364310  -1.364310  -2.200554   -0.003890   0.003900   0.002258
   4 H      -1.863682  -0.499372  -2.200554    0.005340   0.001425   0.002268
   5 C       0.000000  -0.000000   1.446245   -0.001710   0.001238   0.006846
   6 H      -0.499372  -1.863682   2.200554    0.000000   0.000000   0.000000
   7 H       1.863682   0.499372   2.200554   -0.005499  -0.001232  -0.002162
   8 H      -1.354310   1.364310   2.200554    0.005680  -0.005253  -0.002982

 atom:   8 xyz: 1(-) wall time:      89.3      date:  Wed May 27 17:30:35 2020


                                 NWChem DFT Module
                                 -----------------


                              B3LYP-D3/def2-SVP/LOOSE



  Caching 1-el integrals 
   Time after variat. SCF:     90.5
   Time prior to 1st pass:     90.5


         Total DFT energy =      -79.759288129391
      One electron energy =     -188.861980324067
           Coulomb energy =       80.077015949729
    Exchange-Corr. energy =      -13.066616977472
 Nuclear repulsion energy =       42.094098840553

    Dispersion correction =       -0.001805618134

 Numeric. integr. density =       18.000002326698

     Total iterative time =      8.6s


  int_init: cando_txs set to always be  F
  intd_init: cando_txs set to always be  F


                         DFT ENERGY GRADIENTS

    atom               coordinates                        gradient
                 x          y          z           x          y          z
   1 C      -0.000000   0.000000  -1.446245   -0.000017   0.000024  -0.006187
   2 H       0.499372   1.863682  -2.200554    0.000000   0.000000   0.000000
   3 H       1.364310  -1.364310  -2.200554   -0.003916   0.003905   0.002270
   4 H      -1.863682  -0.499372  -2.200554    0.005326   0.001432   0.002264
   5 C       0.000000  -0.000000   1.446245    0.001698  -0.001210   0.005546
   6 H      -0.499372  -1.863682   2.200554    0.000000   0.000000   0.000000
   7 H       1.863682   0.499372   2.200554   -0.005168  -0.001624  -0.002370
   8 H      -1.374310   1.364310   2.200554    0.002143  -0.002586  -0.001564

 atom:   8 xyz: 2(+) wall time:     102.9      date:  Wed May 27 17:30:48 2020


                                 NWChem DFT Module
                                 -----------------


                              B3LYP-D3/def2-SVP/LOOSE



  Caching 1-el integrals 
   Time after variat. SCF:    103.5
   Time prior to 1st pass:    103.5


         Total DFT energy =      -79.759288129388
      One electron energy =     -188.861980323935
           Coulomb energy =       80.077015949584
    Exchange-Corr. energy =      -13.066616977456
 Nuclear repulsion energy =       42.094098840553

    Dispersion correction =       -0.001805618134

 Numeric. integr. density =       18.000002326692

     Total iterative time =      9.8s


  int_init: cando_txs set to always be  F
  intd_init: cando_txs set to always be  F


                         DFT ENERGY GRADIENTS

    atom               coordinates                        gradient
                 x          y          z           x          y          z
   1 C      -0.000000   0.000000  -1.446245   -0.000024   0.000017  -0.006187
   2 H       0.499372   1.863682  -2.200554    0.000000   0.000000   0.000000
   3 H       1.364310  -1.364310  -2.200554   -0.003905   0.003916   0.002270
   4 H      -1.863682  -0.499372  -2.200554    0.005333   0.001427   0.002262
   5 C       0.000000  -0.000000   1.446245    0.001210  -0.001698   0.005546
   6 H      -0.499372  -1.863682   2.200554    0.000000   0.000000   0.000000
   7 H       1.863682   0.499372   2.200554   -0.005391  -0.001361  -0.002221
   8 H      -1.364310   1.374310   2.200554    0.002586  -0.002143  -0.001564

 atom:   8 xyz: 2(-) wall time:     113.9      date:  Wed May 27 17:30:59 2020


                                 NWChem DFT Module
                                 -----------------


                              B3LYP-D3/def2-SVP/LOOSE



  Caching 1-el integrals 
   Time after variat. SCF:    114.2
   Time prior to 1st pass:    114.2


         Total DFT energy =      -79.759210027905
      One electron energy =     -188.906638381017
           Coulomb energy =       80.100768285304
    Exchange-Corr. energy =      -13.069091424439
 Nuclear repulsion energy =       42.117555517454

    Dispersion correction =       -0.001804025207

 Numeric. integr. density =       18.000002393684

     Total iterative time =      4.3s


  int_init: cando_txs set to always be  F
  intd_init: cando_txs set to always be  F


                         DFT ENERGY GRADIENTS

    atom               coordinates                        gradient
                 x          y          z           x          y          z
   1 C      -0.000000   0.000000  -1.446245    0.000019  -0.000012  -0.006187
   2 H       0.499372   1.863682  -2.200554    0.000000   0.000000   0.000000
   3 H       1.364310  -1.364310  -2.200554   -0.003900   0.003890   0.002258
   4 H      -1.863682  -0.499372  -2.200554    0.005333   0.001430   0.002270
   5 C       0.000000  -0.000000   1.446245   -0.001238   0.001710   0.006846
   6 H      -0.499372  -1.863682   2.200554    0.000000   0.000000   0.000000
   7 H       1.863682   0.499372   2.200554   -0.005273  -0.001497  -0.002311
   8 H      -1.364310   1.354310   2.200554    0.005253  -0.005680  -0.002982

 atom:   8 xyz: 3(+) wall time:     120.3      date:  Wed May 27 17:31:06 2020


                                 NWChem DFT Module
                                 -----------------


                              B3LYP-D3/def2-SVP/LOOSE



  Caching 1-el integrals 
   Time after variat. SCF:    120.6
   Time prior to 1st pass:    120.6


         Total DFT energy =      -79.759276144672
      One electron energy =     -188.866308857899
           Coulomb energy =       80.079358047605
    Exchange-Corr. energy =      -13.067105567601
 Nuclear repulsion energy =       42.096584844853

    Dispersion correction =       -0.001804611630

 Numeric. integr. density =       18.000002302429

     Total iterative time =      4.2s


  int_init: cando_txs set to always be  F
  intd_init: cando_txs set to always be  F


                         DFT ENERGY GRADIENTS

    atom               coordinates                        gradient
                 x          y          z           x          y          z
   1 C      -0.000000   0.000000  -1.446245    0.000227  -0.000227  -0.006310
   2 H       0.499372   1.863682  -2.200554    0.000000   0.000000   0.000000
   3 H       1.364310  -1.364310  -2.200554   -0.003908   0.003908   0.002195
   4 H      -1.863682  -0.499372  -2.200554    0.005329   0.001426   0.002279
   5 C       0.000000  -0.000000   1.446245    0.000639  -0.000639   0.005386
   6 H      -0.499372  -1.863682   2.200554    0.000000   0.000000   0.000000
   7 H       1.863682   0.499372   2.200554   -0.005398  -0.001338  -0.002225
   8 H      -1.364310   1.364310   2.210554    0.003197  -0.003197  -0.001380

 atom:   8 xyz: 3(-) wall time:     125.4      date:  Wed May 27 17:31:11 2020


                                 NWChem DFT Module
                                 -----------------


                              B3LYP-D3/def2-SVP/LOOSE



  Caching 1-el integrals 
   Time after variat. SCF:    127.7
   Time prior to 1st pass:    127.7


         Total DFT energy =      -79.759230894448
      One electron energy =     -188.902245041962
           Coulomb energy =       80.098393072282
    Exchange-Corr. energy =      -13.068596286747
 Nuclear repulsion energy =       42.115022352514

    Dispersion correction =       -0.001804990536

 Numeric. integr. density =       18.000002418903

     Total iterative time =      2.8s


  int_init: cando_txs set to always be  F
  intd_init: cando_txs set to always be  F


                         DFT ENERGY GRADIENTS

    atom               coordinates                        gradient
                 x          y          z           x          y          z
   1 C      -0.000000   0.000000  -1.446245   -0.000234   0.000234  -0.006061
   2 H       0.499372   1.863682  -2.200554    0.000000   0.000000   0.000000
   3 H       1.364310  -1.364310  -2.200554   -0.003898   0.003898   0.002333
   4 H      -1.863682  -0.499372  -2.200554    0.005336   0.001431   0.002253
   5 C       0.000000  -0.000000   1.446245   -0.000638   0.000638   0.006980
   6 H      -0.499372  -1.863682   2.200554    0.000000   0.000000   0.000000
   7 H       1.863682   0.499372   2.200554   -0.005268  -0.001520  -0.002307
   8 H      -1.364310   1.364310   2.190554    0.004613  -0.004613  -0.003144

  
  finite difference hessian delta =   1.00000000000000002E-002

              1        2        3        4        5        6        7        8
    1    0.5873   0.0000   0.0000  -0.0644  -0.0612   0.0234  -0.1704   0.1224
    2    0.0000   0.5873  -0.0000  -0.0612  -0.2764   0.0873   0.1224  -0.1704
    3    0.0000  -0.0000   0.4839   0.0238   0.0888  -0.0797   0.0650  -0.0650
    4   -0.0644  -0.0612   0.0238   0.0614   0.0667  -0.0259   0.0069   0.0195
    5   -0.0612  -0.2764   0.0888   0.0667   0.2923  -0.0968  -0.0060  -0.0166
    6    0.0234   0.0873  -0.0797  -0.0259  -0.0968   0.0882  -0.0045  -0.0103
    7   -0.1704   0.1224   0.0650   0.0069  -0.0060  -0.0045   0.1769  -0.1333
    8    0.1224  -0.1704  -0.0650   0.0195  -0.0166  -0.0103  -0.1333   0.1769
    9    0.0639  -0.0639  -0.0797  -0.0091   0.0066   0.0041  -0.0708   0.0708
   10   -0.2764  -0.0612  -0.0888  -0.0049  -0.0008  -0.0012  -0.0166  -0.0060
   11   -0.0612  -0.0644  -0.0238  -0.0263  -0.0049  -0.0112   0.0195   0.0069
   12   -0.0873  -0.0234  -0.0797   0.0112   0.0012   0.0041   0.0103   0.0045
   13   -0.0842  -0.0000   0.0000  -0.0004   0.0011   0.0084   0.0014  -0.0021
   14   -0.0000  -0.0842   0.0000   0.0011   0.0033   0.0315  -0.0021   0.0014
   15    0.0000  -0.0000  -0.2077  -0.0000  -0.0000  -0.0125  -0.0000   0.0000
   16   -0.0004   0.0011  -0.0000   0.0011   0.0001  -0.0002  -0.0001  -0.0004
   17    0.0011   0.0033  -0.0000   0.0001   0.0015  -0.0008  -0.0000   0.0007
   18    0.0084   0.0315  -0.0125  -0.0002  -0.0008  -0.0069   0.0004  -0.0002
   19    0.0033   0.0011   0.0000   0.0003   0.0003  -0.0004   0.0007  -0.0000
   20    0.0011  -0.0004   0.0000   0.0007   0.0003   0.0001  -0.0004  -0.0001
   21   -0.0315  -0.0084  -0.0125  -0.0001   0.0004   0.0013   0.0002  -0.0004
   22    0.0014  -0.0021  -0.0000  -0.0001  -0.0000   0.0004   0.0013  -0.0003
   23   -0.0021   0.0014   0.0000  -0.0004   0.0007  -0.0002  -0.0003   0.0013
   24    0.0230  -0.0230  -0.0125   0.0003   0.0003   0.0013  -0.0005   0.0005

              9       10       11       12       13       14       15       16
    1    0.0639  -0.2764  -0.0612  -0.0873  -0.0842  -0.0000   0.0000  -0.0004
    2   -0.0639  -0.0612  -0.0644  -0.0234  -0.0000  -0.0842  -0.0000   0.0011
    3   -0.0797  -0.0888  -0.0238  -0.0797   0.0000   0.0000  -0.2077  -0.0000
    4   -0.0091  -0.0049  -0.0263   0.0112  -0.0004   0.0011  -0.0000   0.0011
    5    0.0066  -0.0008  -0.0049   0.0012   0.0011   0.0033  -0.0000   0.0001
    6    0.0041  -0.0012  -0.0112   0.0041   0.0084   0.0315  -0.0125  -0.0002
    7   -0.0708  -0.0166   0.0195   0.0103   0.0014  -0.0021  -0.0000  -0.0001
    8    0.0708  -0.0060   0.0069   0.0045  -0.0021   0.0014   0.0000  -0.0004
    9    0.0882  -0.0066   0.0091   0.0041   0.0230  -0.0230  -0.0125   0.0003
   10   -0.0066   0.2923   0.0667   0.0968   0.0033   0.0011   0.0000   0.0003
   11    0.0091   0.0667   0.0614   0.0259   0.0011  -0.0004   0.0000   0.0007
   12    0.0041   0.0968   0.0259   0.0882  -0.0315  -0.0084  -0.0125  -0.0001
   13    0.0230   0.0033   0.0011  -0.0315   0.5873   0.0000   0.0000  -0.0644
   14   -0.0230   0.0011  -0.0004  -0.0084   0.0000   0.5873  -0.0000  -0.0612
   15   -0.0125   0.0000   0.0000  -0.0125   0.0000  -0.0000   0.4839   0.0238
   16    0.0003   0.0003   0.0007  -0.0001  -0.0644  -0.0612   0.0238   0.0614
   17    0.0003   0.0003   0.0003   0.0004  -0.0612  -0.2764   0.0888   0.0667
   18    0.0013  -0.0004   0.0001   0.0013   0.0234   0.0873  -0.0797  -0.0259
   19   -0.0003   0.0015   0.0001   0.0008  -0.2764  -0.0612  -0.0888  -0.0049
   20   -0.0003   0.0001   0.0011   0.0002  -0.0612  -0.0644  -0.0238  -0.0263
   21    0.0013   0.0008   0.0002  -0.0069  -0.0873  -0.0234  -0.0797   0.0112
   22   -0.0005   0.0007  -0.0004   0.0002  -0.1704   0.1224   0.0650   0.0069
   23    0.0005  -0.0000  -0.0001  -0.0004   0.1224  -0.1704  -0.0650   0.0195
   24   -0.0069  -0.0003  -0.0003   0.0013   0.0639  -0.0639  -0.0797  -0.0091

             17       18       19       20       21       22       23       24
    1    0.0011   0.0084   0.0033   0.0011  -0.0315   0.0014  -0.0021   0.0230
    2    0.0033   0.0315   0.0011  -0.0004  -0.0084  -0.0021   0.0014  -0.0230
    3   -0.0000  -0.0125   0.0000   0.0000  -0.0125  -0.0000   0.0000  -0.0125
    4    0.0001  -0.0002   0.0003   0.0007  -0.0001  -0.0001  -0.0004   0.0003
    5    0.0015  -0.0008   0.0003   0.0003   0.0004  -0.0000   0.0007   0.0003
    6   -0.0008  -0.0069  -0.0004   0.0001   0.0013   0.0004  -0.0002   0.0013
    7   -0.0000   0.0004   0.0007  -0.0004   0.0002   0.0013  -0.0003  -0.0005
    8    0.0007  -0.0002  -0.0000  -0.0001  -0.0004  -0.0003   0.0013   0.0005
    9    0.0003   0.0013  -0.0003  -0.0003   0.0013  -0.0005   0.0005  -0.0069
   10    0.0003  -0.0004   0.0015   0.0001   0.0008   0.0007  -0.0000  -0.0003
   11    0.0003   0.0001   0.0001   0.0011   0.0002  -0.0004  -0.0001  -0.0003
   12    0.0004   0.0013   0.0008   0.0002  -0.0069   0.0002  -0.0004   0.0013
   13   -0.0612   0.0234  -0.2764  -0.0612  -0.0873  -0.1704   0.1224   0.0639
   14   -0.2764   0.0873  -0.0612  -0.0644  -0.0234   0.1224  -0.1704  -0.0639
   15    0.0888  -0.0797  -0.0888  -0.0238  -0.0797   0.0650  -0.0650  -0.0797
   16    0.0667  -0.0259  -0.0049  -0.0263   0.0112   0.0069   0.0195  -0.0091
   17    0.2923  -0.0968  -0.0008  -0.0049   0.0012  -0.0060  -0.0166   0.0066
   18   -0.0968   0.0882  -0.0012  -0.0112   0.0041  -0.0045  -0.0103   0.0041
   19   -0.0008  -0.0012   0.2923   0.0667   0.0968  -0.0166  -0.0060  -0.0066
   20   -0.0049  -0.0112   0.0667   0.0614   0.0259   0.0195   0.0069   0.0091
   21    0.0012   0.0041   0.0968   0.0259   0.0882   0.0103   0.0045   0.0041
   22   -0.0060  -0.0045  -0.0166   0.0195   0.0103   0.1769  -0.1333  -0.0708
   23   -0.0166  -0.0103  -0.0060   0.0069   0.0045  -0.1333   0.1769   0.0708
   24    0.0066   0.0041  -0.0066   0.0091   0.0041  -0.0708   0.0708   0.0882
  

  finite difference derivative dipole; delta =   1.00000000000000002E-002

  
  
 X vector of derivative dipole (au) [debye/angstrom]
 d_dipole_x/<atom=   1,x> =     0.0714     [    0.3431]
 d_dipole_x/<atom=   1,y> =     0.0000     [    0.0000]
 d_dipole_x/<atom=   1,z> =     0.0000     [    0.0000]
 d_dipole_x/<atom=   2,x> =     0.0579     [    0.2782]
 d_dipole_x/<atom=   2,y> =    -0.0481     [   -0.2312]
 d_dipole_x/<atom=   2,z> =     0.0153     [    0.0736]
 d_dipole_x/<atom=   3,x> =    -0.0255     [   -0.1223]
 d_dipole_x/<atom=   3,y> =     0.0963     [    0.4624]
 d_dipole_x/<atom=   3,z> =     0.0418     [    0.2010]
 d_dipole_x/<atom=   4,x> =    -0.1088     [   -0.5227]
 d_dipole_x/<atom=   4,y> =    -0.0481     [   -0.2312]
 d_dipole_x/<atom=   4,z> =    -0.0572     [   -0.2746]
 d_dipole_x/<atom=   5,x> =     0.0714     [    0.3431]
 d_dipole_x/<atom=   5,y> =     0.0000     [    0.0000]
 d_dipole_x/<atom=   5,z> =     0.0000     [    0.0000]
 d_dipole_x/<atom=   6,x> =     0.0579     [    0.2782]
 d_dipole_x/<atom=   6,y> =    -0.0481     [   -0.2312]
 d_dipole_x/<atom=   6,z> =     0.0153     [    0.0736]
 d_dipole_x/<atom=   7,x> =    -0.1088     [   -0.5227]
 d_dipole_x/<atom=   7,y> =    -0.0481     [   -0.2312]
 d_dipole_x/<atom=   7,z> =    -0.0572     [   -0.2746]
 d_dipole_x/<atom=   8,x> =    -0.0255     [   -0.1223]
 d_dipole_x/<atom=   8,y> =     0.0963     [    0.4624]
 d_dipole_x/<atom=   8,z> =     0.0418     [    0.2010]
  
 Y vector of derivative dipole (au) [debye/angstrom]
 d_dipole_y/<atom=   1,x> =     0.0000     [    0.0000]
 d_dipole_y/<atom=   1,y> =     0.0714     [    0.3431]
 d_dipole_y/<atom=   1,z> =    -0.0000     [   -0.0000]
 d_dipole_y/<atom=   2,x> =    -0.0481     [   -0.2312]
 d_dipole_y/<atom=   2,y> =    -0.1088     [   -0.5227]
 d_dipole_y/<atom=   2,z> =     0.0572     [    0.2746]
 d_dipole_y/<atom=   3,x> =     0.0963     [    0.4624]
 d_dipole_y/<atom=   3,y> =    -0.0255     [   -0.1223]
 d_dipole_y/<atom=   3,z> =    -0.0418     [   -0.2010]
 d_dipole_y/<atom=   4,x> =    -0.0481     [   -0.2312]
 d_dipole_y/<atom=   4,y> =     0.0579     [    0.2782]
 d_dipole_y/<atom=   4,z> =    -0.0153     [   -0.0736]
 d_dipole_y/<atom=   5,x> =     0.0000     [    0.0000]
 d_dipole_y/<atom=   5,y> =     0.0714     [    0.3431]
 d_dipole_y/<atom=   5,z> =     0.0000     [    0.0000]
 d_dipole_y/<atom=   6,x> =    -0.0481     [   -0.2312]
 d_dipole_y/<atom=   6,y> =    -0.1088     [   -0.5227]
 d_dipole_y/<atom=   6,z> =     0.0572     [    0.2746]
 d_dipole_y/<atom=   7,x> =    -0.0481     [   -0.2312]
 d_dipole_y/<atom=   7,y> =     0.0579     [    0.2782]
 d_dipole_y/<atom=   7,z> =    -0.0153     [   -0.0736]
 d_dipole_y/<atom=   8,x> =     0.0963     [    0.4624]
 d_dipole_y/<atom=   8,y> =    -0.0255     [   -0.1223]
 d_dipole_y/<atom=   8,z> =    -0.0418     [   -0.2010]
  
 Z vector of derivative dipole (au) [debye/angstrom]
 d_dipole_z/<atom=   1,x> =     0.0000     [    0.0000]
 d_dipole_z/<atom=   1,y> =     0.0000     [    0.0000]
 d_dipole_z/<atom=   1,z> =     0.0801     [    0.3848]
 d_dipole_z/<atom=   2,x> =     0.0238     [    0.1143]
 d_dipole_z/<atom=   2,y> =     0.0888     [    0.4265]
 d_dipole_z/<atom=   2,z> =    -0.0266     [   -0.1276]
 d_dipole_z/<atom=   3,x> =     0.0650     [    0.3122]
 d_dipole_z/<atom=   3,y> =    -0.0650     [   -0.3122]
 d_dipole_z/<atom=   3,z> =    -0.0266     [   -0.1276]
 d_dipole_z/<atom=   4,x> =    -0.0888     [   -0.4265]
 d_dipole_z/<atom=   4,y> =    -0.0238     [   -0.1143]
 d_dipole_z/<atom=   4,z> =    -0.0266     [   -0.1276]
 d_dipole_z/<atom=   5,x> =     0.0000     [    0.0000]
 d_dipole_z/<atom=   5,y> =     0.0000     [    0.0000]
 d_dipole_z/<atom=   5,z> =     0.0801     [    0.3848]
 d_dipole_z/<atom=   6,x> =     0.0238     [    0.1143]
 d_dipole_z/<atom=   6,y> =     0.0888     [    0.4265]
 d_dipole_z/<atom=   6,z> =    -0.0266     [   -0.1276]
 d_dipole_z/<atom=   7,x> =    -0.0888     [   -0.4265]
 d_dipole_z/<atom=   7,y> =    -0.0238     [   -0.1143]
 d_dipole_z/<atom=   7,z> =    -0.0266     [   -0.1276]
 d_dipole_z/<atom=   8,x> =     0.0650     [    0.3122]
 d_dipole_z/<atom=   8,y> =    -0.0650     [   -0.3122]
 d_dipole_z/<atom=   8,z> =    -0.0266     [   -0.1276]
  
  
  stpr_wrt_fd_from_sq: overwrite of existing file:./calc.hess
 stpr_wrt_fd_dipole: overwrite of existing file./calc.fd_ddipole
  triangle hessian written to ./calc.hess
  derivative dipole written to ./calc.fd_ddipole

 Deleting state for dft with suffix hess
        ./calc.movecs



  Vibrational analysis via the FX method 

  See chapter 2 in "Molecular Vibrations" by Wilson, Decius and Cross

  Vib: Default input used 

  Nuclear Hessian passed symmetry test 



 ---------------------------- Atom information ----------------------------
     atom    #        X              Y              Z            mass
 --------------------------------------------------------------------------
    C        1 -3.9183145D-39  2.9387359D-39 -1.4462451D+00  1.2000000D+01
    H        2  4.9937204D-01  1.8636818D+00 -2.2005544D+00  1.0078250D+00
    H        3  1.3643098D+00 -1.3643098D+00 -2.2005544D+00  1.0078250D+00
    H        4 -1.8636818D+00 -4.9937204D-01 -2.2005544D+00  1.0078250D+00
    C        5  4.8978931D-39 -1.9591573D-39  1.4462451D+00  1.2000000D+01
    H        6 -4.9937204D-01 -1.8636818D+00  2.2005544D+00  1.0078250D+00
    H        7  1.8636818D+00  4.9937204D-01  2.2005544D+00  1.0078250D+00
    H        8 -1.3643098D+00  1.3643098D+00  2.2005544D+00  1.0078250D+00
 --------------------------------------------------------------------------




          ----------------------------------------------------
          MASS-WEIGHTED NUCLEAR HESSIAN (Hartree/Bohr/Bohr/Kamu)
          ----------------------------------------------------


               1            2            3            4            5            6            7            8            9           10
   ----- ----- ----- ----- -----
    1    4.89457D+01
    2    5.40407D-16  4.89457D+01
    3    7.05861D-20 -9.41148D-20  4.03252D+01
    4   -1.85158D+01 -1.75960D+01  6.84557D+00  6.08987D+01
    5   -1.75960D+01 -7.94700D+01  2.55480D+01  6.61568D+01  2.90073D+02
    6    6.72330D+00  2.50917D+01 -2.29090D+01 -2.57254D+01 -9.60085D+01  8.75167D+01
    7   -4.89929D+01  3.51919D+01  1.87024D+01  6.80699D+00 -5.91952D+00 -4.50945D+00  1.75486D+02
    8    3.51919D+01 -4.89929D+01 -1.87024D+01  1.93866D+01 -1.65186D+01 -1.01921D+01 -1.32314D+02  1.75486D+02
    9    1.83684D+01 -1.83684D+01 -2.29090D+01 -9.00136D+00  6.57192D+00  4.09754D+00 -7.02831D+01  7.02831D+01  8.75167D+01
   10   -7.94700D+01 -1.75960D+01 -2.55480D+01 -4.85582D+00 -8.14004D-01 -1.19077D+00 -1.65186D+01 -5.91952D+00 -6.57192D+00  2.90073D+02
   11   -1.75960D+01 -1.85158D+01 -6.84557D+00 -2.61201D+01 -4.85582D+00 -1.10814D+01  1.93866D+01  6.80699D+00  9.00136D+00  6.61568D+01
   12   -2.50917D+01 -6.72330D+00 -2.29090D+01  1.10814D+01  1.19077D+00  4.09754D+00  1.01921D+01  4.50945D+00  4.09754D+00  9.60085D+01
   13   -7.01964D+00 -2.29428D-16  1.17643D-20 -1.23631D-01  3.08735D-01  2.42504D+00  4.11113D-01 -6.17469D-01  6.62533D+00  9.45857D-01
   14   -2.29428D-16 -7.01964D+00  0.00000D+00  3.08735D-01  9.45857D-01  9.05037D+00 -6.17469D-01  4.11113D-01 -6.62533D+00  3.08735D-01
   15    0.00000D+00 -1.17643D-20 -1.73102D+01 -1.08703D-03 -4.05685D-03 -3.58974D+00 -2.96982D-03  2.96982D-03 -3.58974D+00  4.05685D-03
   16   -1.23631D-01  3.08735D-01 -1.08703D-03  1.06177D+00  1.36863D-01 -1.99482D-01 -1.16362D-01 -4.16601D-01  2.59729D-01  2.82470D-01
   17    3.08735D-01  9.45857D-01 -4.05685D-03  1.36863D-01  1.53588D+00 -7.44478D-01 -4.39309D-02  6.81302D-01  3.38865D-01  2.74197D-01
   18    2.42504D+00  9.05037D+00 -3.58974D+00 -1.99482D-01 -7.44478D-01 -6.86333D+00  3.94365D-01 -1.63601D-01  1.29439D+00 -4.23330D-01
   19    9.45857D-01  3.08735D-01  4.05685D-03  2.82470D-01  2.74197D-01 -4.23330D-01  6.81302D-01 -4.39309D-02 -3.38865D-01  1.53588D+00
   20    3.08735D-01 -1.23631D-01  1.08703D-03  6.46866D-01  2.82470D-01  5.54998D-02 -4.16601D-01 -1.16362D-01 -2.59729D-01  1.36863D-01
   21   -9.05037D+00 -2.42504D+00 -3.58974D+00 -5.54998D-02  4.23330D-01  1.29439D+00  1.63601D-01 -3.94365D-01  1.29439D+00  7.44478D-01
   22    4.11113D-01 -6.17469D-01 -2.96982D-03 -1.16362D-01 -4.39309D-02  3.94365D-01  1.29883D+00 -2.73726D-01 -5.44995D-01  6.81302D-01
   23   -6.17469D-01  4.11113D-01  2.96982D-03 -4.16601D-01  6.81302D-01 -1.63601D-01 -2.73726D-01  1.29883D+00  5.44995D-01 -4.39309D-02
   24    6.62533D+00 -6.62533D+00 -3.58974D+00  2.59729D-01  3.38865D-01  1.29439D+00 -5.44995D-01  5.44995D-01 -6.86333D+00 -3.38865D-01


              11           12           13           14           15           16           17           18           19           20
   ----- ----- ----- ----- -----
   11    6.08987D+01
   12    2.57254D+01  8.75167D+01
   13    3.08735D-01 -9.05037D+00  4.89457D+01
   14   -1.23631D-01 -2.42504D+00  5.40407D-16  4.89457D+01
   15    1.08703D-03 -3.58974D+00  9.41148D-20 -7.05861D-20  4.03252D+01
   16    6.46866D-01 -5.54998D-02 -1.85158D+01 -1.75960D+01  6.84557D+00  6.08987D+01
   17    2.82470D-01  4.23330D-01 -1.75960D+01 -7.94700D+01  2.55480D+01  6.61568D+01  2.90073D+02
   18    5.54998D-02  1.29439D+00  6.72330D+00  2.50917D+01 -2.29090D+01 -2.57254D+01 -9.60085D+01  8.75167D+01
   19    1.36863D-01  7.44478D-01 -7.94700D+01 -1.75960D+01 -2.55480D+01 -4.85582D+00 -8.14004D-01 -1.19077D+00  2.90073D+02
   20    1.06177D+00  1.99482D-01 -1.75960D+01 -1.85158D+01 -6.84557D+00 -2.61201D+01 -4.85582D+00 -1.10814D+01  6.61568D+01  6.08987D+01
   21    1.99482D-01 -6.86333D+00 -2.50917D+01 -6.72330D+00 -2.29090D+01  1.10814D+01  1.19077D+00  4.09754D+00  9.60085D+01  2.57254D+01
   22   -4.16601D-01  1.63601D-01 -4.89929D+01  3.51919D+01  1.87024D+01  6.80699D+00 -5.91952D+00 -4.50945D+00 -1.65186D+01  1.93866D+01
   23   -1.16362D-01 -3.94365D-01  3.51919D+01 -4.89929D+01 -1.87024D+01  1.93866D+01 -1.65186D+01 -1.01921D+01 -5.91952D+00  6.80699D+00
   24   -2.59729D-01  1.29439D+00  1.83684D+01 -1.83684D+01 -2.29090D+01 -9.00136D+00  6.57192D+00  4.09754D+00 -6.57192D+00  9.00136D+00


              21           22           23           24
   ----- ----- ----- ----- -----
   21    8.75167D+01
   22    1.01921D+01  1.75486D+02
   23    4.50945D+00 -1.32314D+02  1.75486D+02
   24    4.09754D+00 -7.02831D+01  7.02831D+01  8.75167D+01



          -------------------------------------------------
          NORMAL MODE EIGENVECTORS IN CARTESIAN COORDINATES
          -------------------------------------------------
                 (Frequencies expressed in cm-1)

                    1           2           3           4           5           6
 
 Frequency       -272.42     -122.17     -122.17      -81.08      -81.08      -22.12
 
           1     0.00000    -0.10579    -0.10579    -0.12897    -0.12897     0.00000
           2     0.00000     0.10579    -0.10579     0.12897    -0.12897    -0.00000
           3     0.00000    -0.00000    -0.00000     0.00000    -0.00000     0.18243
           4     0.39280    -0.16560    -0.16498    -0.12924    -0.12913     0.00001
           5    -0.10525     0.16452    -0.16390     0.12905    -0.12894     0.00005
           6     0.00000     0.10547    -0.18269     0.00045    -0.00078     0.18245
           7    -0.28755    -0.16413    -0.16537    -0.12898    -0.12920     0.00004
           8    -0.28755     0.16413    -0.16537     0.12898    -0.12920    -0.00004
           9     0.00000    -0.21095    -0.00000    -0.00090    -0.00000     0.18245
          10    -0.10525    -0.16452    -0.16390    -0.12905    -0.12894    -0.00005
          11     0.39280     0.16560    -0.16498     0.12924    -0.12913    -0.00001
          12    -0.00000     0.10547     0.18269     0.00045     0.00078     0.18245
          13    -0.00000     0.10579     0.10579    -0.12897    -0.12897     0.00000
          14    -0.00000    -0.10579     0.10579     0.12897    -0.12897    -0.00000
          15     0.00000     0.00000     0.00000     0.00000    -0.00000     0.18243
          16    -0.39280     0.16560     0.16498    -0.12924    -0.12913     0.00001
          17     0.10525    -0.16452     0.16390     0.12905    -0.12894     0.00005
          18    -0.00000    -0.10547     0.18269     0.00045    -0.00078     0.18245
          19     0.10525     0.16452     0.16390    -0.12905    -0.12894    -0.00005
          20    -0.39280    -0.16560     0.16498     0.12924    -0.12913    -0.00001
          21     0.00000    -0.10547    -0.18269     0.00045     0.00078     0.18245
          22     0.28755     0.16413     0.16537    -0.12898    -0.12920     0.00004
          23     0.28755    -0.16413     0.16537     0.12898    -0.12920    -0.00004
          24    -0.00000     0.21095     0.00000    -0.00090    -0.00000     0.18245

                    7           8           9          10          11          12
 
 Frequency        175.41      797.76      797.76     1016.54     1198.73     1198.73
 
           1    -0.00000    -0.03310    -0.03307     0.00000     0.08656    -0.08657
           2    -0.00000    -0.03307     0.03310     0.00000     0.08657     0.08656
           3     0.00000    -0.00000     0.00000    -0.17523    -0.00000     0.00000
           4     0.39280     0.13936     0.16378    -0.00283    -0.11615     0.18191
           5    -0.10525     0.09673    -0.12136    -0.01056    -0.00227    -0.06802
           6     0.00000     0.42684    -0.24667    -0.20828    -0.34704    -0.20034
           7    -0.28755     0.15490     0.10570    -0.00773    -0.15784     0.02634
           8    -0.28755     0.15481    -0.10582     0.00773    -0.15784    -0.02633
           9    -0.00000     0.00020     0.49299    -0.20828     0.00002     0.40071
          10    -0.10525     0.09683     0.12128     0.01056    -0.00226     0.06802
          11     0.39280     0.13922    -0.16390     0.00283    -0.11616    -0.18190
          12    -0.00000    -0.42704    -0.24632    -0.20828     0.34702    -0.20037
          13    -0.00000    -0.03310    -0.03307    -0.00000    -0.08656     0.08657
          14    -0.00000    -0.03307     0.03310     0.00000    -0.08657    -0.08656
          15    -0.00000     0.00000     0.00000     0.17523    -0.00000    -0.00000
          16     0.39280     0.13936     0.16378     0.00283     0.11615    -0.18191
          17    -0.10525     0.09673    -0.12136     0.01056     0.00227     0.06802
          18     0.00000     0.42684    -0.24667     0.20828     0.34704     0.20034
          19    -0.10525     0.09683     0.12128    -0.01056     0.00226    -0.06802
          20     0.39280     0.13922    -0.16390    -0.00283     0.11616     0.18190
          21    -0.00000    -0.42704    -0.24632     0.20828    -0.34702     0.20037
          22    -0.28755     0.15490     0.10570     0.00773     0.15784    -0.02634
          23    -0.28755     0.15481    -0.10582    -0.00773     0.15784     0.02633
          24     0.00000     0.00020     0.49299     0.20828    -0.00002    -0.40071

                   13          14          15          16          17          18
 
 Frequency       1380.07     1410.72     1476.30     1476.30     1476.64     1476.64
 
           1    -0.00000    -0.00000     0.03337    -0.03337    -0.01232     0.01232
           2     0.00000     0.00000    -0.03337    -0.03337     0.01232     0.01232
           3    -0.08460     0.09820    -0.00000     0.00000     0.00000     0.00000
           4     0.04033    -0.04088    -0.43382     0.21325     0.41345    -0.20253
           5     0.15053    -0.15256     0.05179    -0.16877    -0.04813     0.16279
           6     0.33568    -0.31962    -0.10980    -0.19018     0.14795     0.25626
           7     0.11019    -0.11168     0.08804     0.35309    -0.08559    -0.33625
           8    -0.11019     0.11168    -0.08804     0.35309     0.08559    -0.33625
           9     0.33568    -0.31962     0.21960     0.00000    -0.29591    -0.00000
          10    -0.15053     0.15256    -0.05179    -0.16877     0.04813     0.16279
          11    -0.04033     0.04088     0.43382     0.21326    -0.41345    -0.20253
          12     0.33568    -0.31962    -0.10980     0.19018     0.14795    -0.25626
          13     0.00000     0.00000     0.03337    -0.03337     0.01232    -0.01232
          14    -0.00000     0.00000    -0.03337    -0.03337    -0.01232    -0.01232
          15    -0.08460    -0.09820    -0.00000    -0.00000    -0.00000    -0.00000
          16     0.04033     0.04088    -0.43382     0.21325    -0.41345     0.20253
          17     0.15053     0.15256     0.05179    -0.16877     0.04813    -0.16279
          18     0.33568     0.31962    -0.10980    -0.19018    -0.14795    -0.25626
          19    -0.15053    -0.15256    -0.05179    -0.16877    -0.04813    -0.16279
          20    -0.04033    -0.04088     0.43382     0.21326     0.41345     0.20253
          21     0.33568     0.31962    -0.10980     0.19018    -0.14795     0.25626
          22     0.11019     0.11168     0.08804     0.35309     0.08559     0.33625
          23    -0.11019    -0.11168    -0.08804     0.35309    -0.08559     0.33625
          24     0.33568     0.31962     0.21960     0.00000     0.29591     0.00000

                   19          20          21          22          23          24
 
 Frequency       3085.08     3087.54     3154.96     3154.96     3174.90     3174.90
 
           1     0.00000     0.00000    -0.04469    -0.04468    -0.04462     0.04462
           2    -0.00000    -0.00000    -0.04468     0.04469    -0.04462    -0.04462
           3     0.03629     0.03507    -0.00000     0.00000    -0.00000    -0.00000
           4     0.09695     0.09722     0.10970    -0.07436     0.11050     0.07235
           5     0.36181     0.36282     0.42848    -0.24448     0.42722     0.24433
           6    -0.14084    -0.13930    -0.16906     0.09763    -0.17209    -0.09934
           7     0.26487     0.26560    -0.00695     0.36113    -0.00545    -0.36028
           8    -0.26487    -0.26560    -0.00701    -0.36113    -0.00541     0.36028
           9    -0.14084    -0.13930    -0.00002    -0.19523     0.00001     0.19871
          10    -0.36181    -0.36282     0.42852     0.24441     0.42719    -0.24437
          11    -0.09695    -0.09722     0.10971     0.07434     0.11049    -0.07236
          12    -0.14084    -0.13930     0.16908     0.09760     0.17208    -0.09936
          13    -0.00000     0.00000     0.04469     0.04468    -0.04462     0.04462
          14     0.00000    -0.00000     0.04468    -0.04469    -0.04462    -0.04462
          15    -0.03629     0.03507    -0.00000    -0.00000     0.00000    -0.00000
          16    -0.09695     0.09722    -0.10970     0.07436     0.11050     0.07235
          17    -0.36181     0.36282    -0.42848     0.24448     0.42722     0.24433
          18     0.14084    -0.13930     0.16906    -0.09763    -0.17209    -0.09934
          19     0.36181    -0.36282    -0.42852    -0.24441     0.42719    -0.24437
          20     0.09695    -0.09722    -0.10971    -0.07434     0.11049    -0.07236
          21     0.14084    -0.13930    -0.16908    -0.09760     0.17208    -0.09936
          22    -0.26487     0.26560     0.00695    -0.36113    -0.00545    -0.36028
          23     0.26487    -0.26560     0.00701     0.36113    -0.00541     0.36028
          24     0.14084    -0.13930     0.00002     0.19523     0.00001     0.19871



 ----------------------------------------------------------------------------
 Normal Eigenvalue ||         Derivative Dipole Moments (debye/angs)
  Mode   [cm**-1]  ||      [d/dqX]             [d/dqY]           [d/dqZ]
 ------ ---------- || ------------------ ------------------ -----------------
    1     -272.419 ||       0.000               0.000            -0.000
    2     -122.174 ||       0.000               0.000            -0.000
    3     -122.174 ||      -0.000               0.000            -0.000
    4      -81.085 ||       0.005              -0.005             0.000
    5      -81.085 ||      -0.005              -0.005             0.000
    6      -22.123 ||       0.000              -0.000             0.001
    7      175.412 ||       0.000               0.000             0.000
    8      797.762 ||       0.247               0.247            -0.000
    9      797.762 ||       0.247              -0.247            -0.000
   10     1016.541 ||       0.000              -0.000            -0.000
   11     1198.732 ||       0.000              -0.000             0.000
   12     1198.732 ||       0.000               0.000             0.000
   13     1380.074 ||       0.000              -0.000             0.091
   14     1410.717 ||       0.000              -0.000            -0.000
   15     1476.300 ||      -0.359               0.359            -0.000
   16     1476.300 ||       0.359               0.359             0.000
   17     1476.637 ||       0.000              -0.000             0.000
   18     1476.637 ||       0.000              -0.000             0.000
   19     3085.082 ||      -0.000               0.000            -0.000
   20     3087.541 ||       0.000              -0.000             1.129
   21     3154.957 ||      -0.000              -0.000             0.000
   22     3154.957 ||      -0.000               0.000             0.000
   23     3174.898 ||      -0.788              -0.788            -0.000
   24     3174.898 ||       0.788              -0.788            -0.000
 ----------------------------------------------------------------------------



  
  
 ----------------------------------------------------------------------------
 Normal Eigenvalue ||                 Infra Red Intensities
  Mode   [cm**-1]  || [atomic units] [(debye/angs)**2] [(KM/mol)] [arbitrary]
 ------ ---------- || -------------- ----------------- ---------- -----------
    1     -272.419 ||    0.000000           0.000         0.000       0.000
    2     -122.174 ||    0.000000           0.000         0.000       0.000
    3     -122.174 ||    0.000000           0.000         0.000       0.000
    4      -81.085 ||    0.000002           0.000         0.002       0.003
    5      -81.085 ||    0.000002           0.000         0.002       0.003
    6      -22.123 ||    0.000000           0.000         0.000       0.000
    7      175.412 ||    0.000000           0.000         0.000       0.000
    8      797.762 ||    0.005292           0.122         5.159       6.474
    9      797.762 ||    0.005292           0.122         5.159       6.474
   10     1016.541 ||    0.000000           0.000         0.000       0.000
   11     1198.732 ||    0.000000           0.000         0.000       0.000
   12     1198.732 ||    0