 Entering Gaussian System, Link 0=g09
 Initial command:
 /usr/local/gaussian/g09/l1.exe "/scratch/51398.1.multiway.q/Gau-8150.inp" -scrdir="/scratch/51398.1.multiway.q/"
 Entering Link 1 = /usr/local/gaussian/g09/l1.exe PID=      8151.
  
 Copyright (c) 1988,1990,1992,1993,1995,1998,2003,2009,2013,
            Gaussian, Inc.  All Rights Reserved.
  
 This is part of the Gaussian(R) 09 program.  It is based on
 the Gaussian(R) 03 system (copyright 2003, Gaussian, Inc.),
 the Gaussian(R) 98 system (copyright 1998, Gaussian, Inc.),
 the Gaussian(R) 94 system (copyright 1995, Gaussian, Inc.),
 the Gaussian 92(TM) system (copyright 1992, Gaussian, Inc.),
 the Gaussian 90(TM) system (copyright 1990, Gaussian, Inc.),
 the Gaussian 88(TM) system (copyright 1988, Gaussian, Inc.),
 the Gaussian 86(TM) system (copyright 1986, Carnegie Mellon
 University), and the Gaussian 82(TM) system (copyright 1983,
 Carnegie Mellon University). Gaussian is a federally registered
 trademark of Gaussian, Inc.
  
 This software contains proprietary and confidential information,
 including trade secrets, belonging to Gaussian, Inc.
  
 This software is provided under written license and may be
 used, copied, transmitted, or stored only in accord with that
 written license.
  
 The following legend is applicable only to US Government
 contracts under FAR:
  
                    RESTRICTED RIGHTS LEGEND
  
 Use, reproduction and disclosure by the US Government is
 subject to restrictions as set forth in subparagraphs (a)
 and (c) of the Commercial Computer Software - Restricted
 Rights clause in FAR 52.227-19.
  
 Gaussian, Inc.
 340 Quinnipiac St., Bldg. 40, Wallingford CT 06492
  
  
 ---------------------------------------------------------------
 Warning -- This program may not be used in any manner that
 competes with the business of Gaussian, Inc. or will provide
 assistance to any competitor of Gaussian, Inc.  The licensee
 of this program is prohibited from giving any competitor of
 Gaussian, Inc. access to this program.  By using this program,
 the user acknowledges that Gaussian, Inc. is engaged in the
 business of creating and licensing software in the field of
 computational chemistry and represents and warrants to the
 licensee that it is not a competitor of Gaussian, Inc. and that
 it will not use this program in any manner prohibited above.
 ---------------------------------------------------------------
  

 Cite this work as:
 Gaussian 09, Revision D.01,
 M. J. Frisch, G. W. Trucks, H. B. Schlegel, G. E. Scuseria, 
 M. A. Robb, J. R. Cheeseman, G. Scalmani, V. Barone, B. Mennucci, 
 G. A. Petersson, H. Nakatsuji, M. Caricato, X. Li, H. P. Hratchian, 
 A. F. Izmaylov, J. Bloino, G. Zheng, J. L. Sonnenberg, M. Hada, 
 M. Ehara, K. Toyota, R. Fukuda, J. Hasegawa, M. Ishida, T. Nakajima, 
 Y. Honda, O. Kitao, H. Nakai, T. Vreven, J. A. Montgomery, Jr., 
 J. E. Peralta, F. Ogliaro, M. Bearpark, J. J. Heyd, E. Brothers, 
 K. N. Kudin, V. N. Staroverov, T. Keith, R. Kobayashi, J. Normand, 
 K. Raghavachari, A. Rendell, J. C. Burant, S. S. Iyengar, J. Tomasi, 
 M. Cossi, N. Rega, J. M. Millam, M. Klene, J. E. Knox, J. B. Cross, 
 V. Bakken, C. Adamo, J. Jaramillo, R. Gomperts, R. E. Stratmann, 
 O. Yazyev, A. J. Austin, R. Cammi, C. Pomelli, J. W. Ochterski, 
 R. L. Martin, K. Morokuma, V. G. Zakrzewski, G. A. Voth, 
 P. Salvador, J. J. Dannenberg, S. Dapprich, A. D. Daniels, 
 O. Farkas, J. B. Foresman, J. V. Ortiz, J. Cioslowski, 
 and D. J. Fox, Gaussian, Inc., Wallingford CT, 2013.
 
 ******************************************
 Gaussian 09:  EM64L-G09RevD.01 24-Apr-2013
                30-Aug-2017 
 ******************************************
 ----------------------------------------------
 #p b3lyp 6-311g(d,p) SCRF(smd,solvent=toluene)
 ----------------------------------------------
 1/38=1/1;
 2/12=2,17=6,18=5,40=1/2;
 3/5=4,6=6,7=101,11=2,16=1,25=1,30=1,70=32201,72=13,74=-5/1,2,3;
 4//1;
 5/5=2,38=5,53=13/2;
 6/7=2,8=2,9=2,10=2,28=1/1;
 99/5=1,9=1/99;
 Leave Link    1 at Wed Aug 30 14:24:33 2017, MaxMem=           0 cpu:         0.0
 (Enter /usr/local/gaussian/g09/l101.exe)
 ---------------------------------------------------------------
 single point energy correction with larger basis set in solvent
 ---------------------------------------------------------------
 Symbolic Z-matrix:
 Charge =  0 Multiplicity = 1
 C                    0    -1.28603   1.09123  -0.00383 
 H                    0    -0.93719   0.05243   0.02775 
 H                    0    -0.9384    1.58418   0.91156 
 H                    0    -2.3817    1.07264   0.02698 
 C                    0    -0.77584   1.81283  -1.25357 
 H                    0    -1.12508   2.85149  -1.2854 
 H                    0     0.31984   1.83184  -1.28414 
 H                    0    -1.12306   1.31959  -2.16896 
 
 NAtoms=      8 NQM=        8 NQMF=       0 NMMI=      0 NMMIF=      0
                NMic=       0 NMicF=      0.
                    Isotopes and Nuclear Properties:
 (Nuclear quadrupole moments (NQMom) in fm**2, nuclear magnetic moments (NMagM)
  in nuclear magnetons)

  Atom         1           2           3           4           5           6           7           8
 IAtWgt=          12           1           1           1          12           1           1           1
 AtmWgt=  12.0000000   1.0078250   1.0078250   1.0078250  12.0000000   1.0078250   1.0078250   1.0078250
 NucSpn=           0           1           1           1           0           1           1           1
 AtZEff=   0.0000000   0.0000000   0.0000000   0.0000000   0.0000000   0.0000000   0.0000000   0.0000000
 NQMom=    0.0000000   0.0000000   0.0000000   0.0000000   0.0000000   0.0000000   0.0000000   0.0000000
 NMagM=    0.0000000   2.7928460   2.7928460   2.7928460   0.0000000   2.7928460   2.7928460   2.7928460
 AtZNuc=   6.0000000   1.0000000   1.0000000   1.0000000   6.0000000   1.0000000   1.0000000   1.0000000
 Leave Link  101 at Wed Aug 30 14:24:33 2017, MaxMem=    33554432 cpu:         0.1
 (Enter /usr/local/gaussian/g09/l202.exe)
                          Input orientation:                          
 ---------------------------------------------------------------------
 Center     Atomic      Atomic             Coordinates (Angstroms)
 Number     Number       Type             X           Y           Z
 ---------------------------------------------------------------------
      1          6           0       -1.286032    1.091231   -0.003834
      2          1           0       -0.937193    0.052425    0.027749
      3          1           0       -0.938399    1.584182    0.911558
      4          1           0       -2.381705    1.072643    0.026980
      5          6           0       -0.775835    1.812827   -1.253571
      6          1           0       -1.125078    2.851489   -1.285402
      7          1           0        0.319837    1.831843   -1.284138
      8          1           0       -1.123065    1.319590   -2.168962
 ---------------------------------------------------------------------
                    Distance matrix (angstroms):
                    1          2          3          4          5
     1  C    0.000000
     2  H    1.096268   0.000000
     3  H    1.096263   1.768445   0.000000
     4  H    1.096263   1.768462   1.768412   0.000000
     5  C    1.530635   2.183308   2.183229   2.183232   0.000000
     6  H    2.183308   3.097487   2.543137   2.542784   1.096268
     7  H    2.183232   2.543128   2.542749   3.097376   1.096263
     8  H    2.183229   2.542793   3.097372   2.543093   1.096263
                    6          7          8
     6  H    0.000000
     7  H    1.768462   0.000000
     8  H    1.768445   1.768412   0.000000
 Stoichiometry    C2H6
 Framework group  C1[X(C2H6)]
 Deg. of freedom    18
 Full point group                 C1      NOp   1
 Largest Abelian subgroup         C1      NOp   1
 Largest concise Abelian subgroup C1      NOp   1
                         Standard orientation:                         
 ---------------------------------------------------------------------
 Center     Atomic      Atomic             Coordinates (Angstroms)
 Number     Number       Type             X           Y           Z
 ---------------------------------------------------------------------
      1          6           0       -0.765318   -0.000004   -0.000003
      2          1           0       -1.164553   -1.005505   -0.177152
      3          1           0       -1.164455    0.349371    0.959382
      4          1           0       -1.164453    0.656233   -0.782203
      5          6           0        0.765318    0.000004    0.000003
      6          1           0        1.164553    1.005590    0.176665
      7          1           0        1.164453   -0.655854    0.782521
      8          1           0        1.164455   -0.349836   -0.959212
 ---------------------------------------------------------------------
 Rotational constants (GHZ):     80.1717723     19.8900279     19.8898643
 Leave Link  202 at Wed Aug 30 14:24:33 2017, MaxMem=    33554432 cpu:         0.0
 (Enter /usr/local/gaussian/g09/l301.exe)
 Standard basis: 6-311G(d,p) (5D, 7F)
 Ernie: Thresh=  0.10000D-02 Tol=  0.10000D-05 Strict=F.
 There are    74 symmetry adapted cartesian basis functions of A   symmetry.
 There are    72 symmetry adapted basis functions of A   symmetry.
    72 basis functions,   112 primitive gaussians,    74 cartesian basis functions
     9 alpha electrons        9 beta electrons
       nuclear repulsion energy        42.1057862406 Hartrees.
 IExCor=  402 DFT=T Ex+Corr=B3LYP ExCW=0 ScaHFX=  0.200000
 ScaDFX=  0.800000  0.720000  1.000000  0.810000 ScalE2=  1.000000  1.000000
 IRadAn=      0 IRanWt=     -1 IRanGd=            0 ICorTp=0 IEmpDi=  4
 NAtoms=    8 NActive=    8 NUniq=    8 SFac= 1.00D+00 NAtFMM=   60 NAOKFM=F Big=F
 Integral buffers will be    131072 words long.
 Raffenetti 2 integral format.
 Two-electron integral symmetry is turned on.
 ------------------------------------------------------------------------------
 Polarizable Continuum Model (PCM)
 =================================
 Model                : PCM (using non-symmetric T matrix).
 Atomic radii         : SMD-Coulomb.
 Polarization charges : Total charges.
 Charge compensation  : None.
 Solution method      : On-the-fly selection.
 Cavity type          : VdW (van der Waals Surface) (Alpha=1.000).
 Cavity algorithm     : GePol (No added spheres)
                        Default sphere list used, NSphG=    8.
                        Lebedev-Laikov grids with approx.  5.0 points / Ang**2.
                        Smoothing algorithm: Karplus/York (Gamma=1.0000).
                        Polarization charges: spherical gaussians, with
                                              point-specific exponents (IZeta= 3).
                        Self-potential: point-specific (ISelfS= 7).
                        Self-field    : sphere-specific E.n sum rule (ISelfD= 2).
 Solvent              : Toluene, Eps=   2.374100 Eps(inf)=   2.238315
 ------------------------------------------------------------------------------
 Spheres list:
 ISph  on   Nord     Re0    Alpha      Xe            Ye            Ze
    1   C      1    1.8500  1.000     -0.765318     -0.000004     -0.000003
    2   H      2    1.2000  1.000     -1.164553     -1.005505     -0.177152
    3   H      3    1.2000  1.000     -1.164455      0.349371      0.959382
    4   H      4    1.2000  1.000     -1.164453      0.656233     -0.782203
    5   C      5    1.8500  1.000      0.765318      0.000004      0.000003
    6   H      6    1.2000  1.000      1.164553      1.005590      0.176665
    7   H      7    1.2000  1.000      1.164453     -0.655854      0.782521
    8   H      8    1.2000  1.000      1.164455     -0.349836     -0.959212
 ------------------------------------------------------------------------------
 GePol: Number of generator spheres                  =       8
 GePol: Total number of spheres                      =       8
 GePol: Number of exposed spheres                    =       8 (100.00%)
 GePol: Number of points                             =     624
 GePol: Average weight of points                     =       0.11
 GePol: Minimum weight of points                     =   0.41D-06
 GePol: Maximum weight of points                     =    0.17992
 GePol: Number of points with low weight             =      20
 GePol: Fraction of low-weight points (<1% of avg)   =       3.21%
 GePol: Cavity surface area                          =     71.372 Ang**2
 GePol: Cavity volume                                =     49.206 Ang**3
 ------------------------------------------------------------------------------
 Atomic radii for non-electrostatic terms: SMD-CDS.
 ------------------------------------------------------------------------------
 PCM non-electrostatic energy =        -0.0016893069 Hartrees.
 Nuclear repulsion after PCM non-electrostatic terms =       42.1040969337 Hartrees.
 Leave Link  301 at Wed Aug 30 14:24:33 2017, MaxMem=    33554432 cpu:         0.1
 (Enter /usr/local/gaussian/g09/l302.exe)
 NPDir=0 NMtPBC=     1 NCelOv=     1 NCel=       1 NClECP=     1 NCelD=      1
         NCelK=      1 NCelE2=     1 NClLst=     1 CellRange=     0.0.
 One-electron integrals computed using PRISM.
 NBasis=    72 RedAO= T EigKep=  3.98D-03  NBF=    72
 NBsUse=    72 1.00D-06 EigRej= -1.00D+00 NBFU=    72
 Precomputing XC quadrature grid using
 IXCGrd= 4 IRadAn=           0 IRanWt=          -1 IRanGd=           0 AccXCQ= 0.00D+00.
 Generated NRdTot=       0 NPtTot=           0 NUsed=           0 NTot=          32
 NSgBfM=    74    74    74    74    74 MxSgAt=     8 MxSgA2=     8.
 Leave Link  302 at Wed Aug 30 14:24:33 2017, MaxMem=    33554432 cpu:         0.1
 (Enter /usr/local/gaussian/g09/l303.exe)
 DipDrv:  MaxL=1.
 Leave Link  303 at Wed Aug 30 14:24:33 2017, MaxMem=    33554432 cpu:         0.0
 (Enter /usr/local/gaussian/g09/l401.exe)
 ExpMin= 1.03D-01 ExpMax= 4.56D+03 ExpMxC= 6.82D+02 IAcc=1 IRadAn=         1 AccDes= 0.00D+00
 Harris functional with IExCor=  402 and IRadAn=       1 diagonalized for initial guess.
 HarFok:  IExCor=  402 AccDes= 0.00D+00 IRadAn=         1 IDoV= 1 UseB2=F ITyADJ=14
 ICtDFT=  3500011 ScaDFX=  1.000000  1.000000  1.000000  1.000000
 FoFCou: FMM=F IPFlag=           0 FMFlag=      100000 FMFlg1=           0
         NFxFlg=           0 DoJE=T BraDBF=F KetDBF=T FulRan=T
         wScrn=  0.000000 ICntrl=     500 IOpCl=  0 I1Cent=   200000004 NGrid=           0
         NMat0=    1 NMatS0=      1 NMatT0=    0 NMatD0=    1 NMtDS0=    0 NMtDT0=    0
 Petite list used in FoFCou.
 Harris En= -79.9137878988752    
 JPrj=0 DoOrth=F DoCkMO=F.
 Leave Link  401 at Wed Aug 30 14:24:33 2017, MaxMem=    33554432 cpu:         0.2
 (Enter /usr/local/gaussian/g09/l502.exe)
 Closed shell SCF:
 Using DIIS extrapolation, IDIIS=  1040.
 Integral symmetry usage will be decided dynamically.
 Keep R1 ints in memory in canonical form, NReq=6860303.
 IVT=       35988 IEndB=       35988 NGot=    33554432 MDV=    30063939
 LenX=    30063939 LenY=    30058022
 Requested convergence on RMS density matrix=1.00D-08 within 128 cycles.
 Requested convergence on MAX density matrix=1.00D-06.
 Requested convergence on             energy=1.00D-06.
 No special actions if energy rises.
 FoFCou: FMM=F IPFlag=           0 FMFlag=           0 FMFlg1=           0
         NFxFlg=           0 DoJE=F BraDBF=F KetDBF=F FulRan=T
         wScrn=  0.000000 ICntrl=     600 IOpCl=  0 I1Cent=           0 NGrid=           0
         NMat0=    1 NMatS0=   2628 NMatT0=    0 NMatD0=    1 NMtDS0=    0 NMtDT0=    0
 Symmetry not used in FoFCou.

 Cycle   1  Pass 1  IDiag  1:
 Inv3:  Mode=1 IEnd=     1168128.
 Iteration    1 A*A^-1 deviation from unit magnitude is 4.00D-15 for    220.
 Iteration    1 A*A^-1 deviation from orthogonality  is 3.22D-15 for    586    108.
 Iteration    1 A^-1*A deviation from unit magnitude is 4.44D-15 for    220.
 Iteration    1 A^-1*A deviation from orthogonality  is 1.03D-14 for    468    442.
 E= -79.7256771720227    
 DIIS: error= 5.58D-02 at cycle   1 NSaved=   1.
 NSaved= 1 IEnMin= 1 EnMin= -79.7256771720227     IErMin= 1 ErrMin= 5.58D-02
 ErrMax= 5.58D-02  0.00D+00 EMaxC= 1.00D-01 BMatC= 1.30D-01 BMatP= 1.30D-01
 IDIUse=3 WtCom= 4.42D-01 WtEn= 5.58D-01
 Coeff-Com:  0.100D+01
 Coeff-En:   0.100D+01
 Coeff:      0.100D+01
 Gap=     0.318 Goal=   None    Shift=    0.000
 GapD=    0.318 DampG=1.000 DampE=0.500 DampFc=0.5000 IDamp=-1.
 Damping current iteration by 5.00D-01
 RMSDP=7.19D-03 MaxDP=1.26D-01              OVMax= 1.95D-01

 Cycle   2  Pass 1  IDiag  1:
 E= -79.7825368056421     Delta-E=       -0.056859633619 Rises=F Damp=T
 DIIS: error= 1.18D-02 at cycle   2 NSaved=   2.
 NSaved= 2 IEnMin= 2 EnMin= -79.7825368056421     IErMin= 2 ErrMin= 1.18D-02
 ErrMax= 1.18D-02  0.00D+00 EMaxC= 1.00D-01 BMatC= 4.71D-03 BMatP= 1.30D-01
 IDIUse=3 WtCom= 8.82D-01 WtEn= 1.18D-01
 Coeff-Com:  0.818D-01 0.918D+00
 Coeff-En:   0.166D+00 0.834D+00
 Coeff:      0.917D-01 0.908D+00
 Gap=     0.420 Goal=   None    Shift=    0.000
 RMSDP=9.04D-04 MaxDP=1.11D-02 DE=-5.69D-02 OVMax= 1.09D-01

 Cycle   3  Pass 1  IDiag  1:
 E= -79.8581181328809     Delta-E=       -0.075581327239 Rises=F Damp=F
 DIIS: error= 3.57D-03 at cycle   3 NSaved=   3.
 NSaved= 3 IEnMin= 3 EnMin= -79.8581181328809     IErMin= 3 ErrMin= 3.57D-03
 ErrMax= 3.57D-03  0.00D+00 EMaxC= 1.00D-01 BMatC= 2.95D-04 BMatP= 4.71D-03
 IDIUse=3 WtCom= 9.64D-01 WtEn= 3.57D-02
 Coeff-Com: -0.799D-02 0.148D+00 0.860D+00
 Coeff-En:   0.000D+00 0.000D+00 0.100D+01
 Coeff:     -0.771D-02 0.142D+00 0.865D+00
 Gap=     0.393 Goal=   None    Shift=    0.000
 RMSDP=1.68D-04 MaxDP=1.59D-03 DE=-7.56D-02 OVMax= 5.44D-03

 Cycle   4  Pass 1  IDiag  1:
 E= -79.8583871084755     Delta-E=       -0.000268975595 Rises=F Damp=F
 DIIS: error= 7.97D-04 at cycle   4 NSaved=   4.
 NSaved= 4 IEnMin= 4 EnMin= -79.8583871084755     IErMin= 4 ErrMin= 7.97D-04
 ErrMax= 7.97D-04  0.00D+00 EMaxC= 1.00D-01 BMatC= 1.30D-05 BMatP= 2.95D-04
 IDIUse=3 WtCom= 9.92D-01 WtEn= 7.97D-03
 Coeff-Com: -0.299D-02 0.225D-02 0.189D+00 0.811D+00
 Coeff-En:   0.000D+00 0.000D+00 0.000D+00 0.100D+01
 Coeff:     -0.297D-02 0.223D-02 0.188D+00 0.813D+00
 Gap=     0.393 Goal=   None    Shift=    0.000
 RMSDP=3.02D-05 MaxDP=3.31D-04 DE=-2.69D-04 OVMax= 1.21D-03

 Cycle   5  Pass 1  IDiag  1:
 E= -79.8583990104623     Delta-E=       -0.000011901987 Rises=F Damp=F
 DIIS: error= 2.75D-05 at cycle   5 NSaved=   5.
 NSaved= 5 IEnMin= 5 EnMin= -79.8583990104623     IErMin= 5 ErrMin= 2.75D-05
 ErrMax= 2.75D-05  0.00D+00 EMaxC= 1.00D-01 BMatC= 3.45D-08 BMatP= 1.30D-05
 IDIUse=1 WtCom= 1.00D+00 WtEn= 0.00D+00
 Coeff-Com:  0.453D-03-0.110D-02-0.307D-02 0.683D-02 0.997D+00
 Coeff:      0.453D-03-0.110D-02-0.307D-02 0.683D-02 0.997D+00
 Gap=     0.393 Goal=   None    Shift=    0.000
 RMSDP=2.04D-06 MaxDP=3.35D-05 DE=-1.19D-05 OVMax= 7.37D-05

 Cycle   6  Pass 1  IDiag  1:
 E= -79.8583990480487     Delta-E=       -0.000000037586 Rises=F Damp=F
 DIIS: error= 1.19D-06 at cycle   6 NSaved=   6.
 NSaved= 6 IEnMin= 6 EnMin= -79.8583990480487     IErMin= 6 ErrMin= 1.19D-06
 ErrMax= 1.19D-06  0.00D+00 EMaxC= 1.00D-01 BMatC= 6.09D-11 BMatP= 3.45D-08
 IDIUse=1 WtCom= 1.00D+00 WtEn= 0.00D+00
 Coeff-Com: -0.852D-05-0.119D-04-0.434D-03-0.121D-02 0.512D-02 0.997D+00
 Coeff:     -0.852D-05-0.119D-04-0.434D-03-0.121D-02 0.512D-02 0.997D+00
 Gap=     0.393 Goal=   None    Shift=    0.000
 RMSDP=1.04D-07 MaxDP=9.02D-07 DE=-3.76D-08 OVMax= 3.11D-06

 Cycle   7  Pass 1  IDiag  1:
 E= -79.8583990481222     Delta-E=       -0.000000000074 Rises=F Damp=F
 DIIS: error= 7.87D-08 at cycle   7 NSaved=   7.
 NSaved= 7 IEnMin= 7 EnMin= -79.8583990481222     IErMin= 7 ErrMin= 7.87D-08
 ErrMax= 7.87D-08  0.00D+00 EMaxC= 1.00D-01 BMatC= 1.21D-13 BMatP= 6.09D-11
 IDIUse=1 WtCom= 1.00D+00 WtEn= 0.00D+00
 Coeff-Com: -0.408D-06 0.131D-06-0.103D-04-0.959D-04-0.276D-02-0.180D-01
 Coeff-Com:  0.102D+01
 Coeff:     -0.408D-06 0.131D-06-0.103D-04-0.959D-04-0.276D-02-0.180D-01
 Coeff:      0.102D+01
 Gap=     0.393 Goal=   None    Shift=    0.000
 RMSDP=8.60D-09 MaxDP=9.24D-08 DE=-7.36D-11 OVMax= 2.70D-07

 Error on total polarization charges =  0.02153
 SCF Done:  E(RB3LYP) =  -79.8583990481     A.U. after    7 cycles
            NFock=  7  Conv=0.86D-08     -V/T= 2.0060
 KE= 7.938418132435D+01 PE=-2.684508630001D+02 EE= 6.710418569393D+01
 SMD-CDS (non-electrostatic) energy       (kcal/mol) =      -1.06
 (included in total energy above)
 Leave Link  502 at Wed Aug 30 14:24:38 2017, MaxMem=    33554432 cpu:         4.8
 (Enter /usr/local/gaussian/g09/l601.exe)
 Copying SCF densities to generalized density rwf, IOpCl= 0 IROHF=0.

 **********************************************************************

            Population analysis using the SCF density.

 **********************************************************************

 Orbital symmetries:
       Occupied  (A) (A) (A) (A) (A) (A) (A) (A) (A)
       Virtual   (A) (A) (A) (A) (A) (A) (A) (A) (A) (A) (A) (A)
                 (A) (A) (A) (A) (A) (A) (A) (A) (A) (A) (A) (A)
                 (A) (A) (A) (A) (A) (A) (A) (A) (A) (A) (A) (A)
                 (A) (A) (A) (A) (A) (A) (A) (A) (A) (A) (A) (A)
                 (A) (A) (A) (A) (A) (A) (A) (A) (A) (A) (A) (A)
                 (A) (A) (A)
 The electronic state is 1-A.
 Alpha  occ. eigenvalues --  -10.15457 -10.15435  -0.74896  -0.61256  -0.43142
 Alpha  occ. eigenvalues --   -0.43142  -0.36619  -0.34070  -0.34069
 Alpha virt. eigenvalues --    0.05205   0.09120   0.10786   0.10786   0.14350
 Alpha virt. eigenvalues --    0.14351   0.22851   0.30149   0.30150   0.33344
 Alpha virt. eigenvalues --    0.33499   0.33501   0.53392   0.57044   0.58591
 Alpha virt. eigenvalues --    0.58592   0.60470   0.60470   0.61924   0.76116
 Alpha virt. eigenvalues --    0.86742   0.96283   0.96285   1.25481   1.25485
 Alpha virt. eigenvalues --    1.46588   1.46981   1.46984   1.47259   1.47790
 Alpha virt. eigenvalues --    1.47791   1.49955   1.69554   1.69582   1.69584
 Alpha virt. eigenvalues --    1.82648   1.82652   1.98229   2.09312   2.09316
 Alpha virt. eigenvalues --    2.09738   2.27263   2.31717   2.31722   2.38091
 Alpha virt. eigenvalues --    2.38094   2.43149   2.52264   2.52266   2.57758
 Alpha virt. eigenvalues --    2.57760   2.64705   2.64711   2.74368   2.76969
 Alpha virt. eigenvalues --    3.15684   3.79066   3.79068   3.80551   3.80555
 Alpha virt. eigenvalues --    4.21596  23.88330  23.95508
          Condensed to atoms (all electrons):
               1          2          3          4          5          6
     1  C    4.859296   0.406101   0.406096   0.406096   0.356410  -0.035354
     2  H    0.406101   0.587825  -0.031807  -0.031804  -0.035354   0.008457
     3  H    0.406096  -0.031807   0.587860  -0.031809  -0.035365  -0.006357
     4  H    0.406096  -0.031804  -0.031809   0.587847  -0.035366  -0.006371
     5  C    0.356410  -0.035354  -0.035365  -0.035366   4.859295   0.406101
     6  H   -0.035354   0.008457  -0.006357  -0.006371   0.406101   0.587825
     7  H   -0.035366  -0.006357  -0.006374   0.008460   0.406096  -0.031804
     8  H   -0.035366  -0.006372   0.008460  -0.006359   0.406096  -0.031807
               7          8
     1  C   -0.035366  -0.035366
     2  H   -0.006357  -0.006372
     3  H   -0.006374   0.008460
     4  H    0.008460  -0.006359
     5  C    0.406096   0.406096
     6  H   -0.031804  -0.031807
     7  H    0.587847  -0.031809
     8  H   -0.031809   0.587860
 Mulliken charges:
               1
     1  C   -0.327913
     2  H    0.109310
     3  H    0.109296
     4  H    0.109306
     5  C   -0.327913
     6  H    0.109311
     7  H    0.109306
     8  H    0.109296
 Sum of Mulliken charges =   0.00000
 Mulliken charges with hydrogens summed into heavy atoms:
               1
     1  C    0.000000
     5  C    0.000000
 Electronic spatial extent (au):  <R**2>=            110.4488
 Charge=              0.0000 electrons
 Dipole moment (field-independent basis, Debye):
    X=              0.0000    Y=              0.0000    Z=              0.0000  Tot=              0.0000
 Quadrupole moment (field-independent basis, Debye-Ang):
   XX=            -15.6667   YY=            -15.0041   ZZ=            -15.0045
   XY=              0.0002   XZ=              0.0001   YZ=              0.0000
 Traceless Quadrupole moment (field-independent basis, Debye-Ang):
   XX=             -0.4416   YY=              0.2210   ZZ=              0.2206
   XY=              0.0002   XZ=              0.0001   YZ=              0.0000
 Octapole moment (field-independent basis, Debye-Ang**2):
  XXX=              0.0000  YYY=              0.0004  ZZZ=              0.0007  XYY=              0.0000
  XXY=              0.0000  XXZ=              0.0000  XZZ=              0.0000  YZZ=             -0.0004
  YYZ=             -0.0007  XYZ=              0.0000
 Hexadecapole moment (field-independent basis, Debye-Ang**3):
 XXXX=            -96.8751 YYYY=            -30.5379 ZZZZ=            -30.5380 XXXY=              0.0009
 XXXZ=              0.0004 YYYX=              1.2172 YYYZ=             -0.0001 ZZZX=             -0.7006
 ZZZY=              0.0001 XXYY=            -20.0911 XXZZ=            -20.0921 YYZZ=            -10.1792
 XXYZ=              0.0001 YYXZ=              0.7008 ZZXY=             -1.2167
 N-N= 4.210409693370D+01 E-N=-2.684508634970D+02  KE= 7.938418132435D+01
 No NMR shielding tensors so no spin-rotation constants.
 Leave Link  601 at Wed Aug 30 14:24:38 2017, MaxMem=    33554432 cpu:         0.1
 (Enter /usr/local/gaussian/g09/l9999.exe)
 1\1\GINC-COMP0201\SP\RB3LYP\6-311G(d,p)\C2H6\RPATON\30-Aug-2017\0\\#p 
 b3lyp 6-311g(d,p) SCRF(smd,solvent=toluene)\\single point energy corre
 ction with larger basis set in solvent\\0,1\C,0,-1.28603236,1.09123057
 94,-0.0038341416\H,0,-0.9371928406,0.0524253709,0.0277494184\H,0,-0.93
 83989766,1.5841820884,0.9115578865\H,0,-2.3817046641,1.0726428583,0.02
 69799219\C,0,-0.7758351067,1.8128268986,-1.2535709642\H,0,-1.125078277
 3,2.8514889933,-1.2854018512\H,0,0.319836766,1.8318430546,-1.284137781
 7\H,0,-1.1230645406,1.3195901565,-2.1689624881\\Version=EM64L-G09RevD.
 01\State=1-A\HF=-79.858399\RMSD=8.602e-09\Dipole=-0.0000003,0.0000005,
 0.\Quadrupole=0.1093894,0.054916,-0.1643054,-0.0774849,0.1339982,0.189
 4695\PG=C01 [X(C2H6)]\\@


 A MAN SHOULD NEVER BE ASHAMED TO OWN HE HAS BEEN IN THE WRONG
 WHICH IS BUT SAYING IN OTHER WORDS,
 THAT HE IS WISER TODAY THAN HE WAS YESTERDAY.

                          -- JONATHAN SWIFT
 Job cpu time:       0 days  0 hours  0 minutes  5.6 seconds.
 File lengths (MBytes):  RWF=     13 Int=      0 D2E=      0 Chk=      1 Scr=      1
 Normal termination of Gaussian 09 at Wed Aug 30 14:24:38 2017.
