 Entering Gaussian System, Link 0=g09
 Initial command:
 /mnt/data/applications/G09/g09/l1.exe "/scratch/Gau-28359.inp" -scrdir="/scratch/"
 Entering Link 1 = /mnt/data/applications/G09/g09/l1.exe PID=     28360.
  
 Copyright (c) 1988,1990,1992,1993,1995,1998,2003,2009,2013,
            Gaussian, Inc.  All Rights Reserved.
  
 This is part of the Gaussian(R) 09 program.  It is based on
 the Gaussian(R) 03 system (copyright 2003, Gaussian, Inc.),
 the Gaussian(R) 98 system (copyright 1998, Gaussian, Inc.),
 the Gaussian(R) 94 system (copyright 1995, Gaussian, Inc.),
 the Gaussian 92(TM) system (copyright 1992, Gaussian, Inc.),
 the Gaussian 90(TM) system (copyright 1990, Gaussian, Inc.),
 the Gaussian 88(TM) system (copyright 1988, Gaussian, Inc.),
 the Gaussian 86(TM) system (copyright 1986, Carnegie Mellon
 University), and the Gaussian 82(TM) system (copyright 1983,
 Carnegie Mellon University). Gaussian is a federally registered
 trademark of Gaussian, Inc.
  
 This software contains proprietary and confidential information,
 including trade secrets, belonging to Gaussian, Inc.
  
 This software is provided under written license and may be
 used, copied, transmitted, or stored only in accord with that
 written license.
  
 The following legend is applicable only to US Government
 contracts under FAR:
  
                    RESTRICTED RIGHTS LEGEND
  
 Use, reproduction and disclosure by the US Government is
 subject to restrictions as set forth in subparagraphs (a)
 and (c) of the Commercial Computer Software - Restricted
 Rights clause in FAR 52.227-19.
  
 Gaussian, Inc.
 340 Quinnipiac St., Bldg. 40, Wallingford CT 06492
  
  
 ---------------------------------------------------------------
 Warning -- This program may not be used in any manner that
 competes with the business of Gaussian, Inc. or will provide
 assistance to any competitor of Gaussian, Inc.  The licensee
 of this program is prohibited from giving any competitor of
 Gaussian, Inc. access to this program.  By using this program,
 the user acknowledges that Gaussian, Inc. is engaged in the
 business of creating and licensing software in the field of
 computational chemistry and represents and warrants to the
 licensee that it is not a competitor of Gaussian, Inc. and that
 it will not use this program in any manner prohibited above.
 ---------------------------------------------------------------
  

 Cite this work as:
 Gaussian 09, Revision D.01,
 M. J. Frisch, G. W. Trucks, H. B. Schlegel, G. E. Scuseria, 
 M. A. Robb, J. R. Cheeseman, G. Scalmani, V. Barone, B. Mennucci, 
 G. A. Petersson, H. Nakatsuji, M. Caricato, X. Li, H. P. Hratchian, 
 A. F. Izmaylov, J. Bloino, G. Zheng, J. L. Sonnenberg, M. Hada, 
 M. Ehara, K. Toyota, R. Fukuda, J. Hasegawa, M. Ishida, T. Nakajima, 
 Y. Honda, O. Kitao, H. Nakai, T. Vreven, J. A. Montgomery, Jr., 
 J. E. Peralta, F. Ogliaro, M. Bearpark, J. J. Heyd, E. Brothers, 
 K. N. Kudin, V. N. Staroverov, T. Keith, R. Kobayashi, J. Normand, 
 K. Raghavachari, A. Rendell, J. C. Burant, S. S. Iyengar, J. Tomasi, 
 M. Cossi, N. Rega, J. M. Millam, M. Klene, J. E. Knox, J. B. Cross, 
 V. Bakken, C. Adamo, J. Jaramillo, R. Gomperts, R. E. Stratmann, 
 O. Yazyev, A. J. Austin, R. Cammi, C. Pomelli, J. W. Ochterski, 
 R. L. Martin, K. Morokuma, V. G. Zakrzewski, G. A. Voth, 
 P. Salvador, J. J. Dannenberg, S. Dapprich, A. D. Daniels, 
 O. Farkas, J. B. Foresman, J. V. Ortiz, J. Cioslowski, 
 and D. J. Fox, Gaussian, Inc., Wallingford CT, 2013.
 
 ******************************************
 Gaussian 09:  EM64L-G09RevD.01 24-Apr-2013
                17-Mar-2016 
 ******************************************
 %nproc=4
 Will use up to    4 processors via shared memory.
 %Mem=4000MB
 %Chk=HCN
 -----------------------
 #p B97D/6-31G* opt freq
 -----------------------
 1/14=-1,18=20,19=15,26=3,38=1/1,3;
 2/9=110,12=2,17=6,18=5,40=1/2;
 3/5=1,6=6,7=1,11=2,16=1,25=1,30=1,71=1,74=-42/1,2,3;
 4//1;
 5/5=2,38=5/2;
 6/7=2,8=2,9=2,10=2,28=1/1;
 7//1,2,3,16;
 1/14=-1,18=20,19=15,26=3/3(2);
 2/9=110/2;
 99//99;
 2/9=110/2;
 3/5=1,6=6,7=1,11=2,16=1,25=1,30=1,71=1,74=-42/1,2,3;
 4/5=5,16=3,69=1/1;
 5/5=2,38=5/2;
 7//1,2,3,16;
 1/14=-1,18=20,19=15,26=3/3(-5);
 2/9=110/2;
 6/7=2,8=2,9=2,10=2,19=2,28=1/1;
 99/9=1/99;
 Leave Link    1 at Thu Mar 17 13:22:00 2016, MaxMem=   524288000 cpu:         0.1
 (Enter /mnt/data/applications/G09/g09/l101.exe)
 --------
 opt freq
 --------
 Symbolic Z-matrix:
 Charge =  0 Multiplicity = 1
 C                     0.32491   1.25752   0. 
 N                     1.48491   1.25752   0. 
 H                    -0.74409   1.25752   0. 
 
 NAtoms=      3 NQM=        3 NQMF=       0 NMMI=      0 NMMIF=      0
                NMic=       0 NMicF=      0.
                    Isotopes and Nuclear Properties:
 (Nuclear quadrupole moments (NQMom) in fm**2, nuclear magnetic moments (NMagM)
  in nuclear magnetons)

  Atom         1           2           3
 IAtWgt=          12          14           1
 AtmWgt=  12.0000000  14.0030740   1.0078250
 NucSpn=           0           2           1
 AtZEff=   0.0000000   0.0000000   0.0000000
 NQMom=    0.0000000   2.0440000   0.0000000
 NMagM=    0.0000000   0.4037610   2.7928460
 AtZNuc=   6.0000000   7.0000000   1.0000000
 Leave Link  101 at Thu Mar 17 13:22:01 2016, MaxMem=   524288000 cpu:         0.8
 (Enter /mnt/data/applications/G09/g09/l103.exe)

 GradGradGradGradGradGradGradGradGradGradGradGradGradGradGradGradGradGrad
 Berny optimization.
 Initialization pass.
                           ----------------------------
                           !    Initial Parameters    !
                           ! (Angstroms and Degrees)  !
 --------------------------                            --------------------------
 ! Name  Definition              Value          Derivative Info.                !
 --------------------------------------------------------------------------------
 ! R1    R(1,2)                  1.16           estimate D2E/DX2                !
 ! R2    R(1,3)                  1.069          estimate D2E/DX2                !
 ! A1    L(2,1,3,-2,-1)        180.0            estimate D2E/DX2                !
 ! A2    L(2,1,3,-3,-2)        180.0            estimate D2E/DX2                !
 --------------------------------------------------------------------------------
 Trust Radius=3.00D-01 FncErr=1.00D-07 GrdErr=1.00D-06
 Number of steps in this run=     20 maximum allowed number of steps=    100.
 GradGradGradGradGradGradGradGradGradGradGradGradGradGradGradGradGradGrad

 Leave Link  103 at Thu Mar 17 13:22:01 2016, MaxMem=   524288000 cpu:         0.0
 (Enter /mnt/data/applications/G09/g09/l202.exe)
                          Input orientation:                          
 ---------------------------------------------------------------------
 Center     Atomic      Atomic             Coordinates (Angstroms)
 Number     Number       Type             X           Y           Z
 ---------------------------------------------------------------------
      1          6           0        0.324910    1.257521    0.000000
      2          7           0        1.484910    1.257521    0.000000
      3          1           0       -0.744090    1.257521    0.000000
 ---------------------------------------------------------------------
                    Distance matrix (angstroms):
                    1          2          3
     1  C    0.000000
     2  N    1.160000   0.000000
     3  H    1.069000   2.229000   0.000000
 Stoichiometry    CHN
 Framework group  C*V[C*(HCN)]
 Deg. of freedom     2
 Full point group                 C*V     NOp   4
 Largest Abelian subgroup         C2V     NOp   4
 Largest concise Abelian subgroup C1      NOp   1
                         Standard orientation:                         
 ---------------------------------------------------------------------
 Center     Atomic      Atomic             Coordinates (Angstroms)
 Number     Number       Type             X           Y           Z
 ---------------------------------------------------------------------
      1          6           0        0.000000    0.000000   -0.503643
      2          7           0        0.000000    0.000000    0.656357
      3          1           0        0.000000    0.000000   -1.572643
 ---------------------------------------------------------------------
 Rotational constants (GHZ):      0.0000000     44.0277275     44.0277275
 Leave Link  202 at Thu Mar 17 13:22:01 2016, MaxMem=   524288000 cpu:         0.0
 (Enter /mnt/data/applications/G09/g09/l301.exe)
 Standard basis: 6-31G(d) (6D, 7F)
 Ernie: Thresh=  0.10000D-02 Tol=  0.10000D-05 Strict=F.
 There are    18 symmetry adapted cartesian basis functions of A1  symmetry.
 There are     2 symmetry adapted cartesian basis functions of A2  symmetry.
 There are     6 symmetry adapted cartesian basis functions of B1  symmetry.
 There are     6 symmetry adapted cartesian basis functions of B2  symmetry.
 There are    18 symmetry adapted basis functions of A1  symmetry.
 There are     2 symmetry adapted basis functions of A2  symmetry.
 There are     6 symmetry adapted basis functions of B1  symmetry.
 There are     6 symmetry adapted basis functions of B2  symmetry.
    32 basis functions,    60 primitive gaussians,    32 cartesian basis functions
     7 alpha electrons        7 beta electrons
       nuclear repulsion energy        23.7918286959 Hartrees.
 IExCor= 3630 DFT=T Ex+Corr=B97D ExCW=0 ScaHFX=  0.000000
 ScaDFX=  1.000000  1.000000  1.000000  1.000000 ScalE2=  1.000000  1.000000
 IRadAn=      0 IRanWt=     -1 IRanGd=            0 ICorTp=0 IEmpDi=121
 NAtoms=    3 NActive=    3 NUniq=    3 SFac= 1.00D+00 NAtFMM=   60 NAOKFM=F Big=F
 Integral buffers will be    131072 words long.
 Raffenetti 2 integral format.
 Two-electron integral symmetry is turned on.
 R6Disp:  Grimme-D2 Dispersion energy=       -0.0003202458 Hartrees.
 Nuclear repulsion after empirical dispersion term =       23.7915084501 Hartrees.
 Leave Link  301 at Thu Mar 17 13:22:01 2016, MaxMem=   524288000 cpu:         0.2
 (Enter /mnt/data/applications/G09/g09/l302.exe)
 NPDir=0 NMtPBC=     1 NCelOv=     1 NCel=       1 NClECP=     1 NCelD=      1
         NCelK=      1 NCelE2=     1 NClLst=     1 CellRange=     0.0.
 One-electron integrals computed using PRISM.
 NBasis=    32 RedAO= T EigKep=  6.05D-03  NBF=    18     2     6     6
 NBsUse=    32 1.00D-06 EigRej= -1.00D+00 NBFU=    18     2     6     6
 Precomputing XC quadrature grid using
 IXCGrd= 4 IRadAn=           0 IRanWt=          -1 IRanGd=           0 AccXCQ= 0.00D+00.
 Generated NRdTot=       0 NPtTot=           0 NUsed=           0 NTot=          32
 NSgBfM=    32    32    32    32    32 MxSgAt=     3 MxSgA2=     3.
 Leave Link  302 at Thu Mar 17 13:22:01 2016, MaxMem=   524288000 cpu:         0.6
 (Enter /mnt/data/applications/G09/g09/l303.exe)
 DipDrv:  MaxL=1.
 Leave Link  303 at Thu Mar 17 13:22:01 2016, MaxMem=   524288000 cpu:         0.1
 (Enter /mnt/data/applications/G09/g09/l401.exe)
 ExpMin= 1.61D-01 ExpMax= 4.17D+03 ExpMxC= 6.27D+02 IAcc=1 IRadAn=         1 AccDes= 0.00D+00
 Harris functional with IExCor= 3630 and IRadAn=       1 diagonalized for initial guess.
 HarFok:  IExCor= 3630 AccDes= 0.00D+00 IRadAn=         1 IDoV= 1 UseB2=F ITyADJ=14
 ICtDFT=  3500011 ScaDFX=  1.000000  1.000000  1.000000  1.000000
 FoFCou: FMM=F IPFlag=           0 FMFlag=      100000 FMFlg1=           0
         NFxFlg=           0 DoJE=T BraDBF=F KetDBF=T FulRan=T
         wScrn=  0.000000 ICntrl=     500 IOpCl=  0 I1Cent=   200000004 NGrid=           0
         NMat0=    1 NMatS0=      1 NMatT0=    0 NMatD0=    1 NMtDS0=    0 NMtDT0=    0
 Petite list used in FoFCou.
 Harris En= -93.3753679263389    
 JPrj=0 DoOrth=F DoCkMO=F.
 Initial guess orbital symmetries:
       Occupied  (SG) (SG) (SG) (SG) (SG) (PI) (PI)
       Virtual   (PI) (PI) (SG) (SG) (PI) (PI) (SG) (SG) (PI) (PI)
                 (SG) (SG) (SG) (PI) (PI) (DLTA) (DLTA) (DLTA)
                 (DLTA) (PI) (PI) (SG) (SG) (SG) (SG)
 The electronic state of the initial guess is 1-SG.
 Leave Link  401 at Thu Mar 17 13:22:01 2016, MaxMem=   524288000 cpu:         0.5
 (Enter /mnt/data/applications/G09/g09/l502.exe)
 Closed shell SCF:
 Using DIIS extrapolation, IDIIS=  1040.
 Integral symmetry usage will be decided dynamically.
 Keep J ints in memory in symmetry-blocked form, NReq=1023928.
 IVT=       22096 IEndB=       22096 NGot=   524288000 MDV=   524223145
 LenX=   524223145 LenY=   524221680
 Requested convergence on RMS density matrix=1.00D-08 within 128 cycles.
 Requested convergence on MAX density matrix=1.00D-06.
 Requested convergence on             energy=1.00D-06.
 No special actions if energy rises.
 FoFCou: FMM=F IPFlag=           0 FMFlag=           0 FMFlg1=           0
         NFxFlg=           0 DoJE=F BraDBF=F KetDBF=F FulRan=T
         wScrn=  0.000000 ICntrl=     600 IOpCl=  0 I1Cent=           0 NGrid=           0
         NMat0=    1 NMatS0=    528 NMatT0=    0 NMatD0=    1 NMtDS0=    0 NMtDT0=    0
 Petite list used in FoFCou.
 Integral accuracy reduced to 1.0D-05 until final iterations.

 Cycle   1  Pass 0  IDiag  1:
 E= -93.3198060379955    
 DIIS: error= 3.16D-02 at cycle   1 NSaved=   1.
 NSaved= 1 IEnMin= 1 EnMin= -93.3198060379955     IErMin= 1 ErrMin= 3.16D-02
 ErrMax= 3.16D-02  0.00D+00 EMaxC= 1.00D-01 BMatC= 3.74D-02 BMatP= 3.74D-02
 IDIUse=3 WtCom= 6.84D-01 WtEn= 3.16D-01
 Coeff-Com:  0.100D+01
 Coeff-En:   0.100D+01
 Coeff:      0.100D+01
 Gap=     0.252 Goal=   None    Shift=    0.000
 GapD=    0.252 DampG=1.000 DampE=0.500 DampFc=0.5000 IDamp=-1.
 Damping current iteration by 5.00D-01
 RMSDP=1.71D-02 MaxDP=1.39D-01              OVMax= 2.43D-01

 Cycle   2  Pass 0  IDiag  1:
 E= -93.3009374121573     Delta-E=        0.018868625838 Rises=F Damp=T
 DIIS: error= 4.02D-02 at cycle   2 NSaved=   2.
 NSaved= 2 IEnMin= 1 EnMin= -93.3198060379955     IErMin= 1 ErrMin= 3.16D-02
 ErrMax= 4.02D-02  0.00D+00 EMaxC= 1.00D-01 BMatC= 3.03D-02 BMatP= 3.74D-02
 IDIUse=3 WtCom= 5.98D-01 WtEn= 4.02D-01
 Coeff-Com:  0.468D+00 0.532D+00
 Coeff-En:   0.620D+00 0.380D+00
 Coeff:      0.529D+00 0.471D+00
 Gap=     0.279 Goal=   None    Shift=    0.000
 RMSDP=4.34D-03 MaxDP=4.54D-02 DE= 1.89D-02 OVMax= 1.87D-01

 Cycle   3  Pass 0  IDiag  1:
 E= -93.3540468934635     Delta-E=       -0.053109481306 Rises=F Damp=F
 DIIS: error= 9.79D-03 at cycle   3 NSaved=   3.
 NSaved= 3 IEnMin= 3 EnMin= -93.3540468934635     IErMin= 3 ErrMin= 9.79D-03
 ErrMax= 9.79D-03  0.00D+00 EMaxC= 1.00D-01 BMatC= 4.51D-03 BMatP= 3.03D-02
 IDIUse=3 WtCom= 9.02D-01 WtEn= 9.79D-02
 Coeff-Com:  0.223D+00 0.235D+00 0.542D+00
 Coeff-En:   0.000D+00 0.000D+00 0.100D+01
 Coeff:      0.201D+00 0.212D+00 0.587D+00
 Gap=     0.304 Goal=   None    Shift=    0.000
 RMSDP=2.48D-03 MaxDP=1.92D-02 DE=-5.31D-02 OVMax= 2.64D-02

 Cycle   4  Pass 0  IDiag  1:
 E= -93.3584554919322     Delta-E=       -0.004408598469 Rises=F Damp=F
 DIIS: error= 3.61D-03 at cycle   4 NSaved=   4.
 NSaved= 4 IEnMin= 4 EnMin= -93.3584554919322     IErMin= 4 ErrMin= 3.61D-03
 ErrMax= 3.61D-03  0.00D+00 EMaxC= 1.00D-01 BMatC= 2.99D-04 BMatP= 4.51D-03
 IDIUse=3 WtCom= 9.64D-01 WtEn= 3.61D-02
 Coeff-Com:  0.259D-01-0.253D-01 0.179D+00 0.821D+00
 Coeff-En:   0.000D+00 0.000D+00 0.000D+00 0.100D+01
 Coeff:      0.250D-01-0.244D-01 0.172D+00 0.827D+00
 Gap=     0.303 Goal=   None    Shift=    0.000
 RMSDP=4.36D-04 MaxDP=4.27D-03 DE=-4.41D-03 OVMax= 6.18D-03

 Cycle   5  Pass 0  IDiag  1:
 E= -93.3587414703115     Delta-E=       -0.000285978379 Rises=F Damp=F
 DIIS: error= 2.72D-04 at cycle   5 NSaved=   5.
 NSaved= 5 IEnMin= 5 EnMin= -93.3587414703115     IErMin= 5 ErrMin= 2.72D-04
 ErrMax= 2.72D-04  0.00D+00 EMaxC= 1.00D-01 BMatC= 1.99D-06 BMatP= 2.99D-04
 IDIUse=3 WtCom= 9.97D-01 WtEn= 2.72D-03
 Coeff-Com:  0.566D-02-0.428D-02 0.415D-01 0.230D+00 0.727D+00
 Coeff-En:   0.000D+00 0.000D+00 0.000D+00 0.000D+00 0.100D+01
 Coeff:      0.564D-02-0.427D-02 0.414D-01 0.229D+00 0.728D+00
 Gap=     0.303 Goal=   None    Shift=    0.000
 RMSDP=3.09D-05 MaxDP=2.26D-04 DE=-2.86D-04 OVMax= 3.70D-04

 Cycle   6  Pass 0  IDiag  1:
 E= -93.3587431694624     Delta-E=       -0.000001699151 Rises=F Damp=F
 DIIS: error= 1.63D-05 at cycle   6 NSaved=   6.
 NSaved= 6 IEnMin= 6 EnMin= -93.3587431694624     IErMin= 6 ErrMin= 1.63D-05
 ErrMax= 1.63D-05  0.00D+00 EMaxC= 1.00D-01 BMatC= 4.57D-09 BMatP= 1.99D-06
 IDIUse=1 WtCom= 1.00D+00 WtEn= 0.00D+00
 Coeff-Com:  0.752D-04 0.290D-04 0.108D-02 0.109D-01 0.589D-01 0.929D+00
 Coeff:      0.752D-04 0.290D-04 0.108D-02 0.109D-01 0.589D-01 0.929D+00
 Gap=     0.303 Goal=   None    Shift=    0.000
 RMSDP=2.43D-06 MaxDP=1.99D-05 DE=-1.70D-06 OVMax= 2.96D-05

 Initial convergence to 1.0D-05 achieved.  Increase integral accuracy.
 Cycle   7  Pass 1  IDiag  1:
 E= -93.3587212618697     Delta-E=        0.000021907593 Rises=F Damp=F
 DIIS: error= 2.04D-05 at cycle   1 NSaved=   1.
 NSaved= 1 IEnMin= 1 EnMin= -93.3587212618697     IErMin= 1 ErrMin= 2.04D-05
 ErrMax= 2.04D-05  0.00D+00 EMaxC= 1.00D-01 BMatC= 1.45D-08 BMatP= 1.45D-08
 IDIUse=1 WtCom= 1.00D+00 WtEn= 0.00D+00
 Coeff-Com:  0.100D+01
 Coeff:      0.100D+01
 Gap=     0.303 Goal=   None    Shift=    0.000
 RMSDP=2.43D-06 MaxDP=1.99D-05 DE= 2.19D-05 OVMax= 1.76D-05

 Cycle   8  Pass 1  IDiag  1:
 E= -93.3587212688542     Delta-E=       -0.000000006985 Rises=F Damp=F
 DIIS: error= 2.72D-06 at cycle   2 NSaved=   2.
 NSaved= 2 IEnMin= 2 EnMin= -93.3587212688542     IErMin= 2 ErrMin= 2.72D-06
 ErrMax= 2.72D-06  0.00D+00 EMaxC= 1.00D-01 BMatC= 1.17D-10 BMatP= 1.45D-08
 IDIUse=1 WtCom= 1.00D+00 WtEn= 0.00D+00
 Coeff-Com:  0.194D-01 0.981D+00
 Coeff:      0.194D-01 0.981D+00
 Gap=     0.303 Goal=   None    Shift=    0.000
 RMSDP=9.87D-07 MaxDP=7.70D-06 DE=-6.98D-09 OVMax= 1.63D-05

 Cycle   9  Pass 1  IDiag  1:
 E= -93.3587212680475     Delta-E=        0.000000000807 Rises=F Damp=F
 DIIS: error= 7.84D-06 at cycle   3 NSaved=   3.
 NSaved= 3 IEnMin= 2 EnMin= -93.3587212688542     IErMin= 2 ErrMin= 2.72D-06
 ErrMax= 7.84D-06  0.00D+00 EMaxC= 1.00D-01 BMatC= 1.01D-09 BMatP= 1.17D-10
 IDIUse=1 WtCom= 1.00D+00 WtEn= 0.00D+00
 Coeff-Com:  0.124D-01 0.761D+00 0.226D+00
 Coeff:      0.124D-01 0.761D+00 0.226D+00
 Gap=     0.303 Goal=   None    Shift=    0.000
 RMSDP=6.36D-07 MaxDP=6.47D-06 DE= 8.07D-10 OVMax= 1.20D-05

 Cycle  10  Pass 1  IDiag  1:
 E= -93.3587212689900     Delta-E=       -0.000000000942 Rises=F Damp=F
 DIIS: error= 3.06D-07 at cycle   4 NSaved=   4.
 NSaved= 4 IEnMin= 4 EnMin= -93.3587212689900     IErMin= 4 ErrMin= 3.06D-07
 ErrMax= 3.06D-07  0.00D+00 EMaxC= 1.00D-01 BMatC= 3.65D-12 BMatP= 1.17D-10
 IDIUse=1 WtCom= 1.00D+00 WtEn= 0.00D+00
 Coeff-Com:  0.238D-03 0.181D+00 0.646D-01 0.754D+00
 Coeff:      0.238D-03 0.181D+00 0.646D-01 0.754D+00
 Gap=     0.303 Goal=   None    Shift=    0.000
 RMSDP=8.80D-08 MaxDP=8.58D-07 DE=-9.42D-10 OVMax= 6.23D-07

 Cycle  11  Pass 1  IDiag  1:
 E= -93.3587212689933     Delta-E=       -0.000000000003 Rises=F Damp=F
 DIIS: error= 3.61D-08 at cycle   5 NSaved=   5.
 NSaved= 5 IEnMin= 5 EnMin= -93.3587212689933     IErMin= 5 ErrMin= 3.61D-08
 ErrMax= 3.61D-08  0.00D+00 EMaxC= 1.00D-01 BMatC= 6.45D-14 BMatP= 3.65D-12
 IDIUse=1 WtCom= 1.00D+00 WtEn= 0.00D+00
 Coeff-Com:  0.367D-04 0.383D-01 0.168D-01 0.198D+00 0.747D+00
 Coeff:      0.367D-04 0.383D-01 0.168D-01 0.198D+00 0.747D+00
 Gap=     0.303 Goal=   None    Shift=    0.000
 RMSDP=1.19D-08 MaxDP=1.10D-07 DE=-3.27D-12 OVMax= 9.46D-08

 Cycle  12  Pass 1  IDiag  1:
 E= -93.3587212689934     Delta-E=        0.000000000000 Rises=F Damp=F
 DIIS: error= 1.65D-08 at cycle   6 NSaved=   6.
 NSaved= 6 IEnMin= 6 EnMin= -93.3587212689934     IErMin= 6 ErrMin= 1.65D-08
 ErrMax= 1.65D-08  0.00D+00 EMaxC= 1.00D-01 BMatC= 9.33D-15 BMatP= 6.45D-14
 IDIUse=1 WtCom= 1.00D+00 WtEn= 0.00D+00
 Coeff-Com: -0.380D-04 0.239D-02 0.299D-02 0.235D-01 0.297D+00 0.674D+00
 Coeff:     -0.380D-04 0.239D-02 0.299D-02 0.235D-01 0.297D+00 0.674D+00
 Gap=     0.303 Goal=   None    Shift=    0.000
 RMSDP=3.38D-09 MaxDP=2.66D-08 DE=-1.71D-13 OVMax= 4.05D-08

 SCF Done:  E(RB97D) =  -93.3587212690     A.U. after   12 cycles
            NFock= 12  Conv=0.34D-08     -V/T= 2.0084
 KE= 9.258297076966D+01 PE=-2.652593228605D+02 EE= 5.552612237172D+01
 Leave Link  502 at Thu Mar 17 13:22:01 2016, MaxMem=   524288000 cpu:         1.1
 (Enter /mnt/data/applications/G09/g09/l601.exe)
 Copying SCF densities to generalized density rwf, IOpCl= 0 IROHF=0.

 **********************************************************************

            Population analysis using the SCF density.

 **********************************************************************

 Orbital symmetries:
       Occupied  (SG) (SG) (SG) (SG) (SG) (PI) (PI)
       Virtual   (PI) (PI) (SG) (SG) (PI) (PI) (SG) (SG) (PI) (PI)
                 (SG) (SG) (SG) (DLTA) (DLTA) (PI) (PI) (DLTA)
                 (DLTA) (PI) (PI) (SG) (SG) (SG) (SG)
 The electronic state is 1-SG.
 Alpha  occ. eigenvalues --  -14.03376  -9.96880  -0.83879  -0.55259  -0.32519
 Alpha  occ. eigenvalues --   -0.31619  -0.31619
 Alpha virt. eigenvalues --   -0.01326  -0.01326   0.05969   0.25721   0.49191
 Alpha virt. eigenvalues --    0.49191   0.60503   0.65007   0.73164   0.73164
 Alpha virt. eigenvalues --    0.77350   1.02811   1.39292   1.44012   1.44012
 Alpha virt. eigenvalues --    1.45309   1.45309   1.86992   1.86992   2.46459
 Alpha virt. eigenvalues --    2.46459   2.51787   2.88523   3.76705   4.01878
          Condensed to atoms (all electrons):
               1          2          3
     1  C    4.756554   0.807966   0.330640
     2  N    0.807966   6.578574  -0.035596
     3  H    0.330640  -0.035596   0.458851
 Mulliken charges:
               1
     1  C    0.104840
     2  N   -0.350945
     3  H    0.246105
 Sum of Mulliken charges =   0.00000
 Mulliken charges with hydrogens summed into heavy atoms:
               1
     1  C    0.350945
     2  N   -0.350945
 Electronic spatial extent (au):  <R**2>=             48.9818
 Charge=              0.0000 electrons
 Dipole moment (field-independent basis, Debye):
    X=              0.0000    Y=              0.0000    Z=             -2.8371  Tot=              2.8371
 Quadrupole moment (field-independent basis, Debye-Ang):
   XX=            -11.3423   YY=            -11.3423   ZZ=             -9.5235
   XY=              0.0000   XZ=              0.0000   YZ=              0.0000
 Traceless Quadrupole moment (field-independent basis, Debye-Ang):
   XX=             -0.6063   YY=             -0.6063   ZZ=              1.2125
   XY=              0.0000   XZ=              0.0000   YZ=              0.0000
 Octapole moment (field-independent basis, Debye-Ang**2):
  XXX=              0.0000  YYY=              0.0000  ZZZ=             -6.6889  XYY=              0.0000
  XXY=              0.0000  XXZ=             -0.1315  XZZ=              0.0000  YZZ=              0.0000
  YYZ=             -0.1315  XYZ=              0.0000
 Hexadecapole moment (field-independent basis, Debye-Ang**3):
 XXXX=            -10.1975 YYYY=            -10.1975 ZZZZ=            -34.9742 XXXY=              0.0000
 XXXZ=              0.0000 YYYX=              0.0000 YYYZ=              0.0000 ZZZX=              0.0000
 ZZZY=              0.0000 XXYY=             -3.3992 XXZZ=             -8.5992 YYZZ=             -8.5992
 XXYZ=              0.0000 YYXZ=              0.0000 ZZXY=              0.0000
 N-N= 2.379150845009D+01 E-N=-2.652593221661D+02  KE= 9.258297076966D+01
 Symmetry A1   KE= 8.689122256886D+01
 Symmetry A2   KE=-4.777391554901D-51
 Symmetry B1   KE= 2.845874100400D+00
 Symmetry B2   KE= 2.845874100400D+00
 No NMR shielding tensors so no spin-rotation constants.
 Leave Link  601 at Thu Mar 17 13:22:01 2016, MaxMem=   524288000 cpu:         0.5
 (Enter /mnt/data/applications/G09/g09/l701.exe)
 Compute integral first derivatives.
 ... and contract with generalized density number  0.
 R6Disp: Adding Grimme-D2 dispersion energy 1st derivatives to the gradient.
 Leave Link  701 at Thu Mar 17 13:22:02 2016, MaxMem=   524288000 cpu:         0.6
 (Enter /mnt/data/applications/G09/g09/l702.exe)
 L702 exits ... SP integral derivatives will be done elsewhere.
 Leave Link  702 at Thu Mar 17 13:22:02 2016, MaxMem=   524288000 cpu:         0.1
 (Enter /mnt/data/applications/G09/g09/l703.exe)
 Compute integral first derivatives, UseDBF=F ICtDFT=           0.
 Integral derivatives from FoFJK, PRISM(SPDF).
 Calling FoFJK, ICntrl=      2527 FMM=F ISym2X=1 I1Cent= 0 IOpClX= 0 NMat=1 NMatS=1 NMatT=0.
 FoFJK:  IHMeth= 1 ICntrl=    2527 DoSepK=F KAlg= 0 I1Cent=   0 FoldK=F
 IRaf=         0 NMat=   1 IRICut=       1 DoRegI=T DoRafI=F ISym2E= 1.
 FoFCou: FMM=F IPFlag=           0 FMFlag=      100000 FMFlg1=         800
         NFxFlg=           0 DoJE=F BraDBF=F KetDBF=F FulRan=T
         wScrn=  0.000000 ICntrl=    2527 IOpCl=  0 I1Cent=           0 NGrid=           0
         NMat0=    1 NMatS0=      1 NMatT0=    0 NMatD0=    1 NMtDS0=    0 NMtDT0=    0
 Petite list used in FoFCou.
 Leave Link  703 at Thu Mar 17 13:22:02 2016, MaxMem=   524288000 cpu:         0.7
 (Enter /mnt/data/applications/G09/g09/l716.exe)
 Dipole        = 0.00000000D+00 0.00000000D+00-1.11618260D+00
 ***** Axes restored to original set *****
 -------------------------------------------------------------------
 Center     Atomic                   Forces (Hartrees/Bohr)
 Number     Number              X              Y              Z
 -------------------------------------------------------------------
      1        6          -0.009773276    0.000000000    0.000000000
      2        7           0.015131546    0.000000000    0.000000000
      3        1          -0.005358269    0.000000000    0.000000000
 -------------------------------------------------------------------
 Cartesian Forces:  Max     0.015131546 RMS     0.006264465
 Leave Link  716 at Thu Mar 17 13:22:02 2016, MaxMem=   524288000 cpu:         0.1
 (Enter /mnt/data/applications/G09/g09/l103.exe)

 GradGradGradGradGradGradGradGradGradGradGradGradGradGradGradGradGradGrad
 Berny optimization.
 FormGI is forming the generalized inverse of G from B-inverse, IUseBI=4.
 Internal  Forces:  Max     0.015131546 RMS     0.008026125
 Search for a local minimum.
 Step number   1 out of a maximum of   20
 All quantities printed in internal units (Hartrees-Bohrs-Radians)
 RMS Force = .80261D-02 SwitMx=.10000D-02 MixMth= 1
 Mixed Optimization -- RFO/linear search
 Second derivative matrix not updated -- first step.
 The second derivative matrix:
                          R1        R2        A1        A2
           R1           1.27794
           R2           0.00000   0.37357
           A1           0.00000   0.00000   0.00513
           A2           0.00000   0.00000   0.00000   0.00513
 ITU=  0
     Eigenvalues ---    0.00513   0.00513   0.37357   1.27794
 RFO step:  Lambda=-2.55934496D-04 EMin= 5.12619801D-03
 Linear search not attempted -- first point.
 Iteration  1 RMS(Cart)=  0.00926718 RMS(Int)=  0.00000000
 Iteration  2 RMS(Cart)=  0.00000000 RMS(Int)=  0.00000000
 ITry= 1 IFail=0 DXMaxC= 1.35D-02 DCOld= 1.00D+10 DXMaxT= 3.00D-01 DXLimC= 3.00D+00 Rises=F
 ClnCor:  largest displacement from symmetrization is 0.00D+00 for atom     0.
 Variable       Old X    -DE/DX   Delta X   Delta X   Delta X     New X
                                 (Linear)    (Quad)   (Total)
    R1        2.19208   0.01513   0.00000   0.01184   0.01184   2.20392
    R2        2.02012   0.00536   0.00000   0.01433   0.01433   2.03445
    A1        3.14159   0.00000   0.00000   0.00000   0.00000   3.14159
    A2        3.14159   0.00000   0.00000   0.00000   0.00000   3.14159
         Item               Value     Threshold  Converged?
 Maximum Force            0.015132     0.000450     NO 
 RMS     Force            0.008026     0.000300     NO 
 Maximum Displacement     0.013502     0.001800     NO 
 RMS     Displacement     0.009267     0.001200     NO 
 Predicted change in Energy=-1.280115D-04
 Lowest energy point so far.  Saving SCF results.
 GradGradGradGradGradGradGradGradGradGradGradGradGradGradGradGradGradGrad

 Leave Link  103 at Thu Mar 17 13:22:02 2016, MaxMem=   524288000 cpu:         0.0
 (Enter /mnt/data/applications/G09/g09/l202.exe)
                          Input orientation:                          
 ---------------------------------------------------------------------
 Center     Atomic      Atomic             Coordinates (Angstroms)
 Number     Number       Type             X           Y           Z
 ---------------------------------------------------------------------
      1          6           0        0.325350    1.257521    0.000000
      2          7           0        1.491614    1.257521    0.000000
      3          1           0       -0.751235    1.257521    0.000000
 ---------------------------------------------------------------------
                    Distance matrix (angstroms):
                    1          2          3
     1  C    0.000000
     2  N    1.166265   0.000000
     3  H    1.076585   2.242850   0.000000
 Stoichiometry    CHN
 Framework group  C*V[C*(HCN)]
 Deg. of freedom     2
 Full point group                 C*V     NOp   4
 RotChk:  IX=0 Diff= 0.00D+00
 Largest Abelian subgroup         C2V     NOp   4
 Largest concise Abelian subgroup C1      NOp   1
                         Standard orientation:                         
 ---------------------------------------------------------------------
 Center     Atomic      Atomic             Coordinates (Angstroms)
 Number     Number       Type             X           Y           Z
 ---------------------------------------------------------------------
      1          6           0        0.000000    0.000000   -0.506233
      2          7           0        0.000000    0.000000    0.660031
      3          1           0        0.000000    0.000000   -1.582818
 ---------------------------------------------------------------------
 Rotational constants (GHZ):      0.0000000     43.5335375     43.5335375
 Leave Link  202 at Thu Mar 17 13:22:02 2016, MaxMem=   524288000 cpu:         0.0
 (Enter /mnt/data/applications/G09/g09/l301.exe)
 Standard basis: 6-31G(d) (6D, 7F)
 Ernie: Thresh=  0.10000D-02 Tol=  0.10000D-05 Strict=F.
 There are    18 symmetry adapted cartesian basis functions of A1  symmetry.
 There are     2 symmetry adapted cartesian basis functions of A2  symmetry.
 There are     6 symmetry adapted cartesian basis functions of B1  symmetry.
 There are     6 symmetry adapted cartesian basis functions of B2  symmetry.
 There are    18 symmetry adapted basis functions of A1  symmetry.
 There are     2 symmetry adapted basis functions of A2  symmetry.
 There are     6 symmetry adapted basis functions of B1  symmetry.
 There are     6 symmetry adapted basis functions of B2  symmetry.
    32 basis functions,    60 primitive gaussians,    32 cartesian basis functions
     7 alpha electrons        7 beta electrons
       nuclear repulsion energy        23.6577247607 Hartrees.
 IExCor= 3630 DFT=T Ex+Corr=B97D ExCW=0 ScaHFX=  0.000000
 ScaDFX=  1.000000  1.000000  1.000000  1.000000 ScalE2=  1.000000  1.000000
 IRadAn=      0 IRanWt=     -1 IRanGd=            0 ICorTp=0 IEmpDi=121
 NAtoms=    3 NActive=    3 NUniq=    3 SFac= 1.00D+00 NAtFMM=   60 NAOKFM=F Big=F
 Integral buffers will be    131072 words long.
 Raffenetti 2 integral format.
 Two-electron integral symmetry is turned on.
 R6Disp:  Grimme-D2 Dispersion energy=       -0.0003380519 Hartrees.
 Nuclear repulsion after empirical dispersion term =       23.6573867088 Hartrees.
 Leave Link  301 at Thu Mar 17 13:22:02 2016, MaxMem=   524288000 cpu:         0.2
 (Enter /mnt/data/applications/G09/g09/l302.exe)
 NPDir=0 NMtPBC=     1 NCelOv=     1 NCel=       1 NClECP=     1 NCelD=      1
         NCelK=      1 NCelE2=     1 NClLst=     1 CellRange=     0.0.
 One-electron integrals computed using PRISM.
 NBasis=    32 RedAO= T EigKep=  6.20D-03  NBF=    18     2     6     6
 NBsUse=    32 1.00D-06 EigRej= -1.00D+00 NBFU=    18     2     6     6
 Precomputing XC quadrature grid using
 IXCGrd= 4 IRadAn=           0 IRanWt=          -1 IRanGd=           0 AccXCQ= 0.00D+00.
 Generated NRdTot=       0 NPtTot=           0 NUsed=           0 NTot=          32
 NSgBfM=    32    32    32    32    32 MxSgAt=     3 MxSgA2=     3.
 Leave Link  302 at Thu Mar 17 13:22:02 2016, MaxMem=   524288000 cpu:         0.6
 (Enter /mnt/data/applications/G09/g09/l303.exe)
 DipDrv:  MaxL=1.
 Leave Link  303 at Thu Mar 17 13:22:02 2016, MaxMem=   524288000 cpu:         0.1
 (Enter /mnt/data/applications/G09/g09/l401.exe)
 Initial guess from the checkpoint file:  "HCN.chk"
 B after Tr=     0.000000    0.000000    0.000000
         Rot=    1.000000    0.000000    0.000000    0.000000 Ang=   0.00 deg.
 Guess basis will be translated and rotated to current coordinates.
 JPrj=2 DoOrth=T DoCkMO=T.
 Initial guess orbital symmetries:
       Occupied  (SG) (SG) (SG) (SG) (SG) (PI) (PI)
       Virtual   (SG) (SG) (SG) (SG) (SG) (SG) (DLTA) (SG) (DLTA)
                 (SG) (SG) (SG) (SG) (DLTA) (DLTA) (PI) (PI) (PI)
                 (PI) (PI) (PI) (PI) (PI) (PI) (PI)
 The electronic state of the initial guess is 1-SG.
 Leave Link  401 at Thu Mar 17 13:22:02 2016, MaxMem=   524288000 cpu:         0.4
 (Enter /mnt/data/applications/G09/g09/l502.exe)
 Closed shell SCF:
 Using DIIS extrapolation, IDIIS=  1040.
 Integral symmetry usage will be decided dynamically.
 Keep J ints in memory in symmetry-blocked form, NReq=1023928.
 IVT=       22096 IEndB=       22096 NGot=   524288000 MDV=   524223145
 LenX=   524223145 LenY=   524221680
 Requested convergence on RMS density matrix=1.00D-08 within 128 cycles.
 Requested convergence on MAX density matrix=1.00D-06.
 Requested convergence on             energy=1.00D-06.
 No special actions if energy rises.
 FoFCou: FMM=F IPFlag=           0 FMFlag=           0 FMFlg1=           0
         NFxFlg=           0 DoJE=F BraDBF=F KetDBF=F FulRan=T
         wScrn=  0.000000 ICntrl=     600 IOpCl=  0 I1Cent=           0 NGrid=           0
         NMat0=    1 NMatS0=    528 NMatT0=    0 NMatD0=    1 NMtDS0=    0 NMtDT0=    0
 Petite list used in FoFCou.

 Cycle   1  Pass 1  IDiag  1:
 E= -93.3588206233660    
 DIIS: error= 7.67D-04 at cycle   1 NSaved=   1.
 NSaved= 1 IEnMin= 1 EnMin= -93.3588206233660     IErMin= 1 ErrMin= 7.67D-04
 ErrMax= 7.67D-04  0.00D+00 EMaxC= 1.00D-01 BMatC= 2.24D-05 BMatP= 2.24D-05
 IDIUse=3 WtCom= 9.92D-01 WtEn= 7.67D-03
 Coeff-Com:  0.100D+01
 Coeff-En:   0.100D+01
 Coeff:      0.100D+01
 Gap=     1.439 Goal=   None    Shift=    0.000
 RMSDP=2.99D-04 MaxDP=1.96D-03              OVMax= 2.67D-03

 Cycle   2  Pass 1  IDiag  1:
 E= -93.3588420284329     Delta-E=       -0.000021405067 Rises=F Damp=F
 DIIS: error= 4.86D-04 at cycle   2 NSaved=   2.
 NSaved= 2 IEnMin= 2 EnMin= -93.3588420284329     IErMin= 2 ErrMin= 4.86D-04
 ErrMax= 4.86D-04  0.00D+00 EMaxC= 1.00D-01 BMatC= 8.63D-06 BMatP= 2.24D-05
 IDIUse=3 WtCom= 9.95D-01 WtEn= 4.86D-03
 Coeff-Com:  0.364D+00 0.636D+00
 Coeff-En:   0.000D+00 0.100D+01
 Coeff:      0.362D+00 0.638D+00
 Gap=     0.300 Goal=   None    Shift=    0.000
 RMSDP=1.19D-04 MaxDP=8.98D-04 DE=-2.14D-05 OVMax= 1.06D-03

 Cycle   3  Pass 1  IDiag  1:
 E= -93.3588503978773     Delta-E=       -0.000008369444 Rises=F Damp=F
 DIIS: error= 1.25D-04 at cycle   3 NSaved=   3.
 NSaved= 3 IEnMin= 3 EnMin= -93.3588503978773     IErMin= 3 ErrMin= 1.25D-04
 ErrMax= 1.25D-04  0.00D+00 EMaxC= 1.00D-01 BMatC= 6.12D-07 BMatP= 8.63D-06
 IDIUse=3 WtCom= 9.99D-01 WtEn= 1.25D-03
 Coeff-Com:  0.590D-01 0.225D+00 0.716D+00
 Coeff-En:   0.000D+00 0.000D+00 0.100D+01
 Coeff:      0.589D-01 0.225D+00 0.716D+00
 Gap=     0.300 Goal=   None    Shift=    0.000
 RMSDP=3.34D-05 MaxDP=3.44D-04 DE=-8.37D-06 OVMax= 5.64D-04

 Cycle   4  Pass 1  IDiag  1:
 E= -93.3588500778495     Delta-E=        0.000000320028 Rises=F Damp=F
 DIIS: error= 2.43D-04 at cycle   4 NSaved=   4.
 NSaved= 4 IEnMin= 3 EnMin= -93.3588503978773     IErMin= 3 ErrMin= 1.25D-04
 ErrMax= 2.43D-04  0.00D+00 EMaxC= 1.00D-01 BMatC= 1.06D-06 BMatP= 6.12D-07
 IDIUse=3 WtCom= 3.91D-01 WtEn= 6.09D-01
 Coeff-Com:  0.238D-01 0.141D+00 0.574D+00 0.261D+00
 Coeff-En:   0.000D+00 0.000D+00 0.590D+00 0.410D+00
 Coeff:      0.931D-02 0.551D-01 0.584D+00 0.352D+00
 Gap=     0.300 Goal=   None    Shift=    0.000
 RMSDP=2.85D-05 MaxDP=2.96D-04 DE= 3.20D-07 OVMax= 4.93D-04

 Cycle   5  Pass 1  IDiag  1:
 E= -93.3588508691658     Delta-E=       -0.000000791316 Rises=F Damp=F
 DIIS: error= 7.64D-05 at cycle   5 NSaved=   5.
 NSaved= 5 IEnMin= 5 EnMin= -93.3588508691658     IErMin= 5 ErrMin= 7.64D-05
 ErrMax= 7.64D-05  0.00D+00 EMaxC= 1.00D-01 BMatC= 1.57D-07 BMatP= 6.12D-07
 IDIUse=1 WtCom= 1.00D+00 WtEn= 0.00D+00
 Coeff-Com:  0.119D-02 0.203D-02 0.190D+00 0.262D+00 0.544D+00
 Coeff:      0.119D-02 0.203D-02 0.190D+00 0.262D+00 0.544D+00
 Gap=     0.300 Goal=   None    Shift=    0.000
 RMSDP=1.10D-05 MaxDP=8.86D-05 DE=-7.91D-07 OVMax= 1.38D-04

 Cycle   6  Pass 1  IDiag  1:
 E= -93.3588510209644     Delta-E=       -0.000000151799 Rises=F Damp=F
 DIIS: error= 4.08D-06 at cycle   6 NSaved=   6.
 NSaved= 6 IEnMin= 6 EnMin= -93.3588510209644     IErMin= 6 ErrMin= 4.08D-06
 ErrMax= 4.08D-06  0.00D+00 EMaxC= 1.00D-01 BMatC= 2.54D-10 BMatP= 1.57D-07
 IDIUse=1 WtCom= 1.00D+00 WtEn= 0.00D+00
 Coeff-Com: -0.970D-04-0.203D-02 0.225D-01 0.282D-01 0.944D-01 0.857D+00
 Coeff:     -0.970D-04-0.203D-02 0.225D-01 0.282D-01 0.944D-01 0.857D+00
 Gap=     0.300 Goal=   None    Shift=    0.000
 RMSDP=4.29D-07 MaxDP=3.17D-06 DE=-1.52D-07 OVMax= 6.91D-06

 Cycle   7  Pass 1  IDiag  1:
 E= -93.3588510212299     Delta-E=       -0.000000000265 Rises=F Damp=F
 DIIS: error= 1.63D-07 at cycle   7 NSaved=   7.
 NSaved= 7 IEnMin= 7 EnMin= -93.3588510212299     IErMin= 7 ErrMin= 1.63D-07
 ErrMax= 1.63D-07  0.00D+00 EMaxC= 1.00D-01 BMatC= 4.59D-13 BMatP= 2.54D-10
 IDIUse=1 WtCom= 1.00D+00 WtEn= 0.00D+00
 Coeff-Com: -0.877D-05-0.187D-03 0.161D-02 0.261D-02 0.766D-02 0.805D-01
 Coeff-Com:  0.908D+00
 Coeff:     -0.877D-05-0.187D-03 0.161D-02 0.261D-02 0.766D-02 0.805D-01
 Coeff:      0.908D+00
 Gap=     0.300 Goal=   None    Shift=    0.000
 RMSDP=1.28D-08 MaxDP=1.27D-07 DE=-2.65D-10 OVMax= 2.51D-07

 Cycle   8  Pass 1  IDiag  1:
 E= -93.3588510212305     Delta-E=       -0.000000000001 Rises=F Damp=F
 DIIS: error= 6.75D-09 at cycle   8 NSaved=   8.
 NSaved= 8 IEnMin= 8 EnMin= -93.3588510212305     IErMin= 8 ErrMin= 6.75D-09
 ErrMax= 6.75D-09  0.00D+00 EMaxC= 1.00D-01 BMatC= 1.13D-15 BMatP= 4.59D-13
 IDIUse=1 WtCom= 1.00D+00 WtEn= 0.00D+00
 Coeff-Com: -0.233D-05-0.364D-04 0.286D-03 0.512D-03 0.139D-02 0.153D-01
 Coeff-Com:  0.216D+00 0.767D+00
 Coeff:     -0.233D-05-0.364D-04 0.286D-03 0.512D-03 0.139D-02 0.153D-01
 Coeff:      0.216D+00 0.767D+00
 Gap=     0.300 Goal=   None    Shift=    0.000
 RMSDP=1.09D-09 MaxDP=6.88D-09 DE=-5.97D-13 OVMax= 1.24D-08

 SCF Done:  E(RB97D) =  -93.3588510212     A.U. after    8 cycles
            NFock=  8  Conv=0.11D-08     -V/T= 2.0088
 KE= 9.254274740381D+01 PE=-2.649604208522D+02 EE= 5.540143571831D+01
 Leave Link  502 at Thu Mar 17 13:22:03 2016, MaxMem=   524288000 cpu:         1.0
 (Enter /mnt/data/applications/G09/g09/l701.exe)
 Compute integral first derivatives.
 ... and contract with generalized density number  0.
 R6Disp: Adding Grimme-D2 dispersion energy 1st derivatives to the gradient.
 Leave Link  701 at Thu Mar 17 13:22:03 2016, MaxMem=   524288000 cpu:         0.6
 (Enter /mnt/data/applications/G09/g09/l702.exe)
 L702 exits ... SP integral derivatives will be done elsewhere.
 Leave Link  702 at Thu Mar 17 13:22:03 2016, MaxMem=   524288000 cpu:         0.1
 (Enter /mnt/data/applications/G09/g09/l703.exe)
 Compute integral first derivatives, UseDBF=F ICtDFT=           0.
 Integral derivatives from FoFJK, PRISM(SPDF).
 Calling FoFJK, ICntrl=      2527 FMM=F ISym2X=1 I1Cent= 0 IOpClX= 0 NMat=1 NMatS=1 NMatT=0.
 FoFJK:  IHMeth= 1 ICntrl=    2527 DoSepK=F KAlg= 0 I1Cent=   0 FoldK=F
 IRaf=         0 NMat=   1 IRICut=       1 DoRegI=T DoRafI=F ISym2E= 1.
 FoFCou: FMM=F IPFlag=           0 FMFlag=      100000 FMFlg1=         800
         NFxFlg=           0 DoJE=F BraDBF=F KetDBF=F FulRan=T
         wScrn=  0.000000 ICntrl=    2527 IOpCl=  0 I1Cent=           0 NGrid=           0
         NMat0=    1 NMatS0=      1 NMatT0=    0 NMatD0=    1 NMtDS0=    0 NMtDT0=    0
 Petite list used in FoFCou.
 Leave Link  703 at Thu Mar 17 13:22:03 2016, MaxMem=   524288000 cpu:         0.7
 (Enter /mnt/data/applications/G09/g09/l716.exe)
 Dipole        = 0.00000000D+00 0.00000000D+00-1.11856540D+00
 ***** Axes restored to original set *****
 -------------------------------------------------------------------
 Center     Atomic                   Forces (Hartrees/Bohr)
 Number     Number              X              Y              Z
 -------------------------------------------------------------------
      1        6          -0.000848333    0.000000000    0.000000000
      2        7           0.000668575    0.000000000    0.000000000
      3        1           0.000179758    0.000000000    0.000000000
 -------------------------------------------------------------------
 Cartesian Forces:  Max     0.000848333 RMS     0.000364992
 Leave Link  716 at Thu Mar 17 13:22:03 2016, MaxMem=   524288000 cpu:         0.1
 (Enter /mnt/data/applications/G09/g09/l103.exe)

 GradGradGradGradGradGradGradGradGradGradGradGradGradGradGradGradGradGrad
 Berny optimization.
 Using GEDIIS/GDIIS optimizer.
 Red2BG is reusing G-inverse.
 Internal  Forces:  Max     0.000668575 RMS     0.000346159
 Search for a local minimum.
 Step number   2 out of a maximum of   20
 All quantities printed in internal units (Hartrees-Bohrs-Radians)
 RMS Force = .34616D-03 SwitMx=.10000D-02 MixMth= 2
 Mixed Optimization -- En-DIIS/RFO-DIIS
 Update second derivatives using D2CorX and points    1    2
 DE= -1.30D-04 DEPred=-1.28D-04 R= 1.01D+00
 TightC=F SS=  1.41D+00  RLast= 1.86D-02 DXNew= 5.0454D-01 5.5771D-02
 Trust test= 1.01D+00 RLast= 1.86D-02 DXMaxT set to 3.00D-01
 The second derivative matrix:
                          R1        R2        A1        A2
           R1           1.21809
           R2           0.00300   0.38389
           A1           0.00000   0.00000   0.00513
           A2           0.00000   0.00000   0.00000   0.00513
 ITU=  1  0
 Use linear search instead of GDIIS.
     Eigenvalues ---    0.00513   0.00513   0.38388   1.21810
 RFO step:  Lambda=-3.33806187D-07 EMin= 5.12619801D-03
 Quartic linear search produced a step of  0.02177.
 Iteration  1 RMS(Cart)=  0.00020944 RMS(Int)=  0.00000000
 Iteration  2 RMS(Cart)=  0.00000000 RMS(Int)=  0.00000001
 ITry= 1 IFail=0 DXMaxC= 3.38D-04 DCOld= 1.00D+10 DXMaxT= 3.00D-01 DXLimC= 3.00D+00 Rises=F
 ClnCor:  largest displacement from symmetrization is 2.22D-16 for atom     3.
 Variable       Old X    -DE/DX   Delta X   Delta X   Delta X     New X
                                 (Linear)    (Quad)   (Total)
    R1        2.20392   0.00067   0.00026   0.00030   0.00055   2.20447
    R2        2.03445  -0.00018   0.00031  -0.00077  -0.00046   2.03399
    A1        3.14159   0.00000   0.00000   0.00000   0.00000   3.14159
    A2        3.14159   0.00000   0.00000   0.00000   0.00000   3.14159
         Item               Value     Threshold  Converged?
 Maximum Force            0.000669     0.000450     NO 
 RMS     Force            0.000346     0.000300     NO 
 Maximum Displacement     0.000338     0.001800     YES
 RMS     Displacement     0.000209     0.001200     YES
 Predicted change in Energy=-2.263052D-07
 Lowest energy point so far.  Saving SCF results.
 GradGradGradGradGradGradGradGradGradGradGradGradGradGradGradGradGradGrad

 Leave Link  103 at Thu Mar 17 13:22:03 2016, MaxMem=   524288000 cpu:         0.0
 (Enter /mnt/data/applications/G09/g09/l202.exe)
                          Input orientation:                          
 ---------------------------------------------------------------------
 Center     Atomic      Atomic             Coordinates (Angstroms)
 Number     Number       Type             X           Y           Z
 ---------------------------------------------------------------------
      1          6           0        0.325171    1.257521    0.000000
      2          7           0        1.491729    1.257521    0.000000
      3          1           0       -0.751170    1.257521    0.000000
 ---------------------------------------------------------------------
                    Distance matrix (angstroms):
                    1          2          3
     1  C    0.000000
     2  N    1.166557   0.000000
     3  H    1.076342   2.242899   0.000000
 Stoichiometry    CHN
 Framework group  C*V[C*(HCN)]
 Deg. of freedom     2
 Full point group                 C*V     NOp   4
 RotChk:  IX=0 Diff= 0.00D+00
 Largest Abelian subgroup         C2V     NOp   4
 Largest concise Abelian subgroup C1      NOp   1
                         Standard orientation:                         
 ---------------------------------------------------------------------
 Center     Atomic      Atomic             Coordinates (Angstroms)
 Number     Number       Type             X           Y           Z
 ---------------------------------------------------------------------
      1          6           0        0.000000    0.000000   -0.506397
      2          7           0        0.000000    0.000000    0.660160
      3          1           0        0.000000    0.000000   -1.582739
 ---------------------------------------------------------------------
 Rotational constants (GHZ):      0.0000000     43.5180532     43.5180532
 Leave Link  202 at Thu Mar 17 13:22:03 2016, MaxMem=   524288000 cpu:         0.0
 (Enter /mnt/data/applications/G09/g09/l301.exe)
 Standard basis: 6-31G(d) (6D, 7F)
 Ernie: Thresh=  0.10000D-02 Tol=  0.10000D-05 Strict=F.
 There are    18 symmetry adapted cartesian basis functions of A1  symmetry.
 There are     2 symmetry adapted cartesian basis functions of A2  symmetry.
 There are     6 symmetry adapted cartesian basis functions of B1  symmetry.
 There are     6 symmetry adapted cartesian basis functions of B2  symmetry.
 There are    18 symmetry adapted basis functions of A1  symmetry.
 There are     2 symmetry adapted basis functions of A2  symmetry.
 There are     6 symmetry adapted basis functions of B1  symmetry.
 There are     6 symmetry adapted basis functions of B2  symmetry.
    32 basis functions,    60 primitive gaussians,    32 cartesian basis functions
     7 alpha electrons        7 beta electrons
       nuclear repulsion energy        23.6535719617 Hartrees.
 IExCor= 3630 DFT=T Ex+Corr=B97D ExCW=0 ScaHFX=  0.000000
 ScaDFX=  1.000000  1.000000  1.000000  1.000000 ScalE2=  1.000000  1.000000
 IRadAn=      0 IRanWt=     -1 IRanGd=            0 ICorTp=0 IEmpDi=121
 NAtoms=    3 NActive=    3 NUniq=    3 SFac= 1.00D+00 NAtFMM=   60 NAOKFM=F Big=F
 Integral buffers will be    131072 words long.
 Raffenetti 2 integral format.
 Two-electron integral symmetry is turned on.
 R6Disp:  Grimme-D2 Dispersion energy=       -0.0003381156 Hartrees.
 Nuclear repulsion after empirical dispersion term =       23.6532338461 Hartrees.
 Leave Link  301 at Thu Mar 17 13:22:03 2016, MaxMem=   524288000 cpu:         0.2
 (Enter /mnt/data/applications/G09/g09/l302.exe)
 NPDir=0 NMtPBC=     1 NCelOv=     1 NCel=       1 NClECP=     1 NCelD=      1
         NCelK=      1 NCelE2=     1 NClLst=     1 CellRange=     0.0.
 One-electron integrals computed using PRISM.
 NBasis=    32 RedAO= T EigKep=  6.21D-03  NBF=    18     2     6     6
 NBsUse=    32 1.00D-06 EigRej= -1.00D+00 NBFU=    18     2     6     6
 Precomputing XC quadrature grid using
 IXCGrd= 4 IRadAn=           0 IRanWt=          -1 IRanGd=           0 AccXCQ= 0.00D+00.
 Generated NRdTot=       0 NPtTot=           0 NUsed=           0 NTot=          32
 NSgBfM=    32    32    32    32    32 MxSgAt=     3 MxSgA2=     3.
 Leave Link  302 at Thu Mar 17 13:22:04 2016, MaxMem=   524288000 cpu:         0.6
 (Enter /mnt/data/applications/G09/g09/l303.exe)
 DipDrv:  MaxL=1.
 Leave Link  303 at Thu Mar 17 13:22:04 2016, MaxMem=   524288000 cpu:         0.1
 (Enter /mnt/data/applications/G09/g09/l401.exe)
 Initial guess from the checkpoint file:  "HCN.chk"
 B after Tr=     0.000000    0.000000    0.000000
         Rot=    1.000000    0.000000    0.000000    0.000000 Ang=   0.00 deg.
 Guess basis will be translated and rotated to current coordinates.
 JPrj=2 DoOrth=T DoCkMO=T.
 Initial guess orbital symmetries:
       Occupied  (SG) (SG) (SG) (SG) (SG) (PI) (PI)
       Virtual   (SG) (SG) (SG) (SG) (SG) (SG) (DLTA) (SG) (DLTA)
                 (SG) (SG) (SG) (SG) (DLTA) (DLTA) (PI) (PI) (PI)
                 (PI) (PI) (PI) (PI) (PI) (PI) (PI)
 The electronic state of the initial guess is 1-SG.
 Leave Link  401 at Thu Mar 17 13:22:04 2016, MaxMem=   524288000 cpu:         0.4
 (Enter /mnt/data/applications/G09/g09/l502.exe)
 Closed shell SCF:
 Using DIIS extrapolation, IDIIS=  1040.
 Integral symmetry usage will be decided dynamically.
 Keep J ints in memory in symmetry-blocked form, NReq=1023928.
 IVT=       22096 IEndB=       22096 NGot=   524288000 MDV=   524223145
 LenX=   524223145 LenY=   524221680
 Requested convergence on RMS density matrix=1.00D-08 within 128 cycles.
 Requested convergence on MAX density matrix=1.00D-06.
 Requested convergence on             energy=1.00D-06.
 No special actions if energy rises.
 FoFCou: FMM=F IPFlag=           0 FMFlag=           0 FMFlg1=           0
         NFxFlg=           0 DoJE=F BraDBF=F KetDBF=F FulRan=T
         wScrn=  0.000000 ICntrl=     600 IOpCl=  0 I1Cent=           0 NGrid=           0
         NMat0=    1 NMatS0=    528 NMatT0=    0 NMatD0=    1 NMtDS0=    0 NMtDT0=    0
 Petite list used in FoFCou.

 Cycle   1  Pass 1  IDiag  1:
 E= -93.3588511842332    
 DIIS: error= 3.35D-05 at cycle   1 NSaved=   1.
 NSaved= 1 IEnMin= 1 EnMin= -93.3588511842332     IErMin= 1 ErrMin= 3.35D-05
 ErrMax= 3.35D-05  0.00D+00 EMaxC= 1.00D-01 BMatC= 4.60D-08 BMatP= 4.60D-08
 IDIUse=1 WtCom= 1.00D+00 WtEn= 0.00D+00
 Coeff-Com:  0.100D+01
 Coeff:      0.100D+01
 Gap=     1.441 Goal=   None    Shift=    0.000
 RMSDP=1.43D-05 MaxDP=1.09D-04              OVMax= 1.24D-04

 Cycle   2  Pass 1  IDiag  1:
 E= -93.3588511839277     Delta-E=        0.000000000306 Rises=F Damp=F
 DIIS: error= 5.26D-05 at cycle   2 NSaved=   2.
 NSaved= 2 IEnMin= 1 EnMin= -93.3588511842332     IErMin= 1 ErrMin= 3.35D-05
 ErrMax= 5.26D-05  0.00D+00 EMaxC= 1.00D-01 BMatC= 6.58D-08 BMatP= 4.60D-08
 IDIUse=1 WtCom= 1.00D+00 WtEn= 0.00D+00
 Coeff-Com:  0.557D+00 0.443D+00
 Coeff:      0.557D+00 0.443D+00
 Gap=     0.299 Goal=   None    Shift=    0.000
 RMSDP=9.72D-06 MaxDP=1.01D-04 DE= 3.06D-10 OVMax= 1.70D-04

 Cycle   3  Pass 1  IDiag  1:
 E= -93.3588511925781     Delta-E=       -0.000000008650 Rises=F Damp=F
 DIIS: error= 5.70D-05 at cycle   3 NSaved=   3.
 NSaved= 3 IEnMin= 3 EnMin= -93.3588511925781     IErMin= 1 ErrMin= 3.35D-05
 ErrMax= 5.70D-05  0.00D+00 EMaxC= 1.00D-01 BMatC= 5.52D-08 BMatP= 4.60D-08
 IDIUse=1 WtCom= 1.00D+00 WtEn= 0.00D+00
 Coeff-Com:  0.203D+00 0.422D+00 0.375D+00
 Coeff:      0.203D+00 0.422D+00 0.375D+00
 Gap=     0.299 Goal=   None    Shift=    0.000
 RMSDP=4.75D-06 MaxDP=4.86D-05 DE=-8.65D-09 OVMax= 9.25D-05

 Cycle   4  Pass 1  IDiag  1:
 E= -93.3588512422486     Delta-E=       -0.000000049671 Rises=F Damp=F
 DIIS: error= 4.16D-06 at cycle   4 NSaved=   4.
 NSaved= 4 IEnMin= 4 EnMin= -93.3588512422486     IErMin= 4 ErrMin= 4.16D-06
 ErrMax= 4.16D-06  0.00D+00 EMaxC= 1.00D-01 BMatC= 6.91D-10 BMatP= 4.60D-08
 IDIUse=1 WtCom= 1.00D+00 WtEn= 0.00D+00
 Coeff-Com:  0.182D-01 0.129D+00 0.164D+00 0.689D+00
 Coeff:      0.182D-01 0.129D+00 0.164D+00 0.689D+00
 Gap=     0.299 Goal=   None    Shift=    0.000
 RMSDP=9.04D-07 MaxDP=8.06D-06 DE=-4.97D-08 OVMax= 1.01D-05

 Cycle   5  Pass 1  IDiag  1:
 E= -93.3588512429482     Delta-E=       -0.000000000700 Rises=F Damp=F
 DIIS: error= 4.57D-07 at cycle   5 NSaved=   5.
 NSaved= 5 IEnMin= 5 EnMin= -93.3588512429482     IErMin= 5 ErrMin= 4.57D-07
 ErrMax= 4.57D-07  0.00D+00 EMaxC= 1.00D-01 BMatC= 7.81D-12 BMatP= 6.91D-10
 IDIUse=1 WtCom= 1.00D+00 WtEn= 0.00D+00
 Coeff-Com: -0.166D-03 0.152D-01 0.279D-01 0.166D+00 0.791D+00
 Coeff:     -0.166D-03 0.152D-01 0.279D-01 0.166D+00 0.791D+00
 Gap=     0.299 Goal=   None    Shift=    0.000
 RMSDP=1.08D-07 MaxDP=7.08D-07 DE=-7.00D-10 OVMax= 1.30D-06

 Cycle   6  Pass 1  IDiag  1:
 E= -93.3588512429570     Delta-E=       -0.000000000009 Rises=F Damp=F
 DIIS: error= 2.90D-08 at cycle   6 NSaved=   6.
 NSaved= 6 IEnMin= 6 EnMin= -93.3588512429570     IErMin= 6 ErrMin= 2.90D-08
 ErrMax= 2.90D-08  0.00D+00 EMaxC= 1.00D-01 BMatC= 3.97D-14 BMatP= 7.81D-12
 IDIUse=1 WtCom= 1.00D+00 WtEn= 0.00D+00
 Coeff-Com: -0.113D-03 0.820D-03 0.285D-02 0.186D-01 0.127D+00 0.851D+00
 Coeff:     -0.113D-03 0.820D-03 0.285D-02 0.186D-01 0.127D+00 0.851D+00
 Gap=     0.299 Goal=   None    Shift=    0.000
 RMSDP=5.54D-09 MaxDP=5.05D-08 DE=-8.80D-12 OVMax= 5.35D-08

 SCF Done:  E(RB97D) =  -93.3588512430     A.U. after    6 cycles
            NFock=  6  Conv=0.55D-08     -V/T= 2.0088
 KE= 9.254171251889D+01 PE=-2.649510892345D+02 EE= 5.539729162660D+01
 Leave Link  502 at Thu Mar 17 13:22:04 2016, MaxMem=   524288000 cpu:         0.8
 (Enter /mnt/data/applications/G09/g09/l701.exe)
 Compute integral first derivatives.
 ... and contract with generalized density number  0.
 R6Disp: Adding Grimme-D2 dispersion energy 1st derivatives to the gradient.
 Leave Link  701 at Thu Mar 17 13:22:04 2016, MaxMem=   524288000 cpu:         0.6
 (Enter /mnt/data/applications/G09/g09/l702.exe)
 L702 exits ... SP integral derivatives will be done elsewhere.
 Leave Link  702 at Thu Mar 17 13:22:04 2016, MaxMem=   524288000 cpu:         0.1
 (Enter /mnt/data/applications/G09/g09/l703.exe)
 Compute integral first derivatives, UseDBF=F ICtDFT=           0.
 Integral derivatives from FoFJK, PRISM(SPDF).
 Calling FoFJK, ICntrl=      2527 FMM=F ISym2X=1 I1Cent= 0 IOpClX= 0 NMat=1 NMatS=1 NMatT=0.
 FoFJK:  IHMeth= 1 ICntrl=    2527 DoSepK=F KAlg= 0 I1Cent=   0 FoldK=F
 IRaf=         0 NMat=   1 IRICut=       1 DoRegI=T DoRafI=F ISym2E= 1.
 FoFCou: FMM=F IPFlag=           0 FMFlag=      100000 FMFlg1=         800
         NFxFlg=           0 DoJE=F BraDBF=F KetDBF=F FulRan=T
         wScrn=  0.000000 ICntrl=    2527 IOpCl=  0 I1Cent=           0 NGrid=           0
         NMat0=    1 NMatS0=      1 NMatT0=    0 NMatD0=    1 NMtDS0=    0 NMtDT0=    0
 Petite list used in FoFCou.
 Leave Link  703 at Thu Mar 17 13:22:04 2016, MaxMem=   524288000 cpu:         0.7
 (Enter /mnt/data/applications/G09/g09/l716.exe)
 Dipole        = 0.00000000D+00 0.00000000D+00-1.11846230D+00
 ***** Axes restored to original set *****
 -------------------------------------------------------------------
 Center     Atomic                   Forces (Hartrees/Bohr)
 Number     Number              X              Y              Z
 -------------------------------------------------------------------
      1        6           0.000017678    0.000000000    0.000000000
      2        7          -0.000009785    0.000000000    0.000000000
      3        1          -0.000007893    0.000000000    0.000000000
 -------------------------------------------------------------------
 Cartesian Forces:  Max     0.000017678 RMS     0.000007231
 Leave Link  716 at Thu Mar 17 13:22:04 2016, MaxMem=   524288000 cpu:         0.1
 (Enter /mnt/data/applications/G09/g09/l103.exe)

 GradGradGradGradGradGradGradGradGradGradGradGradGradGradGradGradGradGrad
 Berny optimization.
 Using GEDIIS/GDIIS optimizer.
 Red2BG is reusing G-inverse.
 Internal  Forces:  Max     0.000009785 RMS     0.000006286
 Search for a local minimum.
 Step number   3 out of a maximum of   20
 All quantities printed in internal units (Hartrees-Bohrs-Radians)
 RMS Force = .62859D-05 SwitMx=.10000D-02 MixMth= 2
 Mixed Optimization -- En-DIIS/RFO-DIIS
 Swapping is turned off.
 Update second derivatives using D2CorX and points    1    3
 DE= -2.22D-07 DEPred=-2.26D-07 R= 9.80D-01
 Trust test= 9.80D-01 RLast= 7.19D-04 DXMaxT set to 3.00D-01
 The second derivative matrix:
                          R1        R2        A1        A2
           R1           1.21911
           R2           0.00250   0.38341
           A1           0.00000   0.00000   0.00513
           A2           0.00000   0.00000   0.00000   0.00513
 ITU=  0  1  0
     Eigenvalues ---    0.00513   0.00513   0.38340   1.21911
 En-DIIS/RFO-DIIS IScMMF=        0 using points:     3    2
 RFO step:  Lambda= 0.00000000D+00.
 NNeg= 0 NP= 2 Switch=  2.50D-03 Rises=F DC=  2.22D-07 SmlDif=  1.00D-05
 RMS Error=  0.7775910656D-05 NUsed= 2 EDIIS=F
 DidBck=F Rises=F RFO-DIIS coefs:    0.98014    0.01986
 Iteration  1 RMS(Cart)=  0.00000711 RMS(Int)=  0.00000001
 Iteration  2 RMS(Cart)=  0.00000001 RMS(Int)=  0.00000001
 ITry= 1 IFail=0 DXMaxC= 1.07D-05 DCOld= 1.00D+10 DXMaxT= 3.00D-01 DXLimC= 3.00D+00 Rises=F
 ClnCor:  largest displacement from symmetrization is 2.02D-08 for atom     1.
 Variable       Old X    -DE/DX   Delta X   Delta X   Delta X     New X
                                 (Linear)    (Quad)   (Total)
    R1        2.20447  -0.00001  -0.00001   0.00000  -0.00001   2.20447
    R2        2.03399   0.00001   0.00001   0.00001   0.00002   2.03401
    A1        3.14159   0.00000   0.00000   0.00000   0.00000   3.14159
    A2        3.14159   0.00000   0.00000   0.00000   0.00000   3.14159
         Item               Value     Threshold  Converged?
 Maximum Force            0.000010     0.000450     YES
 RMS     Force            0.000006     0.000300     YES
 Maximum Displacement     0.000011     0.001800     YES
 RMS     Displacement     0.000007     0.001200     YES
 Predicted change in Energy=-1.208423D-10
 Optimization completed.
    -- Stationary point found.
                           ----------------------------
                           !   Optimized Parameters   !
                           ! (Angstroms and Degrees)  !
 --------------------------                            --------------------------
 ! Name  Definition              Value          Derivative Info.                !
 --------------------------------------------------------------------------------
 ! R1    R(1,2)                  1.1666         -DE/DX =    0.0                 !
 ! R2    R(1,3)                  1.0763         -DE/DX =    0.0                 !
 ! A1    L(2,1,3,-2,-1)        180.0            -DE/DX =    0.0                 !
 ! A2    L(2,1,3,-3,-2)        180.0            -DE/DX =    0.0                 !
 --------------------------------------------------------------------------------
 Lowest energy point so far.  Saving SCF results.
 GradGradGradGradGradGradGradGradGradGradGradGradGradGradGradGradGradGrad

 Largest change from initial coordinates is atom    3       0.010 Angstoms.
 Leave Link  103 at Thu Mar 17 13:22:04 2016, MaxMem=   524288000 cpu:         0.0
 (Enter /mnt/data/applications/G09/g09/l202.exe)
                          Input orientation:                          
 ---------------------------------------------------------------------
 Center     Atomic      Atomic             Coordinates (Angstroms)
 Number     Number       Type             X           Y           Z
 ---------------------------------------------------------------------
      1          6           0        0.325171    1.257521    0.000000
      2          7           0        1.491729    1.257521    0.000000
      3          1           0       -0.751170    1.257521    0.000000
 ---------------------------------------------------------------------
                    Distance matrix (angstroms):
                    1          2          3
     1  C    0.000000
     2  N    1.166557   0.000000
     3  H    1.076342   2.242899   0.000000
 Stoichiometry    CHN
 Framework group  C*V[C*(HCN)]
 Deg. of freedom     2
 Full point group                 C*V     NOp   4
 RotChk:  IX=0 Diff= 0.00D+00
 Largest Abelian subgroup         C2V     NOp   4
 Largest concise Abelian subgroup C1      NOp   1
                         Standard orientation:                         
 ---------------------------------------------------------------------
 Center     Atomic      Atomic             Coordinates (Angstroms)
 Number     Number       Type             X           Y           Z
 ---------------------------------------------------------------------
      1          6           0        0.000000    0.000000   -0.506397
      2          7           0        0.000000    0.000000    0.660160
      3          1           0        0.000000    0.000000   -1.582739
 ---------------------------------------------------------------------
 Rotational constants (GHZ):      0.0000000     43.5180532     43.5180532
 Leave Link  202 at Thu Mar 17 13:22:04 2016, MaxMem=   524288000 cpu:         0.0
 (Enter /mnt/data/applications/G09/g09/l601.exe)
 Copying SCF densities to generalized density rwf, IOpCl= 0 IROHF=0.

 **********************************************************************

            Population analysis using the SCF density.

 **********************************************************************

 Orbital symmetries:
       Occupied  (SG) (SG) (SG) (SG) (SG) (PI) (PI)
       Virtual   (PI) (PI) (SG) (SG) (PI) (PI) (SG) (SG) (PI) (PI)
                 (SG) (SG) (SG) (DLTA) (DLTA) (PI) (PI) (DLTA)
                 (DLTA) (PI) (PI) (SG) (SG) (SG) (SG)
 The electronic state is 1-SG.
 Alpha  occ. eigenvalues --  -14.03547  -9.97101  -0.83657  -0.55127  -0.32588
 Alpha  occ. eigenvalues --   -0.31486  -0.31486
 Alpha virt. eigenvalues --   -0.01549  -0.01549   0.05609   0.25816   0.49234
 Alpha virt. eigenvalues --    0.49234   0.60543   0.64764   0.73078   0.73078
 Alpha virt. eigenvalues --    0.76939   1.01398   1.38923   1.44214   1.44214
 Alpha virt. eigenvalues --    1.44878   1.44878   1.86629   1.86629   2.45811
 Alpha virt. eigenvalues --    2.45811   2.50224   2.86960   3.75804   4.01125
          Condensed to atoms (all electrons):
               1          2          3
     1  C    4.767774   0.799424   0.329208
     2  N    0.799424   6.585774  -0.034374
     3  H    0.329208  -0.034374   0.457936
 Mulliken charges:
               1
     1  C    0.103594
     2  N   -0.350823
     3  H    0.247230
 Sum of Mulliken charges =   0.00000
 Mulliken charges with hydrogens summed into heavy atoms:
               1
     1  C    0.350823
     2  N   -0.350823
 Electronic spatial extent (au):  <R**2>=             49.3056
 Charge=              0.0000 electrons
 Dipole moment (field-independent basis, Debye):
    X=              0.0000    Y=              0.0000    Z=             -2.8428  Tot=              2.8428
 Quadrupole moment (field-independent basis, Debye-Ang):
   XX=            -11.3721   YY=            -11.3721   ZZ=             -9.4979
   XY=              0.0000   XZ=              0.0000   YZ=              0.0000
 Traceless Quadrupole moment (field-independent basis, Debye-Ang):
   XX=             -0.6247   YY=             -0.6247   ZZ=              1.2495
   XY=              0.0000   XZ=              0.0000   YZ=              0.0000
 Octapole moment (field-independent basis, Debye-Ang**2):
  XXX=              0.0000  YYY=              0.0000  ZZZ=             -6.7586  XYY=              0.0000
  XXY=              0.0000  XXZ=             -0.1196  XZZ=              0.0000  YZZ=              0.0000
  YYZ=             -0.1196  XYZ=              0.0000
 Hexadecapole moment (field-independent basis, Debye-Ang**3):
 XXXX=            -10.2472 YYYY=            -10.2472 ZZZZ=            -35.1805 XXXY=              0.0000
 XXXZ=              0.0000 YYYX=              0.0000 YYYZ=              0.0000 ZZZX=              0.0000
 ZZZY=              0.0000 XXYY=             -3.4157 XXZZ=             -8.6856 YYZZ=             -8.6856
 XXYZ=              0.0000 YYXZ=              0.0000 ZZXY=              0.0000
 N-N= 2.365323384610D+01 E-N=-2.649510892257D+02  KE= 9.254171251889D+01
 Symmetry A1   KE= 8.685880982552D+01
 Symmetry A2   KE= 5.503362530810D-51
 Symmetry B1   KE= 2.841451346685D+00
 Symmetry B2   KE= 2.841451346685D+00
 No NMR shielding tensors so no spin-rotation constants.
 Leave Link  601 at Thu Mar 17 13:22:05 2016, MaxMem=   524288000 cpu:         0.5
 (Enter /mnt/data/applications/G09/g09/l9999.exe)
 1\1\GINC-KIMIK2014\FOpt\RB97D\6-31G(d)\C1H1N1\IFUNES\17-Mar-2016\0\\#p
  B97D/6-31G* opt freq\\opt freq\\0,1\C,0.3251712092,1.25752104,0.\N,1.
 4917285331,1.25752104,0.\H,-0.7511704923,1.25752104,0.\\Version=EM64L-
 G09RevD.01\State=1-SG\HF=-93.3588512\RMSD=5.542e-09\RMSF=7.231e-06\Dip
 ole=-1.1184623,0.,0.\Quadrupole=0.9289542,-0.4644771,-0.4644771,0.,0.,
 0.\PG=C*V [C*(H1C1N1)]\\@


 THERE IS NO CURE FOR BIRTH AND DEATH SAVE TO ENJOY THE INTERVAL.

                               -- GEORGE SANTAYANA
 Leave Link 9999 at Thu Mar 17 13:22:05 2016, MaxMem=   524288000 cpu:         0.1
 Job cpu time:       0 days  0 hours  0 minutes 14.7 seconds.
 File lengths (MBytes):  RWF=      5 Int=      0 D2E=      0 Chk=      2 Scr=      1
 Normal termination of Gaussian 09 at Thu Mar 17 13:22:05 2016.
 (Enter /mnt/data/applications/G09/g09/l1.exe)
 Link1:  Proceeding to internal job step number  2.
 -------------------------------------------------------------------
 #P Geom=AllCheck Guess=TCheck SCRF=Check GenChk RB97D/6-31G(d) Freq
 -------------------------------------------------------------------
 1/10=4,29=7,30=1,38=1,40=1/1,3;
 2/12=2,40=1/2;
 3/5=1,6=6,7=1,11=2,14=-4,16=1,25=1,30=1,70=2,71=2,74=-42,116=1,140=1/1,2,3;
 4/5=101/1;
 5/5=2,98=1/2;
 8/6=4,10=90,11=11/1;
 11/6=1,8=1,9=11,15=111,16=1/1,2,10;
 10/6=1/2;
 6/7=2,8=2,9=2,10=2,18=1,28=1/1;
 7/8=1,10=1,25=1/1,2,3,16;
 1/10=4,30=1/3;
 99//99;
 Leave Link    1 at Thu Mar 17 13:22:05 2016, MaxMem=   524288000 cpu:         0.1
 (Enter /mnt/data/applications/G09/g09/l101.exe)
 Structure from the checkpoint file:  "HCN.chk"
 --------
 opt freq
 --------
 Charge =  0 Multiplicity = 1
 Redundant internal coordinates found in file.
 C,0,0.3251712092,1.25752104,0.
 N,0,1.4917285331,1.25752104,0.
 H,0,-0.7511704923,1.25752104,0.
 Recover connectivity data from disk.
 NAtoms=      3 NQM=        3 NQMF=       0 NMMI=      0 NMMIF=      0
                NMic=       0 NMicF=      0.
                    Isotopes and Nuclear Properties:
 (Nuclear quadrupole moments (NQMom) in fm**2, nuclear magnetic moments (NMagM)
  in nuclear magnetons)

  Atom         1           2           3
 IAtWgt=          12          14           1
 AtmWgt=  12.0000000  14.0030740   1.0078250
 NucSpn=           0           2           1
 AtZEff=  -3.6000000  -4.5500000  -1.0000000
 NQMom=    0.0000000   2.0440000   0.0000000
 NMagM=    0.0000000   0.4037610   2.7928460
 AtZNuc=   6.0000000   7.0000000   1.0000000
 Leave Link  101 at Thu Mar 17 13:22:05 2016, MaxMem=   524288000 cpu:         0.8
 (Enter /mnt/data/applications/G09/g09/l103.exe)

 GradGradGradGradGradGradGradGradGradGradGradGradGradGradGradGradGradGrad
 Berny optimization.
 Initialization pass.
                           ----------------------------
                           !    Initial Parameters    !
                           ! (Angstroms and Degrees)  !
 --------------------------                            --------------------------
 ! Name  Definition              Value          Derivative Info.                !
 --------------------------------------------------------------------------------
 ! R1    R(1,2)                  1.1666         calculate D2E/DX2 analytically  !
 ! R2    R(1,3)                  1.0763         calculate D2E/DX2 analytically  !
 ! A1    L(2,1,3,-2,-1)        180.0            calculate D2E/DX2 analytically  !
 ! A2    L(2,1,3,-3,-2)        180.0            calculate D2E/DX2 analytically  !
 --------------------------------------------------------------------------------
 Trust Radius=3.00D-01 FncErr=1.00D-07 GrdErr=1.00D-07
 Number of steps in this run=      2 maximum allowed number of steps=      2.
 GradGradGradGradGradGradGradGradGradGradGradGradGradGradGradGradGradGrad

 Leave Link  103 at Thu Mar 17 13:22:05 2016, MaxMem=   524288000 cpu:         0.0
 (Enter /mnt/data/applications/G09/g09/l202.exe)
                          Input orientation:                          
 ---------------------------------------------------------------------
 Center     Atomic      Atomic             Coordinates (Angstroms)
 Number     Number       Type             X           Y           Z
 ---------------------------------------------------------------------
      1          6           0        0.325171    1.257521    0.000000
      2          7           0        1.491729    1.257521    0.000000
      3          1           0       -0.751170    1.257521    0.000000
 ---------------------------------------------------------------------
                    Distance matrix (angstroms):
                    1          2          3
     1  C    0.000000
     2  N    1.166557   0.000000
     3  H    1.076342   2.242899   0.000000
 Stoichiometry    CHN
 Framework group  C*V[C*(HCN)]
 Deg. of freedom     2
 Full point group                 C*V     NOp   4
 RotChk:  IX=0 Diff= 0.00D+00
 Largest Abelian subgroup         C2V     NOp   4
 Largest concise Abelian subgroup C1      NOp   1
                         Standard orientation:                         
 ---------------------------------------------------------------------
 Center     Atomic      Atomic             Coordinates (Angstroms)
 Number     Number       Type             X           Y           Z
 ---------------------------------------------------------------------
      1          6           0        0.000000    0.000000   -0.506397
      2          7           0        0.000000    0.000000    0.660160
      3          1           0        0.000000    0.000000   -1.582739
 ---------------------------------------------------------------------
 Rotational constants (GHZ):      0.0000000     43.5180532     43.5180532
 Leave Link  202 at Thu Mar 17 13:22:05 2016, MaxMem=   524288000 cpu:         0.0
 (Enter /mnt/data/applications/G09/g09/l301.exe)
 Standard basis: 6-31G(d) (6D, 7F)
 Ernie: Thresh=  0.10000D-02 Tol=  0.10000D-05 Strict=F.
 There are    18 symmetry adapted cartesian basis functions of A1  symmetry.
 There are     2 symmetry adapted cartesian basis functions of A2  symmetry.
 There are     6 symmetry adapted cartesian basis functions of B1  symmetry.
 There are     6 symmetry adapted cartesian basis functions of B2  symmetry.
 There are    18 symmetry adapted basis functions of A1  symmetry.
 There are     2 symmetry adapted basis functions of A2  symmetry.
 There are     6 symmetry adapted basis functions of B1  symmetry.
 There are     6 symmetry adapted basis functions of B2  symmetry.
    32 basis functions,    60 primitive gaussians,    32 cartesian basis functions
     7 alpha electrons        7 beta electrons
       nuclear repulsion energy        23.6535719617 Hartrees.
 IExCor= 3630 DFT=T Ex+Corr=B97D ExCW=0 ScaHFX=  0.000000
 ScaDFX=  1.000000  1.000000  1.000000  1.000000 ScalE2=  1.000000  1.000000
 IRadAn=      0 IRanWt=     -1 IRanGd=            0 ICorTp=0 IEmpDi=121
 NAtoms=    3 NActive=    3 NUniq=    3 SFac= 1.00D+00 NAtFMM=   60 NAOKFM=F Big=F
 Integral buffers will be    131072 words long.
 Raffenetti 2 integral format.
 Two-electron integral symmetry is turned on.
 R6Disp:  Grimme-D2 Dispersion energy=       -0.0003381156 Hartrees.
 Nuclear repulsion after empirical dispersion term =       23.6532338461 Hartrees.
 Leave Link  301 at Thu Mar 17 13:22:05 2016, MaxMem=   524288000 cpu:         0.2
 (Enter /mnt/data/applications/G09/g09/l302.exe)
 NPDir=0 NMtPBC=     1 NCelOv=     1 NCel=       1 NClECP=     1 NCelD=      1
         NCelK=      1 NCelE2=     1 NClLst=     1 CellRange=     0.0.
 One-electron integrals computed using PRISM.
 NBasis=    32 RedAO= T EigKep=  6.21D-03  NBF=    18     2     6     6
 NBsUse=    32 1.00D-06 EigRej= -1.00D+00 NBFU=    18     2     6     6
 Precomputing XC quadrature grid using
 IXCGrd= 4 IRadAn=           0 IRanWt=          -1 IRanGd=           0 AccXCQ= 0.00D+00.
 Generated NRdTot=       0 NPtTot=           0 NUsed=           0 NTot=          32
 NSgBfM=    32    32    32    32    32 MxSgAt=     3 MxSgA2=     3.
 Leave Link  302 at Thu Mar 17 13:22:05 2016, MaxMem=   524288000 cpu:         0.6
 (Enter /mnt/data/applications/G09/g09/l303.exe)
 DipDrv:  MaxL=1.
 Leave Link  303 at Thu Mar 17 13:22:05 2016, MaxMem=   524288000 cpu:         0.1
 (Enter /mnt/data/applications/G09/g09/l401.exe)
 Initial guess from the checkpoint file:  "HCN.chk"
 B after Tr=     0.000000    0.000000    0.000000
         Rot=    1.000000    0.000000    0.000000    0.000000 Ang=   0.00 deg.
 Guess basis will be translated and rotated to current coordinates.
 JPrj=2 DoOrth=T DoCkMO=T.
 Initial guess orbital symmetries:
       Occupied  (SG) (SG) (SG) (SG) (SG) (PI) (PI)
       Virtual   (PI) (PI) (SG) (SG) (PI) (PI) (SG) (SG) (PI) (PI)
                 (SG) (SG) (SG) (DLTA) (DLTA) (PI) (PI) (DLTA)
                 (DLTA) (PI) (PI) (SG) (SG) (SG) (SG)
 The electronic state of the initial guess is 1-SG.
 Leave Link  401 at Thu Mar 17 13:22:05 2016, MaxMem=   524288000 cpu:         0.4
 (Enter /mnt/data/applications/G09/g09/l502.exe)
 Closed shell SCF:
 Using DIIS extrapolation, IDIIS=  1040.
 Integral symmetry usage will be decided dynamically.
 Keep J ints in memory in symmetry-blocked form, NReq=1023928.
 IVT=       22096 IEndB=       22096 NGot=   524288000 MDV=   524223145
 LenX=   524223145 LenY=   524221680
 Requested convergence on RMS density matrix=1.00D-08 within 128 cycles.
 Requested convergence on MAX density matrix=1.00D-06.
 Requested convergence on             energy=1.00D-06.
 No special actions if energy rises.
 FoFCou: FMM=F IPFlag=           0 FMFlag=           0 FMFlg1=           0
         NFxFlg=           0 DoJE=F BraDBF=F KetDBF=F FulRan=T
         wScrn=  0.000000 ICntrl=     600 IOpCl=  0 I1Cent=           0 NGrid=           0
         NMat0=    1 NMatS0=    528 NMatT0=    0 NMatD0=    1 NMtDS0=    0 NMtDT0=    0
 Petite list used in FoFCou.

 Cycle   1  Pass 1  IDiag  1:
 E= -93.3588512429570    
 DIIS: error= 1.46D-09 at cycle   1 NSaved=   1.
 NSaved= 1 IEnMin= 1 EnMin= -93.3588512429570     IErMin= 1 ErrMin= 1.46D-09
 ErrMax= 1.46D-09  0.00D+00 EMaxC= 1.00D-01 BMatC= 6.41D-17 BMatP= 6.41D-17
 IDIUse=1 WtCom= 1.00D+00 WtEn= 0.00D+00
 Coeff-Com:  0.100D+01
 Coeff:      0.100D+01
 Gap=     0.299 Goal=   None    Shift=    0.000
 RMSDP=5.46D-10 MaxDP=5.47D-09              OVMax= 9.12D-09

 SCF Done:  E(RB97D) =  -93.3588512430     A.U. after    1 cycles
            NFock=  1  Conv=0.55D-09     -V/T= 2.0088
 KE= 9.254171256601D+01 PE=-2.649510892728D+02 EE= 5.539729161772D+01
 Leave Link  502 at Thu Mar 17 13:22:06 2016, MaxMem=   524288000 cpu:         0.5
 (Enter /mnt/data/applications/G09/g09/l801.exe)
 DoSCS=F DFT=T ScalE2(SS,OS)=  1.000000  1.000000
 Range of M.O.s used for correlation:     1    32
 NBasis=    32 NAE=     7 NBE=     7 NFC=     0 NFV=     0
 NROrb=     32 NOA=     7 NOB=     7 NVA=    25 NVB=    25
 Leave Link  801 at Thu Mar 17 13:22:06 2016, MaxMem=   524288000 cpu:         0.1
 (Enter /mnt/data/applications/G09/g09/l1101.exe)
 Using compressed storage, NAtomX=     3.
 Will process      4 centers per pass.
 R6Disp: Adding Grimme-D2 dispersion energy 1st derivatives to the gradient.
 Leave Link 1101 at Thu Mar 17 13:22:06 2016, MaxMem=   524288000 cpu:         0.5
 (Enter /mnt/data/applications/G09/g09/l1102.exe)
 Symmetrizing basis deriv contribution to polar:
 IMax=3 JMax=2 DiffMx= 0.00D+00
 Leave Link 1102 at Thu Mar 17 13:22:06 2016, MaxMem=   524288000 cpu:         0.1
 (Enter /mnt/data/applications/G09/g09/l1110.exe)
 Forming Gx(P) for the SCF density, NAtomX=     3.
 Integral derivatives from FoFJK, PRISM(SPDF).
 Do as many integral derivatives as possible in FoFJK.
 G2DrvN: MDV=     524287872.
 G2DrvN: will do     4 centers at a time, making    1 passes.
 Calling FoFCou, ICntrl=  3507 FMM=F I1Cent=   0 AccDes= 0.00D+00.
 FoFJK:  IHMeth= 1 ICntrl=    3507 DoSepK=F KAlg= 0 I1Cent=   0 FoldK=F
 IRaf=         0 NMat=   1 IRICut=       1 DoRegI=T DoRafI=F ISym2E= 1.
 FoFCou: FMM=F IPFlag=           0 FMFlag=      100000 FMFlg1=           0
         NFxFlg=           0 DoJE=F BraDBF=F KetDBF=F FulRan=T
         wScrn=  0.000000 ICntrl=    3507 IOpCl=  0 I1Cent=           0 NGrid=           0
         NMat0=    1 NMatS0=      1 NMatT0=    0 NMatD0=    1 NMtDS0=    0 NMtDT0=    0
 Petite list used in FoFCou.
 End of G2Drv F.D. properties file   721 does not exist.
 End of G2Drv F.D. properties file   722 does not exist.
 End of G2Drv F.D. properties file   788 does not exist.
 Leave Link 1110 at Thu Mar 17 13:22:06 2016, MaxMem=   524288000 cpu:         0.9
 (Enter /mnt/data/applications/G09/g09/l1002.exe)
 Minotr:  Closed shell wavefunction.
          IDoAtm=111
          Direct CPHF calculation.
          Differentiating once with respect to electric field.
                with respect to dipole field.
          Differentiating once with respect to nuclear coordinates.
          Using symmetry in CPHF.
          Requested convergence is 1.0D-08 RMS, and 1.0D-07 maximum.
          Secondary convergence is 1.0D-12 RMS, and 1.0D-12 maximum.
          NewPWx=T KeepS1=F KeepF1=F KeepIn=T MapXYZ=F SortEE=F KeepMc=T.
          MDV=     524287934 using IRadAn=       2.
 Generate precomputed XC quadrature information.
 Keep J ints in memory in symmetry-blocked form, NReq=1001383.
 FoFCou: FMM=F IPFlag=           0 FMFlag=           0 FMFlg1=           0
         NFxFlg=           0 DoJE=F BraDBF=F KetDBF=F FulRan=T
         wScrn=  0.000000 ICntrl=     600 IOpCl=  0 I1Cent=           0 NGrid=           0
         NMat0=    1 NMatS0=    528 NMatT0=    0 NMatD0=    1 NMtDS0=    0 NMtDT0=    0
 Petite list used in FoFCou.
          Solving linear equations simultaneously, MaxMat=       0.
          There are    12 degrees of freedom in the 1st order CPHF.  IDoFFX=6 NUNeed=     3.
      9 vectors produced by pass  0 Test12= 1.46D-15 8.33D-09 XBig12= 3.65D+01 3.93D+00.
 AX will form     9 AO Fock derivatives at one time.
      9 vectors produced by pass  1 Test12= 1.46D-15 8.33D-09 XBig12= 2.63D+01 2.14D+00.
      9 vectors produced by pass  2 Test12= 1.46D-15 8.33D-09 XBig12= 5.69D-01 3.47D-01.
      9 vectors produced by pass  3 Test12= 1.46D-15 8.33D-09 XBig12= 1.20D-04 4.90D-03.
      7 vectors produced by pass  4 Test12= 1.46D-15 8.33D-09 XBig12= 2.45D-08 6.73D-05.
      2 vectors produced by pass  5 Test12= 1.46D-15 8.33D-09 XBig12= 1.63D-11 1.58D-06.
      1 vectors produced by pass  6 Test12= 1.46D-15 8.33D-09 XBig12= 1.00D-15 1.27D-08.
 InvSVY:  IOpt=1 It=  1 EMax= 2.22D-16
 Solved reduced A of dimension    46 with     9 vectors.
 FullF1:  Do perturbations    1 to     3.
 Isotropic polarizability for W=    0.000000       12.05 Bohr**3.
 End of Minotr F.D. properties file   721 does not exist.
 End of Minotr F.D. properties file   722 does not exist.
 End of Minotr F.D. properties file   788 does not exist.
 Leave Link 1002 at Thu Mar 17 13:22:07 2016, MaxMem=   524288000 cpu:         1.5
 (Enter /mnt/data/applications/G09/g09/l601.exe)
 Copying SCF densities to generalized density rwf, IOpCl= 0 IROHF=0.

 **********************************************************************

            Population analysis using the SCF density.

 **********************************************************************

 Orbital symmetries:
       Occupied  (SG) (SG) (SG) (SG) (SG) (PI) (PI)
       Virtual   (PI) (PI) (SG) (SG) (PI) (PI) (SG) (SG) (PI) (PI)
                 (SG) (SG) (SG) (DLTA) (DLTA) (PI) (PI) (DLTA)
                 (DLTA) (PI) (PI) (SG) (SG) (SG) (SG)
 The electronic state is 1-SG.
 Alpha  occ. eigenvalues --  -14.03547  -9.97101  -0.83657  -0.55127  -0.32588
 Alpha  occ. eigenvalues --   -0.31486  -0.31486
 Alpha virt. eigenvalues --   -0.01549  -0.01549   0.05609   0.25816   0.49234
 Alpha virt. eigenvalues --    0.49234   0.60543   0.64764   0.73078   0.73078
 Alpha virt. eigenvalues --    0.76939   1.01398   1.38923   1.44214   1.44214
 Alpha virt. eigenvalues --    1.44878   1.44878   1.86629   1.86629   2.45811
 Alpha virt. eigenvalues --    2.45811   2.50224   2.86960   3.75804   4.01125
          Condensed to atoms (all electrons):
               1          2          3
     1  C    4.767774   0.799424   0.329208
     2  N    0.799424   6.585774  -0.034374
     3  H    0.329208  -0.034374   0.457936
 Mulliken charges:
               1
     1  C    0.103594
     2  N   -0.350823
     3  H    0.247230
 Sum of Mulliken charges =   0.00000
 Mulliken charges with hydrogens summed into heavy atoms:
               1
     1  C    0.350823
     2  N   -0.350823
 APT charges:
               1
     1  C   -0.054411
     2  N   -0.174817
     3  H    0.229228
 Sum of APT charges =   0.00000
 APT charges with hydrogens summed into heavy atoms:
               1
     1  C    0.174817
     2  N   -0.174817
 Electronic spatial extent (au):  <R**2>=             49.3056
 Charge=              0.0000 electrons
 Dipole moment (field-independent basis, Debye):
    X=              0.0000    Y=              0.0000    Z=             -2.8428  Tot=              2.8428
 Quadrupole moment (field-independent basis, Debye-Ang):
   XX=            -11.3721   YY=            -11.3721   ZZ=             -9.4979
   XY=              0.0000   XZ=              0.0000   YZ=              0.0000
 Traceless Quadrupole moment (field-independent basis, Debye-Ang):
   XX=             -0.6247   YY=             -0.6247   ZZ=              1.2495
   XY=              0.0000   XZ=              0.0000   YZ=              0.0000
 Octapole moment (field-independent basis, Debye-Ang**2):
  XXX=              0.0000  YYY=              0.0000  ZZZ=             -6.7586  XYY=              0.0000
  XXY=              0.0000  XXZ=             -0.1196  XZZ=              0.0000  YZZ=              0.0000
  YYZ=             -0.1196  XYZ=              0.0000
 Hexadecapole moment (field-independent basis, Debye-Ang**3):
 XXXX=            -10.2472 YYYY=            -10.2472 ZZZZ=            -35.1805 XXXY=              0.0000
 XXXZ=              0.0000 YYYX=              0.0000 YYYZ=              0.0000 ZZZX=              0.0000
 ZZZY=              0.0000 XXYY=             -3.4157 XXZZ=             -8.6856 YYZZ=             -8.6856
 XXYZ=              0.0000 YYXZ=              0.0000 ZZXY=              0.0000
 N-N= 2.365323384610D+01 E-N=-2.649510893172D+02  KE= 9.254171256601D+01
 Symmetry A1   KE= 8.685880984132D+01
 Symmetry A2   KE= 8.605299630374D-51
 Symmetry B1   KE= 2.841451362343D+00
 Symmetry B2   KE= 2.841451362343D+00
  Exact polarizability:   7.862   0.000   7.862   0.000   0.000  20.420
 Approx polarizability:  11.523   0.000  11.523   0.000   0.000  49.114
 No NMR shielding tensors so no spin-rotation constants.
 Leave Link  601 at Thu Mar 17 13:22:07 2016, MaxMem=   524288000 cpu:         0.5
 (Enter /mnt/data/applications/G09/g09/l701.exe)
 Compute integral second derivatives.
 ... and contract with generalized density number  0.
 R6Disp: Adding Grimme-D2 dispersion energy 2nd derivatives to the Hessian.
 Leave Link  701 at Thu Mar 17 13:22:07 2016, MaxMem=   524288000 cpu:         0.8
 (Enter /mnt/data/applications/G09/g09/l702.exe)
 L702 exits ... SP integral derivatives will be done elsewhere.
 Leave Link  702 at Thu Mar 17 13:22:07 2016, MaxMem=   524288000 cpu:         0.1
 (Enter /mnt/data/applications/G09/g09/l703.exe)
 Compute integral second derivatives, UseDBF=F ICtDFT=           0.
 Integral derivatives from FoFJK, PRISM(SPDF).
 Calling FoFJK, ICntrl=    100527 FMM=F ISym2X=1 I1Cent= 0 IOpClX= 0 NMat=1 NMatS=1 NMatT=0.
 FoFJK:  IHMeth= 1 ICntrl=  100527 DoSepK=F KAlg= 0 I1Cent=   0 FoldK=F
 IRaf=         0 NMat=   1 IRICut=       1 DoRegI=T DoRafI=F ISym2E= 1.
 FoFCou: FMM=F IPFlag=           0 FMFlag=      100000 FMFlg1=         800
         NFxFlg=           0 DoJE=F BraDBF=F KetDBF=F FulRan=T
         wScrn=  0.000000 ICntrl=  100527 IOpCl=  0 I1Cent=           0 NGrid=           0
         NMat0=    1 NMatS0=      1 NMatT0=    0 NMatD0=    1 NMtDS0=    0 NMtDT0=    0
 Petite list used in FoFCou.
 Leave Link  703 at Thu Mar 17 13:22:08 2016, MaxMem=   524288000 cpu:         2.1
 (Enter /mnt/data/applications/G09/g09/l716.exe)
 Dipole        = 0.00000000D+00 0.00000000D+00-1.11846237D+00
 Polarizability= 7.86167163D+00-8.30570988D-12 7.86167163D+00
                -1.17864118D-10 7.70431876D-11 2.04202623D+01
 Full mass-weighted force constant matrix:
 Low frequencies ---  -16.6891  -16.6891   -0.0010   -0.0007   -0.0007  738.9851
 Low frequencies ---  738.9851 2134.8770 3400.5651
 Diagonal vibrational polarizability:
        1.7843521       1.7843521       0.0910049
 Harmonic frequencies (cm**-1), IR intensities (KM/Mole), Raman scattering
 activities (A**4/AMU), depolarization ratios for plane and unpolarized
 incident light, reduced masses (AMU), force constants (mDyne/A),
 and normal coordinates:
                      1                      2                      3
                     PI                     PI                     SG
 Frequencies --    738.9845               738.9845              2134.8770
 Red. masses --      1.3416                 1.3416                 5.1616
 Frc consts  --      0.4317                 0.4317                13.8606
 IR Inten    --     36.2091                36.2091                 0.4560
  Atom  AN      X      Y      Z        X      Y      Z        X      Y      Z
     1   6     0.16   0.00   0.00     0.00   0.16   0.00     0.00   0.00   0.42
     2   7    -0.07   0.00   0.00     0.00  -0.07   0.00     0.00   0.00  -0.42
     3   1    -0.98  -0.02   0.00     0.02  -0.98   0.00     0.00   0.00   0.81
                      4
                     SG
 Frequencies --   3400.5651
 Red. masses --      1.1874
 Frc consts  --      8.0900
 IR Inten    --     37.9482
  Atom  AN      X      Y      Z
     1   6     0.00   0.00   0.12
     2   7     0.00   0.00  -0.03
     3   1     0.00   0.00  -0.99

 -------------------
 - Thermochemistry -
 -------------------
 Temperature   298.150 Kelvin.  Pressure   1.00000 Atm.
 Atom     1 has atomic number  6 and mass  12.00000
 Atom     2 has atomic number  7 and mass  14.00307
 Atom     3 has atomic number  1 and mass   1.00783
 Molecular mass:    27.01090 amu.
 Principal axes and moments of inertia in atomic units:
                           1         2         3
     Eigenvalues --     0.00000  41.47109  41.47109
           X            0.00000   0.00000   1.00000
           Y            0.00000   1.00000   0.00000
           Z            1.00000   0.00000   0.00000
 This molecule is a prolate symmetric top.
 Rotational symmetry number  1.
 Rotational temperature (Kelvin)      2.08853
 Rotational constant (GHZ):          43.518053
 Zero-point vibrational energy      41949.5 (Joules/Mol)
                                   10.02617 (Kcal/Mol)
 Vibrational temperatures:   1063.23  1063.23  3071.61  4892.65
          (Kelvin)
 
 Zero-point correction=                           0.015978 (Hartree/Particle)
 Thermal correction to Energy=                    0.018534
 Thermal correction to Enthalpy=                  0.019479
 Thermal correction to Gibbs Free Energy=        -0.003418
 Sum of electronic and zero-point Energies=            -93.342874
 Sum of electronic and thermal Energies=               -93.340317
 Sum of electronic and thermal Enthalpies=             -93.339373
 Sum of electronic and thermal Free Energies=          -93.362269
 
                     E (Thermal)             CV                S
                      KCal/Mol        Cal/Mol-Kelvin    Cal/Mol-Kelvin
 Total                   11.631              6.488             48.189
 Electronic               0.000              0.000              0.000
 Translational            0.889              2.981             35.816
 Rotational               0.592              1.987             11.846
 Vibrational             10.149              1.520              0.527
                       Q            Log10(Q)             Ln(Q)
 Total Bot       0.373292D+02          1.572048          3.619775
 Total V=0       0.834212D+09          8.921277         20.541999
 Vib (Bot)       0.473905D-07         -7.324308        -16.864843
 Vib (V=0)       0.105906D+01          0.024920          0.057380
 Electronic      0.100000D+01          0.000000          0.000000
 Translational   0.551777D+07          6.741764         15.523485
 Rotational      0.142756D+03          2.154593          4.961134
 
                                                               opt freq
                                                             IR Spectrum
 
     3                                               2                                                                               
     4                                               1                                                   7                           
     0                                               3                                                   3                           
     1                                               5                                                   9                           
 
     X                                               X                                                   X                           
     X                                                                                                   X                           
     X                                                                                                   X                           
     X                                                                                                   X                           
     X                                                                                                   X                           
     X                                                                                                   X                           
     X                                                                                                   X                           
     X                                                                                                   X                           
     X                                                                                                   X                           
     X                                                                                                   X                           
                                                                                                         X                           
                                                                                                         X                           
                                                                                                         X                           
                                                                                                         X                           
                                                                                                         X                           
                                                                                                         X                           
                                                                                                         X                           
                                                                                                         X                           
                                                                                                         X                           
                                                                                                         X                           
 
 ***** Axes restored to original set *****
 -------------------------------------------------------------------
 Center     Atomic                   Forces (Hartrees/Bohr)
 Number     Number              X              Y              Z
 -------------------------------------------------------------------
      1        6           0.000017677    0.000000000    0.000000000
      2        7          -0.000009786    0.000000000    0.000000000
      3        1          -0.000007892    0.000000000    0.000000000
 -------------------------------------------------------------------
 Cartesian Forces:  Max     0.000017677 RMS     0.000007231
 Force constants in Cartesian coordinates: 
                1             2             3             4             5 
      1  0.163265D+01
      2  0.000000D+00  0.562596D-01
      3  0.000000D+00  0.000000D+00  0.562596D-01
      4 -0.122733D+01  0.000000D+00  0.000000D+00  0.121249D+01
      5  0.000000D+00 -0.270325D-01  0.000000D+00  0.000000D+00  0.129647D-01
      6  0.000000D+00  0.000000D+00 -0.270325D-01  0.000000D+00  0.000000D+00
      7 -0.405325D+00  0.000000D+00  0.000000D+00  0.148391D-01  0.000000D+00
      8  0.000000D+00 -0.292271D-01  0.000000D+00  0.000000D+00  0.140678D-01
      9  0.000000D+00  0.000000D+00 -0.292271D-01  0.000000D+00  0.000000D+00
                6             7             8             9 
      6  0.129647D-01
      7  0.000000D+00  0.390486D+00
      8  0.000000D+00  0.000000D+00  0.151593D-01
      9  0.140678D-01  0.000000D+00  0.000000D+00  0.151593D-01
 FormGI is forming the generalized inverse of G from B-inverse, IUseBI=4.
 Force constants in internal coordinates: 
                1             2             3             4 
      1  0.121249D+01
      2 -0.148391D-01  0.390486D+00
      3  0.000000D+00  0.000000D+00  0.629608D-01
      4  0.000000D+00  0.000000D+00  0.000000D+00  0.629608D-01
 Leave Link  716 at Thu Mar 17 13:22:08 2016, MaxMem=   524288000 cpu:         0.1
 (Enter /mnt/data/applications/G09/g09/l103.exe)

 GradGradGradGradGradGradGradGradGradGradGradGradGradGradGradGradGradGrad
 Berny optimization.
 Red2BG is reusing G-inverse.
 Internal  Forces:  Max     0.000009786 RMS     0.000006286
 Search for a local minimum.
 Step number   1 out of a maximum of    2
 All quantities printed in internal units (Hartrees-Bohrs-Radians)
 Second derivative matrix not updated -- analytic derivatives used.
 The second derivative matrix:
                          R1        R2        A1        A2
           R1           1.21249
           R2          -0.01484   0.39049
           A1           0.00000   0.00000   0.06296
           A2           0.00000   0.00000   0.00000   0.06296
 ITU=  0
     Eigenvalues ---    0.06296   0.06296   0.39022   1.21276
 Angle between quadratic step and forces=  29.66 degrees.
 Linear search not attempted -- first point.
 Iteration  1 RMS(Cart)=  0.00000709 RMS(Int)=  0.00000000
 Iteration  2 RMS(Cart)=  0.00000000 RMS(Int)=  0.00000000
 ITry= 1 IFail=0 DXMaxC= 1.07D-05 DCOld= 1.00D+10 DXMaxT= 3.00D-01 DXLimC= 3.00D+00 Rises=F
 ClnCor:  largest displacement from symmetrization is 4.01D-14 for atom     1.
 Variable       Old X    -DE/DX   Delta X   Delta X   Delta X     New X
                                 (Linear)    (Quad)   (Total)
    R1        2.20447  -0.00001   0.00000  -0.00001  -0.00001   2.20447
    R2        2.03399   0.00001   0.00000   0.00002   0.00002   2.03401
    A1        3.14159   0.00000   0.00000   0.00000   0.00000   3.14159
    A2        3.14159   0.00000   0.00000   0.00000   0.00000   3.14159
         Item               Value     Threshold  Converged?
 Maximum Force            0.000010     0.000450     YES
 RMS     Force            0.000006     0.000300     YES
 Maximum Displacement     0.000011     0.001800     YES
 RMS     Displacement     0.000007     0.001200     YES
 Predicted change in Energy=-1.168660D-10
 Optimization completed.
    -- Stationary point found.
                           ----------------------------
                           !   Optimized Parameters   !
                           ! (Angstroms and Degrees)  !
 --------------------------                            --------------------------
 ! Name  Definition              Value          Derivative Info.                !
 --------------------------------------------------------------------------------
 ! R1    R(1,2)                  1.1666         -DE/DX =    0.0                 !
 ! R2    R(1,3)                  1.0763         -DE/DX =    0.0                 !
 ! A1    L(2,1,3,-2,-1)        180.0            -DE/DX =    0.0                 !
 ! A2    L(2,1,3,-3,-2)        180.0            -DE/DX =    0.0                 !
 --------------------------------------------------------------------------------
 GradGradGradGradGradGradGradGradGradGradGradGradGradGradGradGradGradGrad

 Leave Link  103 at Thu Mar 17 13:22:08 2016, MaxMem=   524288000 cpu:         0.0
 (Enter /mnt/data/applications/G09/g09/l9999.exe)
 1\1\GINC-KIMIK2014\Freq\RB97D\6-31G(d)\C1H1N1\IFUNES\17-Mar-2016\0\\#P
  Geom=AllCheck Guess=TCheck SCRF=Check GenChk RB97D/6-31G(d) Freq\\opt
  freq\\0,1\C,0.3251712092,1.25752104,0.\N,1.4917285331,1.25752104,0.\H
 ,-0.7511704923,1.25752104,0.\\Version=EM64L-G09RevD.01\State=1-SG\HF=-
 93.3588512\RMSD=5.458e-10\RMSF=7.231e-06\ZeroPoint=0.0159777\Thermal=0
 .0185344\Dipole=-1.1184624,0.,0.\DipoleDeriv=-0.2185061,0.,0.,0.,0.027
 6369,0.,0.,0.,0.0276369,0.0297512,0.,0.,0.,-0.2771012,0.,0.,0.,-0.2771
 012,0.1887549,0.,0.,0.,0.2494644,0.,0.,0.,0.2494644\Polar=20.4202623,0
 .,7.8616716,0.,0.,7.8616716\PG=C*V [C*(H1C1N1)]\NImag=0\\1.63265494,0.
 ,0.05625959,0.,0.,0.05625959,-1.22733021,0.,0.,1.21249107,0.,-0.027032
 50,0.,0.,0.01296473,0.,0.,-0.02703250,0.,0.,0.01296473,-0.40532473,0.,
 0.,0.01483914,0.,0.,0.39048559,0.,-0.02922709,0.,0.,0.01406777,0.,0.,0
 .01515932,0.,0.,-0.02922709,0.,0.,0.01406777,0.,0.,0.01515932\\-0.0000
 1768,0.,0.,0.00000979,0.,0.,0.00000789,0.,0.\\\@


 Time has a wonderful way of weeding out the trivial.
                                -- Richard Ben Sapir
 Job cpu time:       0 days  0 hours  0 minutes 10.5 seconds.
 File lengths (MBytes):  RWF=      5 Int=      0 D2E=      0 Chk=      2 Scr=      1
 Normal termination of Gaussian 09 at Thu Mar 17 13:22:08 2016.
