 Entering Gaussian System, Link 0=g09
 Initial command:
 /mnt/data/applications/G09/g09/l1.exe "/scratch/Gau-19955.inp" -scrdir="/scratch/"
 Entering Link 1 = /mnt/data/applications/G09/g09/l1.exe PID=     19956.
  
 Copyright (c) 1988,1990,1992,1993,1995,1998,2003,2009,2013,
            Gaussian, Inc.  All Rights Reserved.
  
 This is part of the Gaussian(R) 09 program.  It is based on
 the Gaussian(R) 03 system (copyright 2003, Gaussian, Inc.),
 the Gaussian(R) 98 system (copyright 1998, Gaussian, Inc.),
 the Gaussian(R) 94 system (copyright 1995, Gaussian, Inc.),
 the Gaussian 92(TM) system (copyright 1992, Gaussian, Inc.),
 the Gaussian 90(TM) system (copyright 1990, Gaussian, Inc.),
 the Gaussian 88(TM) system (copyright 1988, Gaussian, Inc.),
 the Gaussian 86(TM) system (copyright 1986, Carnegie Mellon
 University), and the Gaussian 82(TM) system (copyright 1983,
 Carnegie Mellon University). Gaussian is a federally registered
 trademark of Gaussian, Inc.
  
 This software contains proprietary and confidential information,
 including trade secrets, belonging to Gaussian, Inc.
  
 This software is provided under written license and may be
 used, copied, transmitted, or stored only in accord with that
 written license.
  
 The following legend is applicable only to US Government
 contracts under FAR:
  
                    RESTRICTED RIGHTS LEGEND
  
 Use, reproduction and disclosure by the US Government is
 subject to restrictions as set forth in subparagraphs (a)
 and (c) of the Commercial Computer Software - Restricted
 Rights clause in FAR 52.227-19.
  
 Gaussian, Inc.
 340 Quinnipiac St., Bldg. 40, Wallingford CT 06492
  
  
 ---------------------------------------------------------------
 Warning -- This program may not be used in any manner that
 competes with the business of Gaussian, Inc. or will provide
 assistance to any competitor of Gaussian, Inc.  The licensee
 of this program is prohibited from giving any competitor of
 Gaussian, Inc. access to this program.  By using this program,
 the user acknowledges that Gaussian, Inc. is engaged in the
 business of creating and licensing software in the field of
 computational chemistry and represents and warrants to the
 licensee that it is not a competitor of Gaussian, Inc. and that
 it will not use this program in any manner prohibited above.
 ---------------------------------------------------------------
  

 Cite this work as:
 Gaussian 09, Revision D.01,
 M. J. Frisch, G. W. Trucks, H. B. Schlegel, G. E. Scuseria, 
 M. A. Robb, J. R. Cheeseman, G. Scalmani, V. Barone, B. Mennucci, 
 G. A. Petersson, H. Nakatsuji, M. Caricato, X. Li, H. P. Hratchian, 
 A. F. Izmaylov, J. Bloino, G. Zheng, J. L. Sonnenberg, M. Hada, 
 M. Ehara, K. Toyota, R. Fukuda, J. Hasegawa, M. Ishida, T. Nakajima, 
 Y. Honda, O. Kitao, H. Nakai, T. Vreven, J. A. Montgomery, Jr., 
 J. E. Peralta, F. Ogliaro, M. Bearpark, J. J. Heyd, E. Brothers, 
 K. N. Kudin, V. N. Staroverov, T. Keith, R. Kobayashi, J. Normand, 
 K. Raghavachari, A. Rendell, J. C. Burant, S. S. Iyengar, J. Tomasi, 
 M. Cossi, N. Rega, J. M. Millam, M. Klene, J. E. Knox, J. B. Cross, 
 V. Bakken, C. Adamo, J. Jaramillo, R. Gomperts, R. E. Stratmann, 
 O. Yazyev, A. J. Austin, R. Cammi, C. Pomelli, J. W. Ochterski, 
 R. L. Martin, K. Morokuma, V. G. Zakrzewski, G. A. Voth, 
 P. Salvador, J. J. Dannenberg, S. Dapprich, A. D. Daniels, 
 O. Farkas, J. B. Foresman, J. V. Ortiz, J. Cioslowski, 
 and D. J. Fox, Gaussian, Inc., Wallingford CT, 2013.
 
 ******************************************
 Gaussian 09:  EM64L-G09RevD.01 24-Apr-2013
                17-Mar-2016 
 ******************************************
 %nproc=8
 Will use up to    8 processors via shared memory.
 %Mem=8000MB
 %Chk=methylaniline
 -----------------------
 #p B97D/6-31G* opt freq
 -----------------------
 1/14=-1,18=20,19=15,26=3,38=1/1,3;
 2/9=110,12=2,17=6,18=5,40=1/2;
 3/5=1,6=6,7=1,11=2,16=1,25=1,30=1,71=1,74=-42/1,2,3;
 4//1;
 5/5=2,38=5/2;
 6/7=2,8=2,9=2,10=2,28=1/1;
 7//1,2,3,16;
 1/14=-1,18=20,19=15,26=3/3(2);
 2/9=110/2;
 99//99;
 2/9=110/2;
 3/5=1,6=6,7=1,11=2,16=1,25=1,30=1,71=1,74=-42/1,2,3;
 4/5=5,16=3,69=1/1;
 5/5=2,38=5/2;
 7//1,2,3,16;
 1/14=-1,18=20,19=15,26=3/3(-5);
 2/9=110/2;
 6/7=2,8=2,9=2,10=2,19=2,28=1/1;
 99/9=1/99;
 Leave Link    1 at Thu Mar 17 13:12:12 2016, MaxMem=  1048576000 cpu:         0.6
 (Enter /mnt/data/applications/G09/g09/l101.exe)
 --------
 opt freq
 --------
 Symbolic Z-matrix:
 Charge =  0 Multiplicity = 1
 C                    -1.44848   1.03177  -0.11655 
 H                    -1.09167   0.02302  -0.11679 
 H                    -1.21963   1.49082   0.8225 
 H                    -2.50791   1.0354   -0.26654 
 N                    -0.7976    1.78201  -1.20025 
 H                     0.19239   1.78016  -1.05909 
 C                    -1.28977   3.16716  -1.20159 
 C                    -2.48888   3.48072  -1.84214 
 C                    -0.55809   4.168    -0.56243 
 C                    -2.95579   4.79496  -1.84405 
 H                    -3.0651    2.69159  -2.34661 
 C                    -1.0255    5.48251  -0.5634 
 H                     0.38692   3.92101  -0.05738 
 C                    -2.22407   5.79615  -1.20418 
 H                    -3.90061   5.04229  -2.34944 
 H                    -0.4486    6.27134  -0.05902 
 H                    -2.59244   6.83229  -1.20576 
 
 NAtoms=     17 NQM=       17 NQMF=       0 NMMI=      0 NMMIF=      0
                NMic=       0 NMicF=      0.
                    Isotopes and Nuclear Properties:
 (Nuclear quadrupole moments (NQMom) in fm**2, nuclear magnetic moments (NMagM)
  in nuclear magnetons)

  Atom         1           2           3           4           5           6           7           8           9          10
 IAtWgt=          12           1           1           1          14           1          12          12          12          12
 AtmWgt=  12.0000000   1.0078250   1.0078250   1.0078250  14.0030740   1.0078250  12.0000000  12.0000000  12.0000000  12.0000000
 NucSpn=           0           1           1           1           2           1           0           0           0           0
 AtZEff=   0.0000000   0.0000000   0.0000000   0.0000000   0.0000000   0.0000000   0.0000000   0.0000000   0.0000000   0.0000000
 NQMom=    0.0000000   0.0000000   0.0000000   0.0000000   2.0440000   0.0000000   0.0000000   0.0000000   0.0000000   0.0000000
 NMagM=    0.0000000   2.7928460   2.7928460   2.7928460   0.4037610   2.7928460   0.0000000   0.0000000   0.0000000   0.0000000
 AtZNuc=   6.0000000   1.0000000   1.0000000   1.0000000   7.0000000   1.0000000   6.0000000   6.0000000   6.0000000   6.0000000

  Atom        11          12          13          14          15          16          17
 IAtWgt=           1          12           1          12           1           1           1
 AtmWgt=   1.0078250  12.0000000   1.0078250  12.0000000   1.0078250   1.0078250   1.0078250
 NucSpn=           1           0           1           0           1           1           1
 AtZEff=   0.0000000   0.0000000   0.0000000   0.0000000   0.0000000   0.0000000   0.0000000
 NQMom=    0.0000000   0.0000000   0.0000000   0.0000000   0.0000000   0.0000000   0.0000000
 NMagM=    2.7928460   0.0000000   2.7928460   0.0000000   2.7928460   2.7928460   2.7928460
 AtZNuc=   1.0000000   6.0000000   1.0000000   6.0000000   1.0000000   1.0000000   1.0000000
 Leave Link  101 at Thu Mar 17 13:12:12 2016, MaxMem=  1048576000 cpu:         2.8
 (Enter /mnt/data/applications/G09/g09/l103.exe)

 GradGradGradGradGradGradGradGradGradGradGradGradGradGradGradGradGradGrad
 Berny optimization.
 Initialization pass.
                           ----------------------------
                           !    Initial Parameters    !
                           ! (Angstroms and Degrees)  !
 --------------------------                            --------------------------
 ! Name  Definition              Value          Derivative Info.                !
 --------------------------------------------------------------------------------
 ! R1    R(1,2)                  1.07           estimate D2E/DX2                !
 ! R2    R(1,3)                  1.07           estimate D2E/DX2                !
 ! R3    R(1,4)                  1.07           estimate D2E/DX2                !
 ! R4    R(1,5)                  1.47           estimate D2E/DX2                !
 ! R5    R(5,6)                  1.0            estimate D2E/DX2                !
 ! R6    R(5,7)                  1.47           estimate D2E/DX2                !
 ! R7    R(7,8)                  1.3952         estimate D2E/DX2                !
 ! R8    R(7,9)                  1.3948         estimate D2E/DX2                !
 ! R9    R(8,10)                 1.3947         estimate D2E/DX2                !
 ! R10   R(8,11)                 1.0997         estimate D2E/DX2                !
 ! R11   R(9,12)                 1.3951         estimate D2E/DX2                !
 ! R12   R(9,13)                 1.0996         estimate D2E/DX2                !
 ! R13   R(10,14)                1.3954         estimate D2E/DX2                !
 ! R14   R(10,15)                1.0997         estimate D2E/DX2                !
 ! R15   R(12,14)                1.3948         estimate D2E/DX2                !
 ! R16   R(12,16)                1.0998         estimate D2E/DX2                !
 ! R17   R(14,17)                1.0997         estimate D2E/DX2                !
 ! A1    A(2,1,3)              109.4712         estimate D2E/DX2                !
 ! A2    A(2,1,4)              109.4712         estimate D2E/DX2                !
 ! A3    A(2,1,5)              109.4712         estimate D2E/DX2                !
 ! A4    A(3,1,4)              109.4712         estimate D2E/DX2                !
 ! A5    A(3,1,5)              109.4713         estimate D2E/DX2                !
 ! A6    A(4,1,5)              109.4712         estimate D2E/DX2                !
 ! A7    A(1,5,6)              109.4712         estimate D2E/DX2                !
 ! A8    A(1,5,7)              109.4712         estimate D2E/DX2                !
 ! A9    A(6,5,7)              109.4713         estimate D2E/DX2                !
 ! A10   A(5,7,8)              119.9972         estimate D2E/DX2                !
 ! A11   A(5,7,9)              120.0043         estimate D2E/DX2                !
 ! A12   A(8,7,9)              119.9985         estimate D2E/DX2                !
 ! A13   A(7,8,10)             120.0086         estimate D2E/DX2                !
 ! A14   A(7,8,11)             119.9808         estimate D2E/DX2                !
 ! A15   A(10,8,11)            120.0105         estimate D2E/DX2                !
 ! A16   A(7,9,12)             120.0            estimate D2E/DX2                !
 ! A17   A(7,9,13)             120.008          estimate D2E/DX2                !
 ! A18   A(12,9,13)            119.992          estimate D2E/DX2                !
 ! A19   A(8,10,14)            119.9942         estimate D2E/DX2                !
 ! A20   A(8,10,15)            120.0128         estimate D2E/DX2                !
 ! A21   A(14,10,15)           119.993          estimate D2E/DX2                !
 ! A22   A(9,12,14)            120.0047         estimate D2E/DX2                !
 ! A23   A(9,12,16)            119.984          estimate D2E/DX2                !
 ! A24   A(14,12,16)           120.0113         estimate D2E/DX2                !
 ! A25   A(10,14,12)           119.994          estimate D2E/DX2                !
 ! A26   A(10,14,17)           119.9811         estimate D2E/DX2                !
 ! A27   A(12,14,17)           120.0249         estimate D2E/DX2                !
 ! D1    D(2,1,5,6)            -60.1111         estimate D2E/DX2                !
 ! D2    D(2,1,5,7)            179.8889         estimate D2E/DX2                !
 ! D3    D(3,1,5,6)             59.8889         estimate D2E/DX2                !
 ! D4    D(3,1,5,7)            -60.1111         estimate D2E/DX2                !
 ! D5    D(4,1,5,6)            179.8889         estimate D2E/DX2                !
 ! D6    D(4,1,5,7)             59.8889         estimate D2E/DX2                !
 ! D7    D(1,5,7,8)            -83.3864         estimate D2E/DX2                !
 ! D8    D(1,5,7,9)             96.6083         estimate D2E/DX2                !
 ! D9    D(6,5,7,8)            156.6136         estimate D2E/DX2                !
 ! D10   D(6,5,7,9)            -23.3917         estimate D2E/DX2                !
 ! D11   D(5,7,8,10)          -179.9729         estimate D2E/DX2                !
 ! D12   D(5,7,8,11)            -0.052          estimate D2E/DX2                !
 ! D13   D(9,7,8,10)             0.0323         estimate D2E/DX2                !
 ! D14   D(9,7,8,11)           179.9532         estimate D2E/DX2                !
 ! D15   D(5,7,9,12)          -179.9798         estimate D2E/DX2                !
 ! D16   D(5,7,9,13)            -0.0056         estimate D2E/DX2                !
 ! D17   D(8,7,9,12)             0.0149         estimate D2E/DX2                !
 ! D18   D(8,7,9,13)           179.9892         estimate D2E/DX2                !
 ! D19   D(7,8,10,14)           -0.0568         estimate D2E/DX2                !
 ! D20   D(7,8,10,15)          179.9619         estimate D2E/DX2                !
 ! D21   D(11,8,10,14)        -179.9777         estimate D2E/DX2                !
 ! D22   D(11,8,10,15)           0.041          estimate D2E/DX2                !
 ! D23   D(7,9,12,14)           -0.0376         estimate D2E/DX2                !
 ! D24   D(7,9,12,16)          179.975          estimate D2E/DX2                !
 ! D25   D(13,9,12,14)         179.9881         estimate D2E/DX2                !
 ! D26   D(13,9,12,16)           0.0007         estimate D2E/DX2                !
 ! D27   D(8,10,14,12)           0.0341         estimate D2E/DX2                !
 ! D28   D(8,10,14,17)        -179.9964         estimate D2E/DX2                !
 ! D29   D(15,10,14,12)       -179.9846         estimate D2E/DX2                !
 ! D30   D(15,10,14,17)         -0.0151         estimate D2E/DX2                !
 ! D31   D(9,12,14,10)           0.0131         estimate D2E/DX2                !
 ! D32   D(9,12,14,17)        -179.9563         estimate D2E/DX2                !
 ! D33   D(16,12,14,10)       -179.9995         estimate D2E/DX2                !
 ! D34   D(16,12,14,17)          0.0311         estimate D2E/DX2                !
 --------------------------------------------------------------------------------
 Trust Radius=3.00D-01 FncErr=1.00D-07 GrdErr=1.00D-06
 Number of steps in this run=     88 maximum allowed number of steps=    102.
 GradGradGradGradGradGradGradGradGradGradGradGradGradGradGradGradGradGrad

 Leave Link  103 at Thu Mar 17 13:12:13 2016, MaxMem=  1048576000 cpu:         0.1
 (Enter /mnt/data/applications/G09/g09/l202.exe)
                          Input orientation:                          
 ---------------------------------------------------------------------
 Center     Atomic      Atomic             Coordinates (Angstroms)
 Number     Number       Type             X           Y           Z
 ---------------------------------------------------------------------
      1          6           0       -1.448478    1.031775   -0.116551
      2          1           0       -1.091668    0.023019   -0.116792
      3          1           0       -1.219629    1.490818    0.822495
      4          1           0       -2.507907    1.035398   -0.266541
      5          7           0       -0.797597    1.782008   -1.200250
      6          1           0        0.192388    1.780157   -1.059091
      7          6           0       -1.289773    3.167165   -1.201595
      8          6           0       -2.488881    3.480720   -1.842138
      9          6           0       -0.558094    4.167996   -0.562431
     10          6           0       -2.955787    4.794956   -1.844045
     11          1           0       -3.065100    2.691593   -2.346611
     12          6           0       -1.025501    5.482507   -0.563402
     13          1           0        0.386921    3.921009   -0.057382
     14          6           0       -2.224073    5.796145   -1.204177
     15          1           0       -3.900611    5.042291   -2.349445
     16          1           0       -0.448599    6.271336   -0.059015
     17          1           0       -2.592441    6.832292   -1.205763
 ---------------------------------------------------------------------
                    Distance matrix (angstroms):
                    1          2          3          4          5
     1  C    0.000000
     2  H    1.070000   0.000000
     3  H    1.070000   1.747302   0.000000
     4  H    1.070000   1.747303   1.747303   0.000000
     5  N    1.470000   2.086720   2.086720   2.086720   0.000000
     6  H    2.034920   2.371552   2.370206   2.911081   1.000000
     7  C    2.400500   3.331920   2.629068   2.627281   1.470000
     8  C    3.171344   4.109101   3.559632   2.909032   2.481549
     9  C    3.290513   4.202871   3.085925   3.701687   2.481353
    10  C    4.406558   5.406451   4.587157   4.101632   3.761664
    11  H    3.215841   3.998476   3.858868   2.716641   2.698715
    12  C    4.493061   5.478124   4.229891   4.697066   3.761809
    13  H    3.423429   4.169422   3.043192   4.092741   2.698992
    14  C    4.948101   5.982786   4.863348   4.860497   4.260065
    15  H    5.204135   6.169926   5.464598   4.725813   4.645298
    16  H    5.334424   6.281587   4.921880   5.630174   4.645244
    17  H    6.011741   7.057221   5.876205   5.873096   5.359745
                    6          7          8          9         10
     6  H    0.000000
     7  C    2.034921   0.000000
     8  C    3.270211   1.395160   0.000000
     9  C    2.551797   1.394829   2.416183   0.000000
    10  C    4.429015   2.416205   1.394712   2.790080   0.000000
    11  H    3.619345   2.165414   1.099655   3.412938   2.165330
    12  C    3.928913   2.416183   2.789946   1.395138   2.416356
    13  H    2.371605   2.165365   3.413128   1.099604   3.889684
    14  C    4.689190   2.790065   2.416260   2.416236   1.395427
    15  H    5.390657   3.413229   2.165375   3.889760   1.099680
    16  H    4.645612   3.413055   3.889707   2.165516   3.413506
    17  H    5.770689   3.889745   3.413024   3.413344   2.165678
                   11         12         13         14         15
    11  H    0.000000
    12  C    3.889601   0.000000
    13  H    4.320704   2.165471   0.000000
    14  C    3.413316   1.394825   3.412999   0.000000
    15  H    2.494768   3.413209   4.989364   2.165806   0.000000
    16  H    4.989362   1.099761   2.494420   2.165528   4.321228
    17  H    4.320917   2.165606   4.320988   1.099680   2.494678
                   16         17
    16  H    0.000000
    17  H    2.495147   0.000000
 Stoichiometry    C7H9N
 Framework group  C1[X(C7H9N)]
 Deg. of freedom    45
 Full point group                 C1      NOp   1
 Largest Abelian subgroup         C1      NOp   1
 Largest concise Abelian subgroup C1      NOp   1
                         Standard orientation:                         
 ---------------------------------------------------------------------
 Center     Atomic      Atomic             Coordinates (Angstroms)
 Number     Number       Type             X           Y           Z
 ---------------------------------------------------------------------
      1          6           0       -2.649224    0.127557    0.646041
      2          1           0       -3.698697    0.101671    0.439073
      3          1           0       -2.402991   -0.649988    1.338640
      4          1           0       -2.392364    1.076326    1.068841
      5          7           0       -1.898589   -0.072114   -0.601989
      6          1           0       -2.137289   -0.959599   -0.996187
      7          6           0       -0.456776   -0.033896   -0.318066
      8          6           0        0.205556    1.191214   -0.235030
      9          6           0        0.249143   -1.222359   -0.131567
     10          6           0        1.573631    1.227731    0.033780
     11          1           0       -0.351110    2.127967   -0.382874
     12          6           0        1.617446   -1.185966    0.138309
     13          1           0       -0.272756   -2.188017   -0.196801
     14          6           0        2.279778    0.038794    0.220870
     15          1           0        2.095879    2.193313    0.098624
     16          1           0        2.173691   -2.123162    0.285718
     17          1           0        3.358440    0.067838    0.432865
 ---------------------------------------------------------------------
 Rotational constants (GHZ):      4.6329092      1.5309012      1.2505840
 Leave Link  202 at Thu Mar 17 13:12:13 2016, MaxMem=  1048576000 cpu:         0.0
 (Enter /mnt/data/applications/G09/g09/l301.exe)
 Standard basis: 6-31G(d) (6D, 7F)
 Ernie: Thresh=  0.10000D-02 Tol=  0.10000D-05 Strict=F.
 There are   138 symmetry adapted cartesian basis functions of A   symmetry.
 There are   138 symmetry adapted basis functions of A   symmetry.
   138 basis functions,   260 primitive gaussians,   138 cartesian basis functions
    29 alpha electrons       29 beta electrons
       nuclear repulsion energy       343.8424216798 Hartrees.
 IExCor= 3630 DFT=T Ex+Corr=B97D ExCW=0 ScaHFX=  0.000000
 ScaDFX=  1.000000  1.000000  1.000000  1.000000 ScalE2=  1.000000  1.000000
 IRadAn=      0 IRanWt=     -1 IRanGd=            0 ICorTp=0 IEmpDi=121
 NAtoms=   17 NActive=   17 NUniq=   17 SFac= 1.00D+00 NAtFMM=   60 NAOKFM=F Big=F
 Integral buffers will be    131072 words long.
 Raffenetti 2 integral format.
 Two-electron integral symmetry is turned on.
 R6Disp:  Grimme-D2 Dispersion energy=       -0.0178407195 Hartrees.
 Nuclear repulsion after empirical dispersion term =      343.8245809603 Hartrees.
 Leave Link  301 at Thu Mar 17 13:12:13 2016, MaxMem=  1048576000 cpu:         0.5
 (Enter /mnt/data/applications/G09/g09/l302.exe)
 NPDir=0 NMtPBC=     1 NCelOv=     1 NCel=       1 NClECP=     1 NCelD=      1
         NCelK=      1 NCelE2=     1 NClLst=     1 CellRange=     0.0.
 One-electron integrals computed using PRISM.
 NBasis=   138 RedAO= T EigKep=  4.58D-04  NBF=   138
 NBsUse=   138 1.00D-06 EigRej= -1.00D+00 NBFU=   138
 Precomputing XC quadrature grid using
 IXCGrd= 4 IRadAn=           0 IRanWt=          -1 IRanGd=           0 AccXCQ= 0.00D+00.
 Generated NRdTot=       0 NPtTot=           0 NUsed=           0 NTot=          32
 NSgBfM=   138   138   138   138   138 MxSgAt=    17 MxSgA2=    17.
 Leave Link  302 at Thu Mar 17 13:12:13 2016, MaxMem=  1048576000 cpu:         2.5
 (Enter /mnt/data/applications/G09/g09/l303.exe)
 DipDrv:  MaxL=1.
 Leave Link  303 at Thu Mar 17 13:12:13 2016, MaxMem=  1048576000 cpu:         0.4
 (Enter /mnt/data/applications/G09/g09/l401.exe)
 ExpMin= 1.61D-01 ExpMax= 4.17D+03 ExpMxC= 6.27D+02 IAcc=1 IRadAn=         1 AccDes= 0.00D+00
 Harris functional with IExCor= 3630 and IRadAn=       1 diagonalized for initial guess.
 HarFok:  IExCor= 3630 AccDes= 0.00D+00 IRadAn=         1 IDoV= 1 UseB2=F ITyADJ=14
 ICtDFT=  3500011 ScaDFX=  1.000000  1.000000  1.000000  1.000000
 FoFCou: FMM=F IPFlag=           0 FMFlag=      100000 FMFlg1=           0
         NFxFlg=           0 DoJE=T BraDBF=F KetDBF=T FulRan=T
         wScrn=  0.000000 ICntrl=     500 IOpCl=  0 I1Cent=   200000004 NGrid=           0
         NMat0=    1 NMatS0=      1 NMatT0=    0 NMatD0=    1 NMtDS0=    0 NMtDT0=    0
 Petite list used in FoFCou.
 Harris En= -326.791492042907    
 JPrj=0 DoOrth=F DoCkMO=F.
 Leave Link  401 at Thu Mar 17 13:12:14 2016, MaxMem=  1048576000 cpu:         3.5
 (Enter /mnt/data/applications/G09/g09/l502.exe)
 Closed shell SCF:
 Using DIIS extrapolation, IDIIS=  1040.
 Integral symmetry usage will be decided dynamically.
 Keep J ints in memory in canonical form, NReq=47419012.
 IVT=       77836 IEndB=       77836 NGot=  1048576000 MDV=  1002499729
 LenX=  1002499729 LenY=  1002480244
 Requested convergence on RMS density matrix=1.00D-08 within 128 cycles.
 Requested convergence on MAX density matrix=1.00D-06.
 Requested convergence on             energy=1.00D-06.
 No special actions if energy rises.
 FoFCou: FMM=F IPFlag=           0 FMFlag=           0 FMFlg1=           0
         NFxFlg=           0 DoJE=F BraDBF=F KetDBF=F FulRan=T
         wScrn=  0.000000 ICntrl=     600 IOpCl=  0 I1Cent=           0 NGrid=           0
         NMat0=    1 NMatS0=   9591 NMatT0=    0 NMatD0=    1 NMtDS0=    0 NMtDT0=    0
 Symmetry not used in FoFCou.
 Integral accuracy reduced to 1.0D-05 until final iterations.

 Cycle   1  Pass 0  IDiag  1:
 E= -326.466446315509    
 DIIS: error= 3.71D-02 at cycle   1 NSaved=   1.
 NSaved= 1 IEnMin= 1 EnMin= -326.466446315509     IErMin= 1 ErrMin= 3.71D-02
 ErrMax= 3.71D-02  0.00D+00 EMaxC= 1.00D-01 BMatC= 1.66D-01 BMatP= 1.66D-01
 IDIUse=3 WtCom= 6.29D-01 WtEn= 3.71D-01
 Coeff-Com:  0.100D+01
 Coeff-En:   0.100D+01
 Coeff:      0.100D+01
 Gap=     0.162 Goal=   None    Shift=    0.000
 GapD=    0.162 DampG=1.000 DampE=0.500 DampFc=0.5000 IDamp=-1.
 Damping current iteration by 5.00D-01
 RMSDP=7.93D-03 MaxDP=1.47D-01              OVMax= 1.64D-01

 Cycle   2  Pass 0  IDiag  1:
 E= -326.540564590319     Delta-E=       -0.074118274809 Rises=F Damp=T
 DIIS: error= 6.48D-03 at cycle   2 NSaved=   2.
 NSaved= 2 IEnMin= 2 EnMin= -326.540564590319     IErMin= 2 ErrMin= 6.48D-03
 ErrMax= 6.48D-03  0.00D+00 EMaxC= 1.00D-01 BMatC= 9.95D-03 BMatP= 1.66D-01
 IDIUse=3 WtCom= 9.35D-01 WtEn= 6.48D-02
 Coeff-Com:  0.127D+00 0.873D+00
 Coeff-En:   0.213D+00 0.787D+00
 Coeff:      0.132D+00 0.868D+00
 Gap=     0.159 Goal=   None    Shift=    0.000
 RMSDP=1.61D-03 MaxDP=3.26D-02 DE=-7.41D-02 OVMax= 9.92D-02

 Cycle   3  Pass 0  IDiag  1:
 E= -326.649551957401     Delta-E=       -0.108987367082 Rises=F Damp=F
 DIIS: error= 5.12D-03 at cycle   3 NSaved=   3.
 NSaved= 3 IEnMin= 3 EnMin= -326.649551957401     IErMin= 3 ErrMin= 5.12D-03
 ErrMax= 5.12D-03  0.00D+00 EMaxC= 1.00D-01 BMatC= 3.05D-03 BMatP= 9.95D-03
 IDIUse=3 WtCom= 9.49D-01 WtEn= 5.12D-02
 Coeff-Com:  0.260D-01 0.340D+00 0.634D+00
 Coeff-En:   0.000D+00 0.000D+00 0.100D+01
 Coeff:      0.246D-01 0.322D+00 0.653D+00
 Gap=     0.157 Goal=   None    Shift=    0.000
 RMSDP=8.61D-04 MaxDP=2.11D-02 DE=-1.09D-01 OVMax= 4.71D-02

 Cycle   4  Pass 0  IDiag  1:
 E= -326.648758154677     Delta-E=        0.000793802724 Rises=F Damp=F
 DIIS: error= 6.70D-03 at cycle   4 NSaved=   4.
 NSaved= 4 IEnMin= 3 EnMin= -326.649551957401     IErMin= 3 ErrMin= 5.12D-03
 ErrMax= 6.70D-03  0.00D+00 EMaxC= 1.00D-01 BMatC= 3.46D-03 BMatP= 3.05D-03
 IDIUse=3 WtCom= 1.09D-01 WtEn= 8.91D-01
 Coeff-Com:  0.338D-02 0.129D+00 0.495D+00 0.373D+00
 Coeff-En:   0.000D+00 0.000D+00 0.540D+00 0.460D+00
 Coeff:      0.368D-03 0.140D-01 0.535D+00 0.450D+00
 Gap=     0.153 Goal=   None    Shift=    0.000
 RMSDP=5.73D-04 MaxDP=1.07D-02 DE= 7.94D-04 OVMax= 3.24D-02

 Cycle   5  Pass 0  IDiag  1:
 E= -326.652677773986     Delta-E=       -0.003919619309 Rises=F Damp=F
 DIIS: error= 1.30D-03 at cycle   5 NSaved=   5.
 NSaved= 5 IEnMin= 5 EnMin= -326.652677773986     IErMin= 5 ErrMin= 1.30D-03
 ErrMax= 1.30D-03  0.00D+00 EMaxC= 1.00D-01 BMatC= 2.76D-04 BMatP= 3.05D-03
 IDIUse=3 WtCom= 9.87D-01 WtEn= 1.30D-02
 Coeff-Com:  0.684D-02 0.144D-02 0.219D+00 0.233D+00 0.539D+00
 Coeff-En:   0.000D+00 0.000D+00 0.000D+00 0.458D-02 0.995D+00
 Coeff:      0.675D-02 0.142D-02 0.216D+00 0.230D+00 0.545D+00
 Gap=     0.154 Goal=   None    Shift=    0.000
 RMSDP=1.60D-04 MaxDP=2.83D-03 DE=-3.92D-03 OVMax= 6.19D-03

 Cycle   6  Pass 0  IDiag  1:
 E= -326.652945633047     Delta-E=       -0.000267859061 Rises=F Damp=F
 DIIS: error= 2.07D-04 at cycle   6 NSaved=   6.
 NSaved= 6 IEnMin= 6 EnMin= -326.652945633047     IErMin= 6 ErrMin= 2.07D-04
 ErrMax= 2.07D-04  0.00D+00 EMaxC= 1.00D-01 BMatC= 1.59D-05 BMatP= 2.76D-04
 IDIUse=3 WtCom= 9.98D-01 WtEn= 2.07D-03
 Coeff-Com:  0.428D-02-0.537D-02 0.114D+00 0.128D+00 0.346D+00 0.413D+00
 Coeff-En:   0.000D+00 0.000D+00 0.000D+00 0.000D+00 0.000D+00 0.100D+01
 Coeff:      0.428D-02-0.536D-02 0.114D+00 0.128D+00 0.345D+00 0.414D+00
 Gap=     0.154 Goal=   None    Shift=    0.000
 RMSDP=3.01D-05 MaxDP=7.65D-04 DE=-2.68D-04 OVMax= 1.44D-03

 Cycle   7  Pass 0  IDiag  1:
 E= -326.652960148132     Delta-E=       -0.000014515085 Rises=F Damp=F
 DIIS: error= 4.51D-05 at cycle   7 NSaved=   7.
 NSaved= 7 IEnMin= 7 EnMin= -326.652960148132     IErMin= 7 ErrMin= 4.51D-05
 ErrMax= 4.51D-05  0.00D+00 EMaxC= 1.00D-01 BMatC= 4.16D-07 BMatP= 1.59D-05
 IDIUse=1 WtCom= 1.00D+00 WtEn= 0.00D+00
 Coeff-Com:  0.177D-02-0.297D-02 0.407D-01 0.463D-01 0.132D+00 0.205D+00
 Coeff-Com:  0.576D+00
 Coeff:      0.177D-02-0.297D-02 0.407D-01 0.463D-01 0.132D+00 0.205D+00
 Coeff:      0.576D+00
 Gap=     0.154 Goal=   None    Shift=    0.000
 RMSDP=7.96D-06 MaxDP=1.49D-04 DE=-1.45D-05 OVMax= 3.67D-04

 Initial convergence to 1.0D-05 achieved.  Increase integral accuracy.
 Cycle   8  Pass 1  IDiag  1:
 E= -326.652951781339     Delta-E=        0.000008366793 Rises=F Damp=F
 DIIS: error= 3.58D-05 at cycle   1 NSaved=   1.
 NSaved= 1 IEnMin= 1 EnMin= -326.652951781339     IErMin= 1 ErrMin= 3.58D-05
 ErrMax= 3.58D-05  0.00D+00 EMaxC= 1.00D-01 BMatC= 2.26D-07 BMatP= 2.26D-07
 IDIUse=1 WtCom= 1.00D+00 WtEn= 0.00D+00
 Coeff-Com:  0.100D+01
 Coeff:      0.100D+01
 Gap=     0.154 Goal=   None    Shift=    0.000
 RMSDP=7.96D-06 MaxDP=1.49D-04 DE= 8.37D-06 OVMax= 6.16D-04

 Cycle   9  Pass 1  IDiag  1:
 E= -326.652950958847     Delta-E=        0.000000822492 Rises=F Damp=F
 DIIS: error= 9.23D-05 at cycle   2 NSaved=   2.
 NSaved= 2 IEnMin= 1 EnMin= -326.652951781339     IErMin= 1 ErrMin= 3.58D-05
 ErrMax= 9.23D-05  0.00D+00 EMaxC= 1.00D-01 BMatC= 8.88D-07 BMatP= 2.26D-07
 IDIUse=1 WtCom= 1.00D+00 WtEn= 0.00D+00
 Coeff-Com:  0.682D+00 0.318D+00
 Coeff:      0.682D+00 0.318D+00
 Gap=     0.154 Goal=   None    Shift=    0.000
 RMSDP=8.92D-06 MaxDP=1.82D-04 DE= 8.22D-07 OVMax= 5.13D-04

 Cycle  10  Pass 1  IDiag  1:
 E= -326.652952028085     Delta-E=       -0.000001069238 Rises=F Damp=F
 DIIS: error= 1.47D-05 at cycle   3 NSaved=   3.
 NSaved= 3 IEnMin= 3 EnMin= -326.652952028085     IErMin= 3 ErrMin= 1.47D-05
 ErrMax= 1.47D-05  0.00D+00 EMaxC= 1.00D-01 BMatC= 2.19D-08 BMatP= 2.26D-07
 IDIUse=1 WtCom= 1.00D+00 WtEn= 0.00D+00
 Coeff-Com:  0.999D-01 0.144D+00 0.756D+00
 Coeff:      0.999D-01 0.144D+00 0.756D+00
 Gap=     0.154 Goal=   None    Shift=    0.000
 RMSDP=1.62D-06 MaxDP=4.20D-05 DE=-1.07D-06 OVMax= 8.42D-05

 Cycle  11  Pass 1  IDiag  1:
 E= -326.652952047555     Delta-E=       -0.000000019470 Rises=F Damp=F
 DIIS: error= 5.67D-06 at cycle   4 NSaved=   4.
 NSaved= 4 IEnMin= 4 EnMin= -326.652952047555     IErMin= 4 ErrMin= 5.67D-06
 ErrMax= 5.67D-06  0.00D+00 EMaxC= 1.00D-01 BMatC= 6.75D-09 BMatP= 2.19D-08
 IDIUse=1 WtCom= 1.00D+00 WtEn= 0.00D+00
 Coeff-Com: -0.384D-02 0.613D-01 0.481D+00 0.462D+00
 Coeff:     -0.384D-02 0.613D-01 0.481D+00 0.462D+00
 Gap=     0.154 Goal=   None    Shift=    0.000
 RMSDP=6.28D-07 MaxDP=1.57D-05 DE=-1.95D-08 OVMax= 2.85D-05

 Cycle  12  Pass 1  IDiag  1:
 E= -326.652952054306     Delta-E=       -0.000000006751 Rises=F Damp=F
 DIIS: error= 1.25D-06 at cycle   5 NSaved=   5.
 NSaved= 5 IEnMin= 5 EnMin= -326.652952054306     IErMin= 5 ErrMin= 1.25D-06
 ErrMax= 1.25D-06  0.00D+00 EMaxC= 1.00D-01 BMatC= 1.56D-10 BMatP= 6.75D-09
 IDIUse=1 WtCom= 1.00D+00 WtEn= 0.00D+00
 Coeff-Com: -0.363D-02 0.342D-01 0.273D+00 0.278D+00 0.419D+00
 Coeff:     -0.363D-02 0.342D-01 0.273D+00 0.278D+00 0.419D+00
 Gap=     0.154 Goal=   None    Shift=    0.000
 RMSDP=1.32D-07 MaxDP=2.91D-06 DE=-6.75D-09 OVMax= 1.01D-05

 Cycle  13  Pass 1  IDiag  1:
 E= -326.652952054458     Delta-E=       -0.000000000152 Rises=F Damp=F
 DIIS: error= 5.70D-07 at cycle   6 NSaved=   6.
 NSaved= 6 IEnMin= 6 EnMin= -326.652952054458     IErMin= 6 ErrMin= 5.70D-07
 ErrMax= 5.70D-07  0.00D+00 EMaxC= 1.00D-01 BMatC= 2.54D-11 BMatP= 1.56D-10
 IDIUse=1 WtCom= 1.00D+00 WtEn= 0.00D+00
 Coeff-Com: -0.201D-02 0.141D-01 0.115D+00 0.121D+00 0.284D+00 0.469D+00
 Coeff:     -0.201D-02 0.141D-01 0.115D+00 0.121D+00 0.284D+00 0.469D+00
 Gap=     0.154 Goal=   None    Shift=    0.000
 RMSDP=4.62D-08 MaxDP=1.01D-06 DE=-1.52D-10 OVMax= 2.72D-06

 Cycle  14  Pass 1  IDiag  1:
 E= -326.652952054484     Delta-E=       -0.000000000026 Rises=F Damp=F
 DIIS: error= 1.14D-07 at cycle   7 NSaved=   7.
 NSaved= 7 IEnMin= 7 EnMin= -326.652952054484     IErMin= 7 ErrMin= 1.14D-07
 ErrMax= 1.14D-07  0.00D+00 EMaxC= 1.00D-01 BMatC= 2.25D-12 BMatP= 2.54D-11
 IDIUse=1 WtCom= 1.00D+00 WtEn= 0.00D+00
 Coeff-Com: -0.965D-03 0.584D-02 0.480D-01 0.518D-01 0.139D+00 0.295D+00
 Coeff-Com:  0.461D+00
 Coeff:     -0.965D-03 0.584D-02 0.480D-01 0.518D-01 0.139D+00 0.295D+00
 Coeff:      0.461D+00
 Gap=     0.154 Goal=   None    Shift=    0.000
 RMSDP=1.48D-08 MaxDP=4.75D-07 DE=-2.65D-11 OVMax= 7.73D-07

 Cycle  15  Pass 1  IDiag  1:
 E= -326.652952054487     Delta-E=       -0.000000000003 Rises=F Damp=F
 DIIS: error= 2.41D-08 at cycle   8 NSaved=   8.
 NSaved= 8 IEnMin= 8 EnMin= -326.652952054487     IErMin= 8 ErrMin= 2.41D-08
 ErrMax= 2.41D-08  0.00D+00 EMaxC= 1.00D-01 BMatC= 2.04D-13 BMatP= 2.25D-12
 IDIUse=1 WtCom= 1.00D+00 WtEn= 0.00D+00
 Coeff-Com: -0.198D-03 0.979D-03 0.843D-02 0.968D-02 0.303D-01 0.890D-01
 Coeff-Com:  0.274D+00 0.588D+00
 Coeff:     -0.198D-03 0.979D-03 0.843D-02 0.968D-02 0.303D-01 0.890D-01
 Coeff:      0.274D+00 0.588D+00
 Gap=     0.154 Goal=   None    Shift=    0.000
 RMSDP=3.95D-09 MaxDP=9.80D-08 DE=-2.50D-12 OVMax= 2.06D-07

 SCF Done:  E(RB97D) =  -326.652952054     A.U. after   15 cycles
            NFock= 15  Conv=0.40D-08     -V/T= 2.0083
 KE= 3.239710197241D+02 PE=-1.445442537383D+03 EE= 4.509939846442D+02
 Leave Link  502 at Thu Mar 17 13:12:21 2016, MaxMem=  1048576000 cpu:        57.7
 (Enter /mnt/data/applications/G09/g09/l601.exe)
 Copying SCF densities to generalized density rwf, IOpCl= 0 IROHF=0.

 **********************************************************************

            Population analysis using the SCF density.

 **********************************************************************

 Orbital symmetries:
       Occupied  (A) (A) (A) (A) (A) (A) (A) (A) (A) (A) (A) (A)
                 (A) (A) (A) (A) (A) (A) (A) (A) (A) (A) (A) (A)
                 (A) (A) (A) (A) (A)
       Virtual   (A) (A) (A) (A) (A) (A) (A) (A) (A) (A) (A) (A)
                 (A) (A) (A) (A) (A) (A) (A) (A) (A) (A) (A) (A)
                 (A) (A) (A) (A) (A) (A) (A) (A) (A) (A) (A) (A)
                 (A) (A) (A) (A) (A) (A) (A) (A) (A) (A) (A) (A)
                 (A) (A) (A) (A) (A) (A) (A) (A) (A) (A) (A) (A)
                 (A) (A) (A) (A) (A) (A) (A) (A) (A) (A) (A) (A)
                 (A) (A) (A) (A) (A) (A) (A) (A) (A) (A) (A) (A)
                 (A) (A) (A) (A) (A) (A) (A) (A) (A) (A) (A) (A)
                 (A) (A) (A) (A) (A) (A) (A) (A) (A) (A) (A) (A)
                 (A)
 The electronic state is 1-A.
 Alpha  occ. eigenvalues --  -14.00082  -9.93992  -9.92158  -9.91323  -9.91267
 Alpha  occ. eigenvalues --   -9.91072  -9.90905  -9.90869  -0.83065  -0.76084
 Alpha  occ. eigenvalues --   -0.66979  -0.66215  -0.60147  -0.54181  -0.52386
 Alpha  occ. eigenvalues --   -0.46309  -0.42985  -0.40275  -0.38686  -0.37442
 Alpha  occ. eigenvalues --   -0.37170  -0.36469  -0.33713  -0.31301  -0.29986
 Alpha  occ. eigenvalues --   -0.29583  -0.22167  -0.21456  -0.17504
 Alpha virt. eigenvalues --   -0.02132  -0.01531   0.06818   0.08043   0.11133
 Alpha virt. eigenvalues --    0.12201   0.12983   0.13638   0.15180   0.15609
 Alpha virt. eigenvalues --    0.16873   0.18039   0.18862   0.22231   0.27847
 Alpha virt. eigenvalues --    0.28751   0.30781   0.31732   0.45297   0.47867
 Alpha virt. eigenvalues --    0.49587   0.50382   0.51093   0.51852   0.53842
 Alpha virt. eigenvalues --    0.55406   0.55897   0.57333   0.57675   0.58157
 Alpha virt. eigenvalues --    0.58529   0.61274   0.63521   0.64772   0.67690
 Alpha virt. eigenvalues --    0.71719   0.74980   0.78179   0.78717   0.79430
 Alpha virt. eigenvalues --    0.81635   0.82754   0.84754   0.85550   0.88079
 Alpha virt. eigenvalues --    0.89453   0.90256   0.91708   0.95341   0.96108
 Alpha virt. eigenvalues --    1.01237   1.04126   1.07408   1.10543   1.13035
 Alpha virt. eigenvalues --    1.16031   1.19519   1.28789   1.34613   1.36625
 Alpha virt. eigenvalues --    1.38394   1.39320   1.42240   1.42910   1.44907
 Alpha virt. eigenvalues --    1.45294   1.64821   1.69482   1.73141   1.74423
 Alpha virt. eigenvalues --    1.78672   1.82058   1.87541   1.88748   1.92134
 Alpha virt. eigenvalues --    1.96816   1.97745   1.99678   2.02483   2.07271
 Alpha virt. eigenvalues --    2.08220   2.13231   2.14564   2.18374   2.22005
 Alpha virt. eigenvalues --    2.23343   2.27124   2.29664   2.37305   2.43059
 Alpha virt. eigenvalues --    2.49552   2.52014   2.58370   2.61419   2.64811
 Alpha virt. eigenvalues --    2.65506   2.65900   2.71632   2.85045   2.99057
 Alpha virt. eigenvalues --    3.32549   3.87265   4.02223   4.04695   4.08610
 Alpha virt. eigenvalues --    4.21240   4.26109   4.31623   4.63274
          Condensed to atoms (all electrons):
               1          2          3          4          5          6
     1  C    4.991265   0.372141   0.368084   0.385768   0.310733  -0.040211
     2  H    0.372141   0.562962  -0.039054  -0.024384  -0.032496  -0.002171
     3  H    0.368084  -0.039054   0.624142  -0.040776  -0.058321  -0.005368
     4  H    0.385768  -0.024384  -0.040776   0.538655  -0.038144   0.006180
     5  N    0.310733  -0.032496  -0.058321  -0.038144   6.919106   0.307479
     6  H   -0.040211  -0.002171  -0.005368   0.006180   0.307479   0.460854
     7  C   -0.051283   0.005177   0.000993  -0.003636   0.309958  -0.039668
     8  C   -0.007456   0.000104   0.000530   0.004757  -0.054562   0.005413
     9  C   -0.000710  -0.000084   0.006211  -0.000314  -0.072354  -0.003829
    10  C   -0.000158   0.000003   0.000058  -0.000329   0.004187  -0.000180
    11  H    0.000569  -0.000133   0.000291   0.000745  -0.001755  -0.000158
    12  C   -0.000163   0.000009  -0.000612   0.000042   0.007018   0.000390
    13  H    0.000531  -0.000060   0.000573   0.000032  -0.007859   0.006189
    14  C    0.000037  -0.000001  -0.000024   0.000001   0.000390  -0.000005
    15  H    0.000000   0.000000  -0.000001   0.000008  -0.000105   0.000004
    16  H    0.000001   0.000000   0.000011   0.000000  -0.000132  -0.000011
    17  H    0.000000   0.000000   0.000000   0.000000   0.000004   0.000000
               7          8          9         10         11         12
     1  C   -0.051283  -0.007456  -0.000710  -0.000158   0.000569  -0.000163
     2  H    0.005177   0.000104  -0.000084   0.000003  -0.000133   0.000009
     3  H    0.000993   0.000530   0.006211   0.000058   0.000291  -0.000612
     4  H   -0.003636   0.004757  -0.000314  -0.000329   0.000745   0.000042
     5  N    0.309958  -0.054562  -0.072354   0.004187  -0.001755   0.007018
     6  H   -0.039668   0.005413  -0.003829  -0.000180  -0.000158   0.000390
     7  C    4.607535   0.553824   0.525112  -0.017517  -0.039083  -0.009608
     8  C    0.553824   4.946090  -0.060474   0.521245   0.346870  -0.040814
     9  C    0.525112  -0.060474   5.051565  -0.040721   0.006525   0.485346
    10  C   -0.017517   0.521245  -0.040721   4.890274  -0.044313  -0.027211
    11  H   -0.039083   0.346870   0.006525  -0.044313   0.595512   0.000129
    12  C   -0.009608  -0.040814   0.485346  -0.027211   0.000129   4.905683
    13  H   -0.045901   0.005576   0.349828   0.000385  -0.000168  -0.042006
    14  C   -0.035886  -0.039413  -0.042708   0.542223   0.004929   0.550958
    15  H    0.003883  -0.038958   0.000768   0.354832  -0.005977   0.004617
    16  H    0.003250   0.000756  -0.036056   0.004604   0.000018   0.350720
    17  H    0.000722   0.004607   0.004905  -0.043086  -0.000169  -0.042785
              13         14         15         16         17
     1  C    0.000531   0.000037   0.000000   0.000001   0.000000
     2  H   -0.000060  -0.000001   0.000000   0.000000   0.000000
     3  H    0.000573  -0.000024  -0.000001   0.000011   0.000000
     4  H    0.000032   0.000001   0.000008   0.000000   0.000000
     5  N   -0.007859   0.000390  -0.000105  -0.000132   0.000004
     6  H    0.006189  -0.000005   0.000004  -0.000011   0.000000
     7  C   -0.045901  -0.035886   0.003883   0.003250   0.000722
     8  C    0.005576  -0.039413  -0.038958   0.000756   0.004607
     9  C    0.349828  -0.042708   0.000768  -0.036056   0.004905
    10  C    0.000385   0.542223   0.354832   0.004604  -0.043086
    11  H   -0.000168   0.004929  -0.005977   0.000018  -0.000169
    12  C   -0.042006   0.550958   0.004617   0.350720  -0.042785
    13  H    0.611927   0.004822   0.000016  -0.005861  -0.000178
    14  C    0.004822   4.873862  -0.042840  -0.042273   0.357173
    15  H    0.000016  -0.042840   0.596723  -0.000190  -0.005645
    16  H   -0.005861  -0.042273  -0.000190   0.599806  -0.005683
    17  H   -0.000178   0.357173  -0.005645  -0.005683   0.601576
 Mulliken charges:
               1
     1  C   -0.329147
     2  H    0.157988
     3  H    0.143263
     4  H    0.171396
     5  N   -0.593146
     6  H    0.305092
     7  C    0.232127
     8  C   -0.148095
     9  C   -0.173011
    10  C   -0.144295
    11  H    0.136166
    12  C   -0.141712
    13  H    0.122153
    14  C   -0.131245
    15  H    0.132864
    16  H    0.131040
    17  H    0.128560
 Sum of Mulliken charges =   0.00000
 Mulliken charges with hydrogens summed into heavy atoms:
               1
     1  C    0.143499
     5  N   -0.288054
     7  C    0.232127
     8  C   -0.011928
     9  C   -0.050857
    10  C   -0.011431
    12  C   -0.010672
    14  C   -0.002684
 Electronic spatial extent (au):  <R**2>=            989.8841
 Charge=              0.0000 electrons
 Dipole moment (field-independent basis, Debye):
    X=             -0.3095    Y=             -0.8245    Z=              0.7091  Tot=              1.1307
 Quadrupole moment (field-independent basis, Debye-Ang):
   XX=            -43.1944   YY=            -42.9021   ZZ=            -51.0431
   XY=              2.3140   XZ=             -0.4960   YZ=              1.4832
 Traceless Quadrupole moment (field-independent basis, Debye-Ang):
   XX=              2.5188   YY=              2.8111   ZZ=             -5.3299
   XY=              2.3140   XZ=             -0.4960   YZ=              1.4832
 Octapole moment (field-independent basis, Debye-Ang**2):
  XXX=             -4.0340  YYY=             -0.5080  ZZZ=             -0.1522  XYY=             -0.6489
  XXY=             -4.9438  XXZ=              5.5963  XZZ=             -3.8817  YZZ=             -1.7123
  YYZ=             -0.8982  XYZ=             -4.1998
 Hexadecapole moment (field-independent basis, Debye-Ang**3):
 XXXX=           -851.5559 YYYY=           -290.3952 ZZZZ=           -105.3270 XXXY=             13.3333
 XXXZ=              5.7205 YYYX=              3.4649 YYYZ=              1.0037 ZZZX=             -0.2839
 ZZZY=              3.4298 XXYY=           -191.0873 XXZZ=           -179.6701 YYZZ=            -72.6222
 XXYZ=              8.3029 YYXZ=              4.1255 ZZXY=              3.6147
 N-N= 3.438245809603D+02 E-N=-1.445442538930D+03  KE= 3.239710197241D+02
 No NMR shielding tensors so no spin-rotation constants.
 Leave Link  601 at Thu Mar 17 13:12:21 2016, MaxMem=  1048576000 cpu:         1.2
 (Enter /mnt/data/applications/G09/g09/l701.exe)
 Compute integral first derivatives.
 ... and contract with generalized density number  0.
 R6Disp: Adding Grimme-D2 dispersion energy 1st derivatives to the gradient.
 Leave Link  701 at Thu Mar 17 13:12:22 2016, MaxMem=  1048576000 cpu:         1.4
 (Enter /mnt/data/applications/G09/g09/l702.exe)
 L702 exits ... SP integral derivatives will be done elsewhere.
 Leave Link  702 at Thu Mar 17 13:12:22 2016, MaxMem=  1048576000 cpu:         0.2
 (Enter /mnt/data/applications/G09/g09/l703.exe)
 Compute integral first derivatives, UseDBF=F ICtDFT=           0.
 Integral derivatives from FoFJK, PRISM(SPDF).
 Calling FoFJK, ICntrl=      2527 FMM=F ISym2X=0 I1Cent= 0 IOpClX= 0 NMat=1 NMatS=1 NMatT=0.
 FoFJK:  IHMeth= 1 ICntrl=    2527 DoSepK=F KAlg= 0 I1Cent=   0 FoldK=F
 IRaf=         0 NMat=   1 IRICut=       1 DoRegI=T DoRafI=F ISym2E= 0.
 FoFCou: FMM=F IPFlag=           0 FMFlag=      100000 FMFlg1=         800
         NFxFlg=           0 DoJE=F BraDBF=F KetDBF=F FulRan=T
         wScrn=  0.000000 ICntrl=    2527 IOpCl=  0 I1Cent=           0 NGrid=           0
         NMat0=    1 NMatS0=      1 NMatT0=    0 NMatD0=    1 NMtDS0=    0 NMtDT0=    0
 Symmetry not used in FoFCou.
 Leave Link  703 at Thu Mar 17 13:12:24 2016, MaxMem=  1048576000 cpu:        15.4
 (Enter /mnt/data/applications/G09/g09/l716.exe)
 Dipole        =-1.21773064D-01-3.24368578D-01 2.78985648D-01
 ***** Axes restored to original set *****
 -------------------------------------------------------------------
 Center     Atomic                   Forces (Hartrees/Bohr)
 Number     Number              X              Y              Z
 -------------------------------------------------------------------
      1        6           0.013180122    0.008133975   -0.014167958
      2        1           0.006134985   -0.020545463   -0.000356448
      3        1           0.000480851    0.006603753    0.026333920
      4        1          -0.019469995   -0.000285062   -0.002784996
      5        7          -0.031733648    0.019747522   -0.012566109
      6        1           0.017415494    0.001781943    0.004801358
      7        6           0.018479339   -0.028559688   -0.002130184
      8        6          -0.011553584   -0.008405727   -0.006422781
      9        6           0.009809706    0.003450242    0.005798437
     10        6          -0.009522392    0.001202695   -0.003671891
     11        1           0.004594333    0.002254400    0.002282021
     12        6           0.006979797    0.009442998    0.004283284
     13        1          -0.003736699   -0.000213100   -0.001671607
     14        6          -0.004702601    0.014686696    0.000429532
     15        1           0.004184794   -0.001501702    0.001863127
     16        1          -0.002244581   -0.003387724   -0.002068497
     17        1           0.001704079   -0.004405757    0.000048792
 -------------------------------------------------------------------
 Cartesian Forces:  Max     0.031733648 RMS     0.010911735
 Leave Link  716 at Thu Mar 17 13:12:24 2016, MaxMem=  1048576000 cpu:         0.2
 (Enter /mnt/data/applications/G09/g09/l103.exe)

 GradGradGradGradGradGradGradGradGradGradGradGradGradGradGradGradGradGrad
 Berny optimization.
 FormGI is forming the generalized inverse of G from B-inverse, IUseBI=4.
 Internal  Forces:  Max     0.026045032 RMS     0.006610789
 Search for a local minimum.
 Step number   1 out of a maximum of   88
 All quantities printed in internal units (Hartrees-Bohrs-Radians)
 RMS Force = .66108D-02 SwitMx=.10000D-02 MixMth= 1
 Mixed Optimization -- RFO/linear search
 Second derivative matrix not updated -- first step.
 ITU=  0
     Eigenvalues ---    0.00766   0.00766   0.01728   0.02152   0.02153
     Eigenvalues ---    0.02154   0.02155   0.02155   0.02155   0.02156
     Eigenvalues ---    0.02157   0.03399   0.07537   0.07537   0.11287
     Eigenvalues ---    0.16000   0.16000   0.16000   0.16000   0.16000
     Eigenvalues ---    0.16000   0.16000   0.16000   0.22000   0.22000
     Eigenvalues ---    0.23464   0.23486   0.25000   0.33709   0.33718
     Eigenvalues ---    0.33718   0.33720   0.33726   0.35740   0.35740
     Eigenvalues ---    0.37230   0.37230   0.37230   0.42121   0.42300
     Eigenvalues ---    0.46412   0.46453   0.46466   0.46497   0.47688
 RFO step:  Lambda=-1.03642687D-02 EMin= 7.65814427D-03
 Linear search not attempted -- first point.
 Iteration  1 RMS(Cart)=  0.07649293 RMS(Int)=  0.00284030
 Iteration  2 RMS(Cart)=  0.00441312 RMS(Int)=  0.00012950
 Iteration  3 RMS(Cart)=  0.00002111 RMS(Int)=  0.00012861
 Iteration  4 RMS(Cart)=  0.00000001 RMS(Int)=  0.00012861
 ITry= 1 IFail=0 DXMaxC= 2.55D-01 DCOld= 1.00D+10 DXMaxT= 3.00D-01 DXLimC= 3.00D+00 Rises=F
 Variable       Old X    -DE/DX   Delta X   Delta X   Delta X     New X
                                 (Linear)    (Quad)   (Total)
    R1        2.02201   0.02142   0.00000   0.05597   0.05597   2.07797
    R2        2.02201   0.02605   0.00000   0.06806   0.06806   2.09007
    R3        2.02201   0.01966   0.00000   0.05139   0.05139   2.07339
    R4        2.77790   0.00961   0.00000   0.02612   0.02612   2.80402
    R5        1.88973   0.01791   0.00000   0.03677   0.03677   1.92649
    R6        2.77790  -0.01922   0.00000  -0.05227  -0.05227   2.72563
    R7        2.63647   0.00856   0.00000   0.01806   0.01806   2.65453
    R8        2.63584   0.01182   0.00000   0.02503   0.02503   2.66087
    R9        2.63562   0.00766   0.00000   0.01599   0.01599   2.65162
   R10        2.07805  -0.00507   0.00000  -0.01459  -0.01459   2.06345
   R11        2.63643   0.00866   0.00000   0.01837   0.01836   2.65479
   R12        2.07795  -0.00393   0.00000  -0.01131  -0.01131   2.06664
   R13        2.63697   0.00945   0.00000   0.01976   0.01977   2.65674
   R14        2.07809  -0.00479   0.00000  -0.01378  -0.01378   2.06431
   R15        2.63584   0.00796   0.00000   0.01672   0.01672   2.65256
   R16        2.07825  -0.00456   0.00000  -0.01311  -0.01311   2.06513
   R17        2.07809  -0.00472   0.00000  -0.01359  -0.01359   2.06451
    A1        1.91063  -0.00311   0.00000  -0.00850  -0.00907   1.90156
    A2        1.91063  -0.00103   0.00000  -0.01890  -0.01929   1.89134
    A3        1.91063  -0.00129   0.00000  -0.00913  -0.00964   1.90099
    A4        1.91063  -0.00408   0.00000  -0.02086  -0.02087   1.88976
    A5        1.91063   0.01173   0.00000   0.07527   0.07496   1.98560
    A6        1.91063  -0.00222   0.00000  -0.01789  -0.01808   1.89255
    A7        1.91063  -0.00273   0.00000  -0.00716  -0.00689   1.90374
    A8        1.91063   0.01294   0.00000   0.05252   0.05259   1.96323
    A9        1.91063  -0.00521   0.00000  -0.02648  -0.02653   1.88411
   A10        2.09435  -0.00476   0.00000  -0.01838  -0.01837   2.07598
   A11        2.09447   0.00670   0.00000   0.02564   0.02566   2.12013
   A12        2.09437  -0.00194   0.00000  -0.00726  -0.00729   2.08707
   A13        2.09455   0.00016   0.00000   0.00032   0.00030   2.09485
   A14        2.09406  -0.00242   0.00000  -0.01391  -0.01391   2.08015
   A15        2.09458   0.00226   0.00000   0.01359   0.01359   2.10817
   A16        2.09440   0.00113   0.00000   0.00535   0.00531   2.09970
   A17        2.09453  -0.00166   0.00000  -0.00911  -0.00910   2.08544
   A18        2.09426   0.00053   0.00000   0.00376   0.00377   2.09803
   A19        2.09429   0.00186   0.00000   0.00733   0.00727   2.10157
   A20        2.09462  -0.00144   0.00000  -0.00663  -0.00666   2.08796
   A21        2.09427  -0.00043   0.00000  -0.00069  -0.00073   2.09354
   A22        2.09448   0.00007   0.00000   0.00039   0.00033   2.09481
   A23        2.09411  -0.00023   0.00000  -0.00134  -0.00134   2.09277
   A24        2.09459   0.00016   0.00000   0.00095   0.00094   2.09554
   A25        2.09429  -0.00128   0.00000  -0.00611  -0.00613   2.08816
   A26        2.09407   0.00078   0.00000   0.00387   0.00388   2.09795
   A27        2.09483   0.00050   0.00000   0.00224   0.00225   2.09708
    D1       -1.04914  -0.00192   0.00000  -0.01798  -0.01796  -1.06710
    D2        3.13965  -0.00179   0.00000  -0.01332  -0.01345   3.12621
    D3        1.04526   0.00066   0.00000   0.01211   0.01240   1.05765
    D4       -1.04914   0.00079   0.00000   0.01677   0.01691  -1.03222
    D5        3.13965   0.00148   0.00000   0.02171   0.02162  -3.12192
    D6        1.04526   0.00161   0.00000   0.02636   0.02613   1.07139
    D7       -1.45537   0.00234   0.00000   0.09401   0.09385  -1.36151
    D8        1.68613   0.00224   0.00000   0.09013   0.08996   1.77609
    D9        2.73342   0.00095   0.00000   0.08683   0.08701   2.82043
   D10       -0.40826   0.00084   0.00000   0.08296   0.08311  -0.32515
   D11       -3.14112  -0.00024   0.00000  -0.00772  -0.00767   3.13440
   D12       -0.00091  -0.00037   0.00000  -0.01205  -0.01196  -0.01287
   D13        0.00056  -0.00013   0.00000  -0.00384  -0.00385  -0.00328
   D14        3.14078  -0.00027   0.00000  -0.00817  -0.00814   3.13263
   D15       -3.14124  -0.00034   0.00000  -0.01048  -0.01040   3.13154
   D16       -0.00010  -0.00013   0.00000  -0.00366  -0.00363  -0.00372
   D17        0.00026  -0.00045   0.00000  -0.01435  -0.01433  -0.01407
   D18        3.14140  -0.00023   0.00000  -0.00754  -0.00755   3.13386
   D19       -0.00099   0.00049   0.00000   0.01527   0.01528   0.01429
   D20        3.14093  -0.00005   0.00000  -0.00157  -0.00154   3.13939
   D21       -3.14120   0.00063   0.00000   0.01962   0.01967  -3.12154
   D22        0.00072   0.00009   0.00000   0.00278   0.00285   0.00356
   D23       -0.00066   0.00067   0.00000   0.02111   0.02114   0.02048
   D24        3.14116   0.00027   0.00000   0.00842   0.00844  -3.13359
   D25        3.14138   0.00045   0.00000   0.01430   0.01431  -3.12749
   D26        0.00001   0.00005   0.00000   0.00161   0.00162   0.00163
   D27        0.00060  -0.00027   0.00000  -0.00851  -0.00849  -0.00790
   D28       -3.14153  -0.00034   0.00000  -0.01052  -0.01052   3.13114
   D29       -3.14132   0.00027   0.00000   0.00833   0.00838  -3.13294
   D30       -0.00026   0.00020   0.00000   0.00632   0.00636   0.00609
   D31        0.00023  -0.00031   0.00000  -0.00969  -0.00968  -0.00945
   D32       -3.14083  -0.00024   0.00000  -0.00768  -0.00766   3.13469
   D33       -3.14158   0.00009   0.00000   0.00302   0.00303  -3.13855
   D34        0.00054   0.00016   0.00000   0.00503   0.00505   0.00559
         Item               Value     Threshold  Converged?
 Maximum Force            0.026045     0.000450     NO 
 RMS     Force            0.006611     0.000300     NO 
 Maximum Displacement     0.255032     0.001800     NO 
 RMS     Displacement     0.079146     0.001200     NO 
 Predicted change in Energy=-5.525472D-03
 Lowest energy point so far.  Saving SCF results.
 GradGradGradGradGradGradGradGradGradGradGradGradGradGradGradGradGradGrad

 Leave Link  103 at Thu Mar 17 13:12:24 2016, MaxMem=  1048576000 cpu:         0.1
 (Enter /mnt/data/applications/G09/g09/l202.exe)
                          Input orientation:                          
 ---------------------------------------------------------------------
 Center     Atomic      Atomic             Coordinates (Angstroms)
 Number     Number       Type             X           Y           Z
 ---------------------------------------------------------------------
      1          6           0       -1.474539    0.986206   -0.144564
      2          1           0       -1.084670   -0.040517   -0.199325
      3          1           0       -1.354586    1.361334    0.888956
      4          1           0       -2.545975    0.962147   -0.379677
      5          7           0       -0.788654    1.816357   -1.165418
      6          1           0        0.211187    1.829982   -0.966866
      7          6           0       -1.258756    3.179909   -1.174196
      8          6           0       -2.484528    3.472433   -1.794798
      9          6           0       -0.519618    4.216268   -0.572279
     10          6           0       -2.967576    4.789764   -1.809064
     11          1           0       -3.048298    2.665231   -2.266927
     12          6           0       -0.994905    5.537854   -0.605821
     13          1           0        0.430962    3.985626   -0.083196
     14          6           0       -2.223645    5.826969   -1.219749
     15          1           0       -3.920585    5.010331   -2.295311
     16          1           0       -0.412309    6.338321   -0.143116
     17          1           0       -2.598336    6.852968   -1.241382
 ---------------------------------------------------------------------
                    Distance matrix (angstroms):
                    1          2          3          4          5
     1  C    0.000000
     2  H    1.099617   0.000000
     3  H    1.106017   1.795104   0.000000
     4  H    1.097193   1.781370   1.785550   0.000000
     5  N    1.483823   2.113987   2.178939   2.106001   0.000000
     6  H    2.056650   2.401485   2.472924   2.949555   1.019456
     7  C    2.432907   3.369247   2.751908   2.684523   1.442341
     8  C    3.150345   4.104383   3.596672   2.882339   2.452488
     9  C    3.395308   4.310290   3.314065   3.838297   2.486718
    10  C    4.412117   5.428463   4.651364   4.107499   3.742076
    11  H    3.130538   3.930889   3.811615   2.591242   2.653281
    12  C    4.600033   5.593882   4.450511   4.836740   3.768982
    13  H    3.554042   4.303539   3.319664   4.253408   2.713742
    14  C    5.014994   6.063491   5.014359   4.947333   4.259948
    15  H    5.177106   6.160084   5.480792   4.684762   4.613797
    16  H    5.456507   6.414422   5.169474   5.788932   4.651333
    17  H    6.073288   7.134228   6.020241   5.953742   5.352399
                    6          7          8          9         10
     6  H    0.000000
     7  C    2.006495   0.000000
     8  C    3.263434   1.404719   0.000000
     9  C    2.526685   1.408072   2.430785   0.000000
    10  C    4.424268   2.432028   1.403175   2.801969   0.000000
    11  H    3.607221   2.159032   1.091933   3.416397   2.174810
    12  C    3.915779   2.439789   2.810447   1.404853   2.428758
    13  H    2.340080   2.166704   3.419508   1.093619   3.895552
    14  C    4.687031   2.817803   2.437741   2.432546   1.405887
    15  H    5.380606   3.419456   2.162846   3.894348   1.092388
    16  H    4.625195   3.428580   3.903263   2.167673   3.420935
    17  H    5.761872   3.910288   3.427425   3.423588   2.171500
                   11         12         13         14         15
    11  H    0.000000
    12  C    3.902264   0.000000
    13  H    4.314786   2.171554   0.000000
    14  C    3.431212   1.403673   3.424798   0.000000
    15  H    2.502236   3.419395   4.987929   2.168717   0.000000
    16  H    4.995058   1.092822   2.499975   2.168308   4.324754
    17  H    4.334899   2.168976   4.328937   1.092491   2.500884
                   16         17
    16  H    0.000000
    17  H    2.499953   0.000000
 Stoichiometry    C7H9N
 Framework group  C1[X(C7H9N)]
 Deg. of freedom    45
 Full point group                 C1      NOp   1
 RotChk:  IX=0 Diff= 7.20D-02
 Largest Abelian subgroup         C1      NOp   1
 Largest concise Abelian subgroup C1      NOp   1
                         Standard orientation:                         
 ---------------------------------------------------------------------
 Center     Atomic      Atomic             Coordinates (Angstroms)
 Number     Number       Type             X           Y           Z
 ---------------------------------------------------------------------
      1          6           0       -2.698710    0.163901    0.609485
      2          1           0       -3.761812    0.109493    0.333782
      3          1           0       -2.516365   -0.505219    1.471055
      4          1           0       -2.474013    1.192293    0.918926
      5          7           0       -1.875520   -0.157962   -0.582359
      6          1           0       -2.090580   -1.105892   -0.889719
      7          6           0       -0.460707   -0.089000   -0.310525
      8          6           0        0.159727    1.169912   -0.251882
      9          6           0        0.304884   -1.251738   -0.099389
     10          6           0        1.533183    1.263845    0.019587
     11          1           0       -0.438439    2.066881   -0.424975
     12          6           0        1.683852   -1.156636    0.151633
     13          1           0       -0.181118   -2.230666   -0.138177
     14          6           0        2.300558    0.102588    0.217414
     15          1           0        2.009478    2.246029    0.061637
     16          1           0        2.273201   -2.063689    0.307143
     17          1           0        3.371567    0.179269    0.418900
 ---------------------------------------------------------------------
 Rotational constants (GHZ):      4.6175982      1.5091377      1.2283024
 Leave Link  202 at Thu Mar 17 13:12:24 2016, MaxMem=  1048576000 cpu:         0.0
 (Enter /mnt/data/applications/G09/g09/l301.exe)
 Standard basis: 6-31G(d) (6D, 7F)
 Ernie: Thresh=  0.10000D-02 Tol=  0.10000D-05 Strict=F.
 There are   138 symmetry adapted cartesian basis functions of A   symmetry.
 There are   138 symmetry adapted basis functions of A   symmetry.
   138 basis functions,   260 primitive gaussians,   138 cartesian basis functions
    29 alpha electrons       29 beta electrons
       nuclear repulsion energy       341.8689749719 Hartrees.
 IExCor= 3630 DFT=T Ex+Corr=B97D ExCW=0 ScaHFX=  0.000000
 ScaDFX=  1.000000  1.000000  1.000000  1.000000 ScalE2=  1.000000  1.000000
 IRadAn=      0 IRanWt=     -1 IRanGd=            0 ICorTp=0 IEmpDi=121
 NAtoms=   17 NActive=   17 NUniq=   17 SFac= 1.00D+00 NAtFMM=   60 NAOKFM=F Big=F
 Integral buffers will be    131072 words long.
 Raffenetti 2 integral format.
 Two-electron integral symmetry is turned on.
 R6Disp:  Grimme-D2 Dispersion energy=       -0.0178520387 Hartrees.
 Nuclear repulsion after empirical dispersion term =      341.8511229331 Hartrees.
 Leave Link  301 at Thu Mar 17 13:12:24 2016, MaxMem=  1048576000 cpu:         0.5
 (Enter /mnt/data/applications/G09/g09/l302.exe)
 NPDir=0 NMtPBC=     1 NCelOv=     1 NCel=       1 NClECP=     1 NCelD=      1
         NCelK=      1 NCelE2=     1 NClLst=     1 CellRange=     0.0.
 One-electron integrals computed using PRISM.
 NBasis=   138 RedAO= T EigKep=  4.87D-04  NBF=   138
 NBsUse=   138 1.00D-06 EigRej= -1.00D+00 NBFU=   138
 Precomputing XC quadrature grid using
 IXCGrd= 4 IRadAn=           0 IRanWt=          -1 IRanGd=           0 AccXCQ= 0.00D+00.
 Generated NRdTot=       0 NPtTot=           0 NUsed=           0 NTot=          32
 NSgBfM=   138   138   138   138   138 MxSgAt=    17 MxSgA2=    17.
 Leave Link  302 at Thu Mar 17 13:12:25 2016, MaxMem=  1048576000 cpu:         1.7
 (Enter /mnt/data/applications/G09/g09/l303.exe)
 DipDrv:  MaxL=1.
 Leave Link  303 at Thu Mar 17 13:12:25 2016, MaxMem=  1048576000 cpu:         0.3
 (Enter /mnt/data/applications/G09/g09/l401.exe)
 Initial guess from the checkpoint file:  "methylaniline.chk"
 B after Tr=     0.000000    0.000000    0.000000
         Rot=    0.999753    0.019653    0.002211   -0.010116 Ang=   2.55 deg.
 Guess basis will be translated and rotated to current coordinates.
 JPrj=2 DoOrth=T DoCkMO=T.
 Generating alternative initial guess.
 ExpMin= 1.61D-01 ExpMax= 4.17D+03 ExpMxC= 6.27D+02 IAcc=1 IRadAn=         1 AccDes= 0.00D+00
 Harris functional with IExCor= 3630 and IRadAn=       1 diagonalized for initial guess.
 HarFok:  IExCor= 3630 AccDes= 0.00D+00 IRadAn=         1 IDoV= 1 UseB2=F ITyADJ=14
 ICtDFT=  3500011 ScaDFX=  1.000000  1.000000  1.000000  1.000000
 FoFCou: FMM=F IPFlag=           0 FMFlag=      100000 FMFlg1=           0
         NFxFlg=           0 DoJE=T BraDBF=F KetDBF=T FulRan=T
         wScrn=  0.000000 ICntrl=     500 IOpCl=  0 I1Cent=   200000004 NGrid=           0
         NMat0=    1 NMatS0=      1 NMatT0=    0 NMatD0=    1 NMtDS0=    0 NMtDT0=    0
 Petite list used in FoFCou.
 Harris En= -326.785674540102    
 Leave Link  401 at Thu Mar 17 13:12:25 2016, MaxMem=  1048576000 cpu:         3.9
 (Enter /mnt/data/applications/G09/g09/l502.exe)
 Closed shell SCF:
 Using DIIS extrapolation, IDIIS=  1040.
 Integral symmetry usage will be decided dynamically.
 Keep J ints in memory in canonical form, NReq=47419012.
 IVT=       77836 IEndB=       77836 NGot=  1048576000 MDV=  1002499729
 LenX=  1002499729 LenY=  1002480244
 Requested convergence on RMS density matrix=1.00D-08 within 128 cycles.
 Requested convergence on MAX density matrix=1.00D-06.
 Requested convergence on             energy=1.00D-06.
 No special actions if energy rises.
 FoFCou: FMM=F IPFlag=           0 FMFlag=           0 FMFlg1=           0
         NFxFlg=           0 DoJE=F BraDBF=F KetDBF=F FulRan=T
         wScrn=  0.000000 ICntrl=     600 IOpCl=  0 I1Cent=           0 NGrid=           0
         NMat0=    1 NMatS0=   9591 NMatT0=    0 NMatD0=    1 NMtDS0=    0 NMtDT0=    0
 Symmetry not used in FoFCou.
 Integral accuracy reduced to 1.0D-05 until final iterations.

 Cycle   1  Pass 0  IDiag  1:
 E= -326.651023389788    
 DIIS: error= 4.39D-03 at cycle   1 NSaved=   1.
 NSaved= 1 IEnMin= 1 EnMin= -326.651023389788     IErMin= 1 ErrMin= 4.39D-03
 ErrMax= 4.39D-03  0.00D+00 EMaxC= 1.00D-01 BMatC= 3.86D-03 BMatP= 3.86D-03
 IDIUse=3 WtCom= 9.56D-01 WtEn= 4.39D-02
 Coeff-Com:  0.100D+01
 Coeff-En:   0.100D+01
 Coeff:      0.100D+01
 Gap=     1.756 Goal=   None    Shift=    0.000
 GapD=    1.756 DampG=2.000 DampE=1.000 DampFc=2.0000 IDamp=-1.
 RMSDP=8.54D-04 MaxDP=1.54D-02              OVMax= 3.57D-02

 Cycle   2  Pass 0  IDiag  1:
 E= -326.658072867015     Delta-E=       -0.007049477227 Rises=F Damp=F
 DIIS: error= 2.50D-03 at cycle   2 NSaved=   2.
 NSaved= 2 IEnMin= 2 EnMin= -326.658072867015     IErMin= 2 ErrMin= 2.50D-03
 ErrMax= 2.50D-03  0.00D+00 EMaxC= 1.00D-01 BMatC= 5.98D-04 BMatP= 3.86D-03
 IDIUse=3 WtCom= 9.75D-01 WtEn= 2.50D-02
 Coeff-Com:  0.187D+00 0.813D+00
 Coeff-En:   0.000D+00 0.100D+01
 Coeff:      0.183D+00 0.817D+00
 Gap=     0.155 Goal=   None    Shift=    0.000
 RMSDP=3.52D-04 MaxDP=1.18D-02 DE=-7.05D-03 OVMax= 1.36D-02

 Cycle   3  Pass 0  IDiag  1:
 E= -326.658013436506     Delta-E=        0.000059430510 Rises=F Damp=F
 DIIS: error= 2.49D-03 at cycle   3 NSaved=   3.
 NSaved= 3 IEnMin= 2 EnMin= -326.658072867015     IErMin= 3 ErrMin= 2.49D-03
 ErrMax= 2.49D-03  0.00D+00 EMaxC= 1.00D-01 BMatC= 6.54D-04 BMatP= 5.98D-04
 IDIUse=3 WtCom= 9.75D-01 WtEn= 2.49D-02
 Coeff-Com:  0.112D-01 0.509D+00 0.480D+00
 Coeff-En:   0.000D+00 0.519D+00 0.481D+00
 Coeff:      0.109D-01 0.509D+00 0.480D+00
 Gap=     0.153 Goal=   None    Shift=    0.000
 RMSDP=1.99D-04 MaxDP=6.06D-03 DE= 5.94D-05 OVMax= 9.03D-03

 Cycle   4  Pass 0  IDiag  1:
 E= -326.658660689261     Delta-E=       -0.000647252755 Rises=F Damp=F
 DIIS: error= 6.09D-04 at cycle   4 NSaved=   4.
 NSaved= 4 IEnMin= 4 EnMin= -326.658660689261     IErMin= 4 ErrMin= 6.09D-04
 ErrMax= 6.09D-04  0.00D+00 EMaxC= 1.00D-01 BMatC= 3.35D-05 BMatP= 5.98D-04
 IDIUse=3 WtCom= 9.94D-01 WtEn= 6.09D-03
 Coeff-Com:  0.270D-02 0.317D+00 0.314D+00 0.367D+00
 Coeff-En:   0.000D+00 0.000D+00 0.000D+00 0.100D+01
 Coeff:      0.268D-02 0.315D+00 0.312D+00 0.371D+00
 Gap=     0.153 Goal=   None    Shift=    0.000
 RMSDP=5.93D-05 MaxDP=1.44D-03 DE=-6.47D-04 OVMax= 3.28D-03

 Cycle   5  Pass 0  IDiag  1:
 E= -326.658696115196     Delta-E=       -0.000035425935 Rises=F Damp=F
 DIIS: error= 2.12D-04 at cycle   5 NSaved=   5.
 NSaved= 5 IEnMin= 5 EnMin= -326.658696115196     IErMin= 5 ErrMin= 2.12D-04
 ErrMax= 2.12D-04  0.00D+00 EMaxC= 1.00D-01 BMatC= 3.45D-06 BMatP= 3.35D-05
 IDIUse=3 WtCom= 9.98D-01 WtEn= 2.12D-03
 Coeff-Com:  0.916D-04 0.112D+00 0.114D+00 0.255D+00 0.519D+00
 Coeff-En:   0.000D+00 0.000D+00 0.000D+00 0.130D+00 0.870D+00
 Coeff:      0.914D-04 0.112D+00 0.114D+00 0.254D+00 0.519D+00
 Gap=     0.153 Goal=   None    Shift=    0.000
 RMSDP=1.69D-05 MaxDP=3.32D-04 DE=-3.54D-05 OVMax= 1.00D-03

 Cycle   6  Pass 0  IDiag  1:
 E= -326.658700202111     Delta-E=       -0.000004086915 Rises=F Damp=F
 DIIS: error= 2.36D-05 at cycle   6 NSaved=   6.
 NSaved= 6 IEnMin= 6 EnMin= -326.658700202111     IErMin= 6 ErrMin= 2.36D-05
 ErrMax= 2.36D-05  0.00D+00 EMaxC= 1.00D-01 BMatC= 1.09D-07 BMatP= 3.45D-06
 IDIUse=1 WtCom= 1.00D+00 WtEn= 0.00D+00
 Coeff-Com: -0.612D-04 0.408D-01 0.419D-01 0.112D+00 0.274D+00 0.532D+00
 Coeff:     -0.612D-04 0.408D-01 0.419D-01 0.112D+00 0.274D+00 0.532D+00
 Gap=     0.153 Goal=   None    Shift=    0.000
 RMSDP=3.38D-06 MaxDP=9.03D-05 DE=-4.09D-06 OVMax= 1.68D-04

 Initial convergence to 1.0D-05 achieved.  Increase integral accuracy.
 Cycle   7  Pass 1  IDiag  1:
 E= -326.658767857319     Delta-E=       -0.000067655208 Rises=F Damp=F
 DIIS: error= 3.20D-05 at cycle   1 NSaved=   1.
 NSaved= 1 IEnMin= 1 EnMin= -326.658767857319     IErMin= 1 ErrMin= 3.20D-05
 ErrMax= 3.20D-05  0.00D+00 EMaxC= 1.00D-01 BMatC= 1.15D-07 BMatP= 1.15D-07
 IDIUse=1 WtCom= 1.00D+00 WtEn= 0.00D+00
 Coeff-Com:  0.100D+01
 Coeff:      0.100D+01
 Gap=     0.153 Goal=   None    Shift=    0.000
 RMSDP=3.38D-06 MaxDP=9.03D-05 DE=-6.77D-05 OVMax= 1.71D-04

 Cycle   8  Pass 1  IDiag  1:
 E= -326.658767938074     Delta-E=       -0.000000080755 Rises=F Damp=F
 DIIS: error= 1.65D-05 at cycle   2 NSaved=   2.
 NSaved= 2 IEnMin= 2 EnMin= -326.658767938074     IErMin= 2 ErrMin= 1.65D-05
 ErrMax= 1.65D-05  0.00D+00 EMaxC= 1.00D-01 BMatC= 6.00D-08 BMatP= 1.15D-07
 IDIUse=1 WtCom= 1.00D+00 WtEn= 0.00D+00
 Coeff-Com:  0.379D+00 0.621D+00
 Coeff:      0.379D+00 0.621D+00
 Gap=     0.153 Goal=   None    Shift=    0.000
 RMSDP=3.68D-06 MaxDP=1.24D-04 DE=-8.08D-08 OVMax= 2.11D-04

 Cycle   9  Pass 1  IDiag  1:
 E= -326.658767935498     Delta-E=        0.000000002576 Rises=F Damp=F
 DIIS: error= 1.67D-05 at cycle   3 NSaved=   3.
 NSaved= 3 IEnMin= 2 EnMin= -326.658767938074     IErMin= 2 ErrMin= 1.65D-05
 ErrMax= 1.67D-05  0.00D+00 EMaxC= 1.00D-01 BMatC= 5.90D-08 BMatP= 6.00D-08
 IDIUse=1 WtCom= 1.00D+00 WtEn= 0.00D+00
 Coeff-Com:  0.217D-01 0.492D+00 0.486D+00
 Coeff:      0.217D-01 0.492D+00 0.486D+00
 Gap=     0.153 Goal=   None    Shift=    0.000
 RMSDP=2.23D-06 MaxDP=6.28D-05 DE= 2.58D-09 OVMax= 1.34D-04

 Cycle  10  Pass 1  IDiag  1:
 E= -326.658767999243     Delta-E=       -0.000000063745 Rises=F Damp=F
 DIIS: error= 3.84D-06 at cycle   4 NSaved=   4.
 NSaved= 4 IEnMin= 4 EnMin= -326.658767999243     IErMin= 4 ErrMin= 3.84D-06
 ErrMax= 3.84D-06  0.00D+00 EMaxC= 1.00D-01 BMatC= 4.46D-09 BMatP= 5.90D-08
 IDIUse=1 WtCom= 1.00D+00 WtEn= 0.00D+00
 Coeff-Com: -0.227D-02 0.304D+00 0.332D+00 0.366D+00
 Coeff:     -0.227D-02 0.304D+00 0.332D+00 0.366D+00
 Gap=     0.153 Goal=   None    Shift=    0.000
 RMSDP=5.69D-07 MaxDP=1.31D-05 DE=-6.37D-08 OVMax= 3.21D-05

 Cycle  11  Pass 1  IDiag  1:
 E= -326.658768004440     Delta-E=       -0.000000005197 Rises=F Damp=F
 DIIS: error= 5.45D-07 at cycle   5 NSaved=   5.
 NSaved= 5 IEnMin= 5 EnMin= -326.658768004440     IErMin= 5 ErrMin= 5.45D-07
 ErrMax= 5.45D-07  0.00D+00 EMaxC= 1.00D-01 BMatC= 1.16D-10 BMatP= 4.46D-09
 IDIUse=1 WtCom= 1.00D+00 WtEn= 0.00D+00
 Coeff-Com: -0.319D-02 0.131D+00 0.147D+00 0.199D+00 0.525D+00
 Coeff:     -0.319D-02 0.131D+00 0.147D+00 0.199D+00 0.525D+00
 Gap=     0.153 Goal=   None    Shift=    0.000
 RMSDP=1.03D-07 MaxDP=2.93D-06 DE=-5.20D-09 OVMax= 4.71D-06

 Cycle  12  Pass 1  IDiag  1:
 E= -326.658768004547     Delta-E=       -0.000000000107 Rises=F Damp=F
 DIIS: error= 1.81D-07 at cycle   6 NSaved=   6.
 NSaved= 6 IEnMin= 6 EnMin= -326.658768004547     IErMin= 6 ErrMin= 1.81D-07
 ErrMax= 1.81D-07  0.00D+00 EMaxC= 1.00D-01 BMatC= 1.22D-11 BMatP= 1.16D-10
 IDIUse=1 WtCom= 1.00D+00 WtEn= 0.00D+00
 Coeff-Com: -0.137D-02 0.489D-01 0.554D-01 0.814D-01 0.308D+00 0.507D+00
 Coeff:     -0.137D-02 0.489D-01 0.554D-01 0.814D-01 0.308D+00 0.507D+00
 Gap=     0.153 Goal=   None    Shift=    0.000
 RMSDP=3.46D-08 MaxDP=6.65D-07 DE=-1.07D-10 OVMax= 1.75D-06

 Cycle  13  Pass 1  IDiag  1:
 E= -326.658768004556     Delta-E=       -0.000000000009 Rises=F Damp=F
 DIIS: error= 1.02D-07 at cycle   7 NSaved=   7.
 NSaved= 7 IEnMin= 7 EnMin= -326.658768004556     IErMin= 7 ErrMin= 1.02D-07
 ErrMax= 1.02D-07  0.00D+00 EMaxC= 1.00D-01 BMatC= 1.17D-12 BMatP= 1.22D-11
 IDIUse=1 WtCom= 1.00D+00 WtEn= 0.00D+00
 Coeff-Com: -0.588D-03 0.191D-01 0.216D-01 0.332D-01 0.147D+00 0.299D+00
 Coeff-Com:  0.481D+00
 Coeff:     -0.588D-03 0.191D-01 0.216D-01 0.332D-01 0.147D+00 0.299D+00
 Coeff:      0.481D+00
 Gap=     0.153 Goal=   None    Shift=    0.000
 RMSDP=1.35D-08 MaxDP=2.59D-07 DE=-8.87D-12 OVMax= 7.71D-07

 Cycle  14  Pass 1  IDiag  1:
 E= -326.658768004556     Delta-E=        0.000000000001 Rises=F Damp=F
 DIIS: error= 6.46D-08 at cycle   8 NSaved=   8.
 NSaved= 8 IEnMin= 7 EnMin= -326.658768004556     IErMin= 8 ErrMin= 6.46D-08
 ErrMax= 6.46D-08  0.00D+00 EMaxC= 1.00D-01 BMatC= 3.91D-13 BMatP= 1.17D-12
 IDIUse=1 WtCom= 1.00D+00 WtEn= 0.00D+00
 Coeff-Com: -0.126D-03 0.306D-02 0.338D-02 0.609D-02 0.393D-01 0.103D+00
 Coeff-Com:  0.368D+00 0.478D+00
 Coeff:     -0.126D-03 0.306D-02 0.338D-02 0.609D-02 0.393D-01 0.103D+00
 Coeff:      0.368D+00 0.478D+00
 Gap=     0.153 Goal=   None    Shift=    0.000
 RMSDP=5.52D-09 MaxDP=1.09D-07 DE= 5.68D-13 OVMax= 3.55D-07

 SCF Done:  E(RB97D) =  -326.658768005     A.U. after   14 cycles
            NFock= 14  Conv=0.55D-08     -V/T= 2.0090
 KE= 3.237304640476D+02 PE=-1.441308658186D+03 EE= 4.490683032005D+02
 Leave Link  502 at Thu Mar 17 13:12:32 2016, MaxMem=  1048576000 cpu:        54.1
 (Enter /mnt/data/applications/G09/g09/l701.exe)
 Compute integral first derivatives.
 ... and contract with generalized density number  0.
 R6Disp: Adding Grimme-D2 dispersion energy 1st derivatives to the gradient.
 Leave Link  701 at Thu Mar 17 13:12:32 2016, MaxMem=  1048576000 cpu:         1.3
 (Enter /mnt/data/applications/G09/g09/l702.exe)
 L702 exits ... SP integral derivatives will be done elsewhere.
 Leave Link  702 at Thu Mar 17 13:12:33 2016, MaxMem=  1048576000 cpu:         0.2
 (Enter /mnt/data/applications/G09/g09/l703.exe)
 Compute integral first derivatives, UseDBF=F ICtDFT=           0.
 Integral derivatives from FoFJK, PRISM(SPDF).
 Calling FoFJK, ICntrl=      2527 FMM=F ISym2X=0 I1Cent= 0 IOpClX= 0 NMat=1 NMatS=1 NMatT=0.
 FoFJK:  IHMeth= 1 ICntrl=    2527 DoSepK=F KAlg= 0 I1Cent=   0 FoldK=F
 IRaf=         0 NMat=   1 IRICut=       1 DoRegI=T DoRafI=F ISym2E= 0.
 FoFCou: FMM=F IPFlag=           0 FMFlag=      100000 FMFlg1=         800
         NFxFlg=           0 DoJE=F BraDBF=F KetDBF=F FulRan=T
         wScrn=  0.000000 ICntrl=    2527 IOpCl=  0 I1Cent=           0 NGrid=           0
         NMat0=    1 NMatS0=      1 NMatT0=    0 NMatD0=    1 NMtDS0=    0 NMtDT0=    0
 Symmetry not used in FoFCou.
 Leave Link  703 at Thu Mar 17 13:12:35 2016, MaxMem=  1048576000 cpu:        15.0
 (Enter /mnt/data/applications/G09/g09/l716.exe)
 Dipole        =-1.91306524D-01-2.91465666D-01 2.89797069D-01
 ***** Axes restored to original set *****
 -------------------------------------------------------------------
 Center     Atomic                   Forces (Hartrees/Bohr)
 Number     Number              X              Y              Z
 -------------------------------------------------------------------
      1        6           0.002301931   -0.000093904   -0.005865160
      2        1           0.000426590   -0.000937808   -0.000269439
      3        1           0.000225111    0.001422059    0.001538818
      4        1          -0.001555116   -0.000153625    0.000032592
      5        7          -0.005208056    0.008133138    0.003257539
      6        1           0.001884072   -0.001768273    0.001950132
      7        6           0.005021408   -0.010159408    0.001004218
      8        6          -0.004236390    0.003087239    0.000183666
      9        6           0.000228960    0.003219355   -0.001243427
     10        6           0.000482042   -0.001154599    0.000107570
     11        1           0.000592616   -0.000011660   -0.000043551
     12        6           0.000153854   -0.000970566   -0.000746789
     13        1          -0.000147741   -0.000381208    0.000150317
     14        6          -0.000360895    0.000703232    0.000056470
     15        1           0.000037994   -0.000053664    0.000004840
     16        1           0.000072683   -0.000428600   -0.000089476
     17        1           0.000080939   -0.000451709   -0.000028319
 -------------------------------------------------------------------
 Cartesian Forces:  Max     0.010159408 RMS     0.002565548
 Leave Link  716 at Thu Mar 17 13:12:35 2016, MaxMem=  1048576000 cpu:         0.3
 (Enter /mnt/data/applications/G09/g09/l103.exe)

 GradGradGradGradGradGradGradGradGradGradGradGradGradGradGradGradGradGrad
 Berny optimization.
 Using GEDIIS/GDIIS optimizer.
 FormGI is forming the generalized inverse of G from B-inverse, IUseBI=4.
 Internal  Forces:  Max     0.006863457 RMS     0.001284391
 Search for a local minimum.
 Step number   2 out of a maximum of   88
 All quantities printed in internal units (Hartrees-Bohrs-Radians)
 RMS Force = .12844D-02 SwitMx=.10000D-02 MixMth= 1
 Mixed Optimization -- RFO/linear search
 Update second derivatives using D2CorX and points    1    2
 DE= -5.82D-03 DEPred=-5.53D-03 R= 1.05D+00
 TightC=F SS=  1.41D+00  RLast= 2.58D-01 DXNew= 5.0454D-01 7.7308D-01
 Trust test= 1.05D+00 RLast= 2.58D-01 DXMaxT set to 5.05D-01
 ITU=  1  0
 Use linear search instead of GDIIS.
     Eigenvalues ---    0.00719   0.00766   0.01726   0.02152   0.02152
     Eigenvalues ---    0.02154   0.02155   0.02155   0.02156   0.02156
     Eigenvalues ---    0.02159   0.03215   0.07032   0.07737   0.11698
     Eigenvalues ---    0.15925   0.15998   0.15999   0.16000   0.16000
     Eigenvalues ---    0.16000   0.16000   0.16622   0.21926   0.22026
     Eigenvalues ---    0.22396   0.23531   0.24977   0.32311   0.33711
     Eigenvalues ---    0.33719   0.33720   0.33728   0.33913   0.36010
     Eigenvalues ---    0.37223   0.37230   0.39109   0.42148   0.42479
     Eigenvalues ---    0.46034   0.46448   0.46458   0.47310   0.48186
 RFO step:  Lambda=-1.99642477D-03 EMin= 7.18634174D-03
 Quartic linear search produced a step of  0.16886.
 Iteration  1 RMS(Cart)=  0.11339602 RMS(Int)=  0.00712058
 Iteration  2 RMS(Cart)=  0.01502710 RMS(Int)=  0.00012127
 Iteration  3 RMS(Cart)=  0.00017574 RMS(Int)=  0.00007421
 Iteration  4 RMS(Cart)=  0.00000003 RMS(Int)=  0.00007421
 ITry= 1 IFail=0 DXMaxC= 4.63D-01 DCOld= 1.00D+10 DXMaxT= 5.05D-01 DXLimC= 3.00D+00 Rises=F
 Variable       Old X    -DE/DX   Delta X   Delta X   Delta X     New X
                                 (Linear)    (Quad)   (Total)
    R1        2.07797   0.00104   0.00945   0.00029   0.00974   2.08772
    R2        2.09007   0.00194   0.01149   0.00244   0.01393   2.10400
    R3        2.07339   0.00152   0.00868   0.00199   0.01067   2.08407
    R4        2.80402  -0.00392   0.00441  -0.01393  -0.00952   2.79450
    R5        1.92649   0.00220   0.00621   0.00339   0.00960   1.93610
    R6        2.72563  -0.00686  -0.00883  -0.01929  -0.02812   2.69751
    R7        2.65453   0.00323   0.00305   0.00727   0.01034   2.66487
    R8        2.66087   0.00075   0.00423   0.00072   0.00496   2.66583
    R9        2.65162  -0.00139   0.00270  -0.00420  -0.00150   2.65012
   R10        2.06345  -0.00028  -0.00246  -0.00019  -0.00265   2.06080
   R11        2.65479  -0.00097   0.00310  -0.00341  -0.00031   2.65448
   R12        2.06664   0.00002  -0.00191   0.00066  -0.00125   2.06539
   R13        2.65674  -0.00030   0.00334  -0.00194   0.00139   2.65813
   R14        2.06431  -0.00005  -0.00233   0.00056  -0.00177   2.06255
   R15        2.65256   0.00005   0.00282  -0.00096   0.00185   2.65441
   R16        2.06513  -0.00031  -0.00221  -0.00038  -0.00259   2.06254
   R17        2.06451  -0.00045  -0.00229  -0.00083  -0.00312   2.06139
    A1        1.90156   0.00063  -0.00153   0.00497   0.00334   1.90491
[...]
 ! D33   D(16,12,14,10)       -179.7363         -DE/DX =    0.0                 !
 ! D34   D(16,12,14,17)          0.0917         -DE/DX =    0.0                 !
 --------------------------------------------------------------------------------
 GradGradGradGradGradGradGradGradGradGradGradGradGradGradGradGradGradGrad

 Leave Link  103 at Thu Mar 17 13:15:02 2016, MaxMem=  1048576000 cpu:         0.1
 (Enter /mnt/data/applications/G09/g09/l9999.exe)
 1\1\GINC-KIMIK2085\Freq\RB97D\6-31G(d)\C7H9N1\IFUNES\17-Mar-2016\0\\#P
  Geom=AllCheck Guess=TCheck SCRF=Check GenChk RB97D/6-31G(d) Freq\\opt
  freq\\0,1\C,-1.5641837793,0.8174031331,-0.513322495\H,-0.9492493404,-
 0.0609298517,-0.2722134019\H,-2.3318864082,0.9500763501,0.2767661804\H
 ,-2.0865925878,0.6176612621,-1.4629725919\N,-0.6872417304,1.9709528963
 ,-0.6608611814\H,0.1217312443,1.956201934,-0.0482889977\C,-1.211213424
 4,3.2494923889,-0.8606287522\C,-2.542868071,3.4594542412,-1.2905211895
 \C,-0.3783105956,4.3803876197,-0.667329753\C,-3.0110889266,4.760345909
 4,-1.5287649494\H,-3.2097851422,2.6101149582,-1.4390592495\C,-0.859816
 4284,5.6704997064,-0.9034688077\H,0.652778042,4.2290594834,-0.33489901
 49\C,-2.1818264021,5.8749649787,-1.338738153\H,-4.0427398843,4.8973864
 063,-1.8615681894\H,-0.1970583619,6.5244005751,-0.744556241\H,-2.55547
 9904,6.8837121889,-1.522305643\\Version=EM64L-G09RevD.01\State=1-A\HF=
 -326.6649013\RMSD=7.021e-09\RMSF=5.839e-05\ZeroPoint=0.1421184\Thermal
 =0.149468\Dipole=0.1700946,-0.5946306,0.4006371\DipoleDeriv=0.3480649,
 0.3622613,-0.1395444,0.1017113,0.6553803,-0.0759131,-0.1068956,0.09470
 58,0.2874746,-0.0107973,0.1206346,-0.0291011,0.0610034,-0.1223521,0.04
 07958,-0.0129743,0.0703594,0.0668143,-0.089967,-0.1850776,0.1567066,0.
 0334688,-0.0515908,-0.0261092,0.1125549,0.0551064,-0.1087414,-0.004892
 7,-0.1222033,-0.0582935,-0.0077595,0.0321712,-0.0051903,-0.0764824,-0.
 0733846,-0.1051552,-0.440667,0.4502244,0.0850426,0.2078627,-1.3778223,
 0.1827103,0.2593312,-0.1570601,-0.2831619,0.1680001,-0.1196152,-0.0568
 149,-0.0767412,0.0738352,-0.002529,-0.1646192,0.1239201,0.1608018,0.12
 8678,-0.6376285,0.0420878,-0.3853984,1.2444693,-0.1863218,-0.0230035,-
 0.1915616,0.154107,-0.1072687,0.414458,-0.0031045,0.0203642,-0.1979007
 ,0.0169116,0.0310578,0.1474116,-0.1931883,0.1045814,-0.1379643,0.08836
 95,0.1519546,-0.4052513,0.0749713,0.0737305,-0.0264163,-0.1606463,0.16
 89711,-0.062966,0.0896412,0.0877419,0.2345274,0.0033811,0.0746856,-0.0
 360295,-0.0733048,0.0073535,-0.0899253,-0.0276479,-0.0910111,-0.064528
 ,-0.0174473,-0.0264889,-0.0187809,0.1132388,0.1802516,0.0422587,0.0873
 823,-0.0564431,0.1948966,-0.0344049,0.095572,-0.0030303,-0.0680696,-0.
 1221927,0.0329652,-0.0767963,0.0599583,0.0340707,0.0245214,-0.0833614,
 0.0148265,0.0851305,-0.217516,-0.0601508,-0.0131796,-0.0890783,-0.0900
 165,-0.0269745,-0.0089368,-0.0275399,-0.1649144,-0.1301114,0.0385335,-
 0.0796008,0.019363,0.0494328,0.0115967,-0.0756683,0.0150599,0.0819388,
 -0.0157759,-0.1105773,-0.0327202,-0.1004888,-0.081666,-0.0175986,-0.03
 55526,-0.0239206,0.0991736,0.0332882,0.0647723,-0.0324268,0.0634921,-0
 .1276559,0.0376004,-0.0329489,0.0363341,0.1085026\Polar=82.720784,-3.3
 626292,113.6772955,15.6660052,-8.6863525,40.8415196\PG=C01 [X(C7H9N1)]
 \NImag=0\\0.53401900,-0.05975622,0.51572419,0.03069433,-0.00165365,0.5
 3939854,-0.13727058,0.12293496,-0.03403062,0.14298488,0.11309104,-0.20
 497919,0.04344171,-0.12172497,0.22839804,-0.03099587,0.04495296,-0.060
 62570,0.03471626,-0.04995808,0.05832763,-0.14918413,0.02827235,0.10814
 484,-0.00981898,0.00241981,0.01266788,0.16673264,0.02761452,-0.0560640
 3,-0.02790307,0.01475958,-0.00184827,-0.01870564,-0.01956354,0.0574386
 6,0.10706289,-0.02860906,-0.16959990,-0.00676479,0.00080519,0.00665423
 ,-0.12303383,0.02738280,0.17778769,-0.09762063,-0.01603116,-0.09541627
 ,-0.00699674,-0.00365951,-0.01472148,0.01082555,0.00401842,0.01901088,
 0.11119342,-0.01389124,-0.05262456,-0.03016341,0.01063773,0.00646013,0
 .02242573,-0.00132373,0.00015423,-0.00607747,0.02627878,0.05841996,-0.
 09905463,-0.03375677,-0.24082414,-0.00058572,-0.00117147,-0.00378028,-
 0.01052087,-0.00220149,-0.01958780,0.10764644,0.03739342,0.25295378,-0
 .14779192,-0.06386772,-0.00357418,0.01191894,0.01416945,-0.00228864,-0
 .01763365,-0.02423640,0.00318419,-0.01700058,-0.02064065,0.00107788,0.
 57941012,-0.06466853,-0.15976919,0.03554596,-0.02387024,-0.02633408,0.
 00164834,-0.01287109,-0.00585153,0.00870027,-0.00857654,-0.00878447,-0
 .00246289,0.03338106,0.57664490,-0.01888280,0.00860112,-0.06502837,0.0
 0672531,0.00785094,-0.00208232,0.01218356,0.01991271,0.00475957,-0.015
 67299,-0.02080351,0.01110469,0.25973979,-0.08880781,0.25321876,-0.0129
 8160,0.00096378,-0.01115117,0.00153553,0.00045548,0.00021443,-0.000791
 66,-0.00029113,-0.00026360,-0.00007147,-0.00131702,0.00219464,-0.26719
 629,-0.00389121,-0.18709151,0.29129334,-0.02159669,-0.00003732,-0.0198
 7289,0.00015448,0.00034036,-0.00041139,-0.00014385,-0.00029558,0.00014
 628,-0.00441421,-0.00453605,0.00073578,-0.00555437,-0.05994042,0.01088
 965,-0.00139415,0.07234009,0.00976855,0.00127821,-0.00066059,0.0000688
 8,-0.00029237,0.00067503,0.00219379,0.00153146,-0.00036591,-0.00113210
 ,-0.00158604,0.00015128,-0.21987284,0.01909625,-0.15909472,0.20438487,
 -0.01375408,0.16169273,0.01478428,-0.01319864,0.00660362,-0.00282707,-
 0.00499494,0.00044338,-0.00129242,-0.00331202,0.00125190,-0.00077475,-
 0.00127863,-0.00103812,-0.13314578,0.05838551,-0.04797922,-0.01551246,
 0.03052134,0.00380796,0.61714776,0.00461348,-0.04165026,-0.00207514,-0
 .00244810,-0.00096847,-0.00041634,0.00568750,0.00707067,-0.00296608,0.
 00228852,0.00323267,0.00138349,0.05111263,-0.25681154,0.05407370,0.006
 56077,-0.00072356,-0.00764494,0.00325537,0.66101274,0.00540927,0.00837
 689,-0.00455938,-0.00015362,-0.00086548,0.00055019,-0.00196134,0.00091
 547,0.00106022,-0.00057581,-0.00166302,0.00016029,-0.03093567,0.016635
 86,-0.05608398,-0.00898093,0.02096102,-0.00435694,0.15133604,-0.038965
 25,0.20350422,-0.00006431,-0.00131064,0.00023769,-0.00094667,-0.000599
 37,-0.00027345,0.00082798,0.00103704,0.00012364,0.00016103,0.00035244,
 -0.00105593,-0.02058382,0.01798782,-0.00478510,0.00354597,-0.00048376,
 -0.00099408,-0.26861192,0.03722963,-0.06948669,0.59914042,0.00678532,0
 .00144823,0.00048424,-0.00001732,0.00017791,0.00008699,-0.00141219,0.0
 0134826,0.00016362,-0.00004551,0.00014413,-0.00059325,0.04195418,-0.00
 842019,0.01573891,0.00197941,-0.00623476,0.00085030,-0.01560657,-0.123
 29958,-0.00145619,0.03341621,0.69447134,-0.00154473,-0.00103054,-0.000
 81945,-0.00051012,-0.00024990,0.00019531,0.00037092,-0.00059510,0.0001
 6239,0.00063038,0.00007561,-0.00030674,-0.00938263,0.00633403,0.004500
 06,-0.00047272,0.00093488,0.00127289,-0.06402661,0.01666973,-0.0824077
 3,0.15082693,-0.02902017,0.15668413,-0.00231368,0.00418286,-0.00075841
 ,0.00066425,0.00105585,-0.00019168,-0.00018521,-0.00039407,0.00011513,
 -0.00016623,-0.00025955,0.00019870,0.01731193,0.00892883,-0.00017056,0
 .00179475,0.00330528,0.00089177,-0.18219709,-0.11114768,-0.03064487,-0
 .02770365,-0.01475235,-0.01004253,0.62985021,0.00417060,0.00262936,0.0
 0121423,-0.00098091,-0.00106121,0.00019874,-0.00145903,-0.00213302,0.0
 0120534,-0.00071126,-0.00138349,-0.00032934,-0.01718923,-0.05415040,-0
 .00606516,-0.00367127,-0.00073885,0.00013455,-0.05567836,-0.21267723,-
 0.00782256,-0.04307885,0.03658476,-0.01575735,-0.02543016,0.66115526,-
 0.00113849,0.00248497,0.00183635,0.00027406,0.00061312,0.00027698,-0.0
 0032055,-0.00072378,-0.00018152,0.00014723,0.00041866,-0.00016560,0.00
 374355,0.00412223,0.00693239,0.00170098,0.00074598,-0.00009193,-0.0360
 4035,-0.02487984,-0.06995474,-0.00805647,-0.00672992,0.00582040,0.1665
 2240,-0.04176078,0.16281795,-0.00013906,-0.00071569,-0.00006499,0.0004
 2662,0.00009995,0.00008598,-0.00017310,0.00010953,-0.00016528,0.000109
 94,-0.00001137,0.00051062,-0.00312691,-0.00549216,-0.00403298,-0.00128
 221,0.00158878,-0.00014320,-0.00755732,0.03452895,-0.00450994,-0.13541
 417,0.09109148,-0.03298445,-0.00385715,-0.01058556,0.00115431,0.649432
 74,-0.00152407,-0.00156854,0.00020568,-0.00010592,0.00007095,0.0000559
 0,0.00052541,-0.00116691,0.00014810,0.00015410,-0.00045746,0.00052997,
 -0.00859528,0.00090412,-0.00151330,-0.00005870,0.00078785,-0.00122006,
 0.07113438,0.01713289,0.02153944,0.03989182,-0.30046089,0.02844876,-0.
 00465627,-0.05025247,0.00193523,0.00714902,0.64453899,-0.00004168,-0.0
 0050422,0.00034809,0.00010374,0.00009032,0.00019682,0.00019680,-0.0004
 4275,-0.00005152,-0.00028325,0.00064703,-0.00021179,-0.00183957,-0.000
 62599,0.00326547,-0.00049905,-0.00009722,0.00161666,-0.00795205,0.0100
 8201,-0.00171843,-0.02942015,0.04574036,-0.06166704,0.00082858,-0.0003
 0902,-0.00536318,0.16608452,-0.03251102,0.17543781,-0.00193575,0.00038
 278,-0.00095002,0.00056574,0.00010736,0.00031044,0.00033252,-0.0000160
 7,-0.00028085,0.00006678,0.00108895,0.00056822,0.00081478,-0.00035941,
 0.00105788,0.00011778,-0.00000355,0.00013582,-0.01179093,-0.02466215,-
 0.00278725,-0.15716952,-0.12864666,-0.03156714,-0.00396529,0.00284503,
 -0.00286137,0.00940238,0.00957486,0.00214750,0.16327456,0.00233782,-0.
 00293056,0.00134140,0.00051752,0.00017512,-0.00000209,0.00011144,-0.00
 009427,-0.00043365,0.00080032,-0.00152033,0.00053435,-0.00050597,-0.00
 012525,-0.00025989,-0.00021228,0.00015168,-0.00005701,0.00390185,0.006
 06188,0.00091261,-0.12995826,-0.21799450,-0.02720393,0.00097380,0.0008
 4280,0.00056493,-0.01953532,-0.01731496,-0.00505129,0.13758135,0.23528
 937,-0.00104248,0.00063085,-0.00036499,0.00023380,-0.00009549,-0.00030
 084,-0.00009450,0.00078381,-0.00052783,0.00026180,-0.00068019,0.000482
 32,0.00102618,-0.00018485,-0.00213779,0.00002015,0.00014720,-0.0004412
 7,-0.00429167,-0.00843959,0.00214369,-0.03168978,-0.02666519,-0.035645
 92,-0.00281208,0.00116831,0.00370031,0.00430016,0.00419622,0.00141343,
 0.03505749,0.02806036,0.02968696,0.00016411,-0.00078077,0.00025468,-0.
 00040318,-0.00044062,0.00004602,0.00009486,-0.00089303,0.00027860,-0.0
 0000619,-0.00060870,0.00008796,-0.00611786,-0.00505423,-0.00325775,-0.
 00119270,-0.00013455,-0.00036350,0.05223910,0.00438590,0.01516884,-0.0
 2954869,0.02610090,-0.00996187,-0.13832035,0.04527471,-0.03079935,-0.0
 3722732,-0.05562527,-0.01008877,-0.00055602,0.00088647,-0.00032946,0.6
 1344047,0.00074767,-0.00197565,-0.00053841,0.00000830,-0.00018616,-0.0
 0000124,0.00051176,0.00110242,-0.00054593,0.00020851,0.00066579,0.0000
 6311,-0.00333532,0.00645443,0.00128622,0.00094141,-0.00032850,0.000234
 69,-0.03220544,-0.05159290,-0.00727537,0.01914038,-0.02112576,0.007434
 47,0.09658304,-0.31140110,0.04671619,-0.01463693,0.03710306,-0.0066082
 2,0.00103214,0.00001513,0.00034059,0.03512918,0.68500419,-0.00070845,-
 0.00043349,0.00194161,-0.00013494,-0.00015847,0.00000760,-0.00011727,-
 0.00073306,0.00011383,0.00017282,0.00010083,0.00001013,-0.00403781,-0.
 00176990,0.00252001,0.00088571,-0.00018599,-0.00030432,0.01843695,0.00
 544962,0.00683624,-0.00881257,0.00922485,-0.00931377,-0.03523001,0.031
 26654,-0.06113996,-0.01312082,-0.01961751,0.00388561,-0.00023434,0.000
 28319,-0.00015735,0.15584489,-0.02435137,0.17105993,0.00015958,-0.0003
 3181,0.00048842,-0.00001453,-0.00009989,0.00001211,-0.00000251,0.00001
 534,-0.00005628,0.00013953,0.00022022,0.00005521,0.00093434,0.00087322
 ,0.00057518,0.00002625,-0.00156361,0.00053258,-0.01472477,0.00735879,-
 0.00594199,0.00028800,-0.00409683,-0.00117475,-0.28651341,0.03107253,-
 0.08279524,0.00059169,-0.00051920,0.00028147,-0.00091523,0.00035851,-0
 .00038575,-0.00688717,-0.00127745,-0.00224394,0.30451615,0.00002475,0.
 00004585,0.00004131,0.00003562,0.00000350,-0.00000112,0.00011425,0.000
 06231,-0.00004978,0.00005678,0.00009050,0.00003247,-0.00138980,0.00172
 061,-0.00109403,0.00043659,-0.00031358,0.00069621,-0.02222521,0.005975
 32,-0.00719894,-0.00225763,-0.00377140,-0.00026732,0.03117578,-0.06169
 532,0.01220495,-0.00018182,-0.00136265,0.00002453,-0.00135404,0.000233
 85,-0.00044749,0.02821725,0.00114252,0.00875380,-0.03425373,0.06137967
 ,0.00041224,-0.00001285,-0.00050879,-0.00000806,-0.00003300,0.00000409
 ,0.00012252,0.00020670,-0.00001662,-0.00012641,-0.00010255,-0.00000712
 ,0.00229341,-0.00016344,-0.00177939,-0.00099644,-0.00026342,-0.0000212
 2,-0.00462902,0.00243137,0.00134244,-0.00113705,-0.00090004,0.00423593
 ,-0.08217123,0.01162486,-0.05499041,0.00027419,0.00000919,-0.00005892,
 -0.00028541,0.00007673,0.00008853,-0.00433703,-0.00039554,-0.00075716,
 0.09074902,-0.01366134,0.05022038,0.00057427,-0.00067192,-0.00059618,0
 .00010344,-0.00000703,-0.00003295,0.00018589,0.00119824,-0.00040377,0.
 00009937,0.00066047,-0.00011765,0.00196802,0.00482260,0.00177719,0.000
 70154,-0.00033758,0.00056180,-0.04754583,-0.02205394,-0.01191491,0.044
 24806,-0.03368365,0.01456114,-0.00989079,0.06709575,-0.01054130,-0.185
 03518,-0.07276236,-0.03697373,0.00078519,0.00374028,-0.00193005,-0.288
 39392,-0.00070229,-0.07502519,0.00249292,0.00032764,-0.00137480,0.5890
 5004,0.00131909,0.00166621,-0.00002593,0.00017042,-0.00001290,0.000072
 19,-0.00072725,0.00028344,0.00010644,-0.00027325,0.00014195,-0.0001655
 3,0.00462649,-0.00487327,-0.00033784,-0.00074193,0.00002001,0.00073304
 ,-0.02211759,-0.00535242,-0.00627655,0.00459634,-0.05203356,0.00625486
 ,0.02942849,0.01084251,0.00885854,-0.12661260,-0.25033935,-0.02747032,
 0.00232388,-0.00309356,0.00147233,0.05335358,-0.12142543,0.02138233,0.
 00206884,-0.00492651,0.00146502,-0.01327279,0.70062641,0.00011379,-0.0
 0020930,-0.00008085,0.00004205,0.00001555,-0.00002557,0.00012618,0.000
 35643,-0.00018684,-0.00000454,0.00017202,-0.00009877,0.00035364,0.0018
 9408,-0.00028908,0.00033088,0.00007185,0.00013708,-0.01180669,-0.00726
 002,-0.00900397,0.01115955,-0.00663037,0.01172830,-0.00724622,0.021066
 36,0.00333969,-0.03326005,-0.01053197,-0.06343112,-0.00187544,0.001837
 08,0.00556007,-0.07855485,0.00409572,-0.07872159,-0.00137891,0.0008739
 1,0.00614201,0.15376708,-0.04276709,0.16016291,-0.00024791,-0.00028208
 ,-0.00002103,-0.00000076,0.00004950,-0.00002416,0.00009933,0.00000996,
 -0.00002796,0.00005085,-0.00000021,0.00001954,-0.00065873,0.00020121,-
 0.00029180,-0.00004658,0.00019347,0.00004903,0.00246459,0.00138183,-0.
 00155250,-0.00643775,-0.00138983,-0.00247003,0.00074790,-0.00019741,0.
 00034863,-0.29171611,0.03085758,-0.08333228,0.00055415,0.00019000,0.00
 139237,0.00033154,-0.00408335,-0.00160343,-0.00019950,0.00010159,0.000
 25660,-0.01268097,0.00597547,-0.00506261,0.30800811,0.00015307,0.00023
 417,0.00000295,-0.00002753,-0.00003990,0.00000891,-0.00004269,-0.00002
 185,0.00002691,-0.00002386,-0.00001479,-0.00002995,0.00138122,0.000484
 07,0.00074691,0.00030910,-0.00050856,-0.00001485,0.00045029,-0.0052002
 6,0.00081621,0.02743107,0.00049740,0.00858077,-0.00011500,-0.00110715,
 0.00004938,0.03052934,-0.06169312,0.01162411,-0.00031868,0.00139562,-0
 .00049796,-0.00251429,-0.00396226,-0.00010953,0.00006375,0.00020127,-0
 .00006341,-0.02330225,0.00812505,-0.00776379,-0.03330462,0.06021617,-0
 .00010135,-0.00006037,0.00002585,0.00000060,0.00001649,0.00000202,0.00
 003103,0.00003152,-0.00002697,0.00002373,-0.00000318,0.00000849,-0.000
 24480,-0.00005303,0.00018408,0.00001281,0.00000743,-0.00014389,-0.0014
 8549,0.00139557,0.00636712,-0.00446138,-0.00041482,0.00048464,0.000291
 65,-0.00000934,-0.00020870,-0.08314281,0.01185040,-0.05966242,0.001388
 22,-0.00031801,-0.00339225,-0.00167680,-0.00065049,0.00588284,0.000274
 55,-0.00003946,-0.00097589,-0.00332950,0.00131801,0.00105964,0.0914191
 3,-0.01285866,0.05335106,-0.00004528,0.00027895,0.00005316,0.00004449,
 0.00004677,0.00001755,-0.00005423,-0.00004219,0.00001124,-0.00001506,0
 .00001081,0.00000435,0.00068924,-0.00003587,-0.00010631,-0.00000830,-0
 .00000651,0.00003304,0.00040118,0.00263403,-0.00227390,-0.00017524,0.0
 0093592,-0.00002968,0.00897329,0.00975618,0.00176770,-0.00419094,0.002
 67145,-0.00346110,-0.00001080,-0.00013569,0.00035017,-0.15272498,-0.12
 623722,-0.03070416,0.00054866,-0.00039554,0.00147171,-0.01118885,-0.02
 471715,-0.00267250,-0.00088938,-0.00142279,-0.00029437,0.15768476,0.00
 052288,-0.00014719,0.00001245,-0.00009182,-0.00017276,0.00002126,-0.00
 007281,0.00000208,0.00002623,-0.00005374,-0.00001373,-0.00002194,-0.00
 143948,-0.00106932,-0.00023760,-0.00007820,0.00002768,0.00000371,0.003
 72451,-0.00272456,0.00170513,0.00082796,-0.00007621,0.00024849,-0.0192
 5920,-0.01716509,-0.00502630,0.00109406,0.00117415,0.00065182,-0.00011
 752,-0.00000378,-0.00009887,-0.12581029,-0.21918831,-0.02861275,0.0001
 9460,0.00135209,-0.00025303,0.00438081,0.00672389,0.00111041,0.0002715
 5,0.00025786,0.00008540,0.13627797,0.23027797,-0.00003017,-0.00000756,
 -0.00016063,0.00001694,-0.00000470,-0.00004862,0.00002678,0.00003619,0
 .00000219,-0.00001635,-0.00003807,0.00001353,0.00027902,0.00011090,0.0
 0041391,-0.00006337,-0.00001017,0.00001377,-0.00244369,0.00145599,0.00
 647611,-0.00001510,0.00034548,-0.00032334,0.00365983,0.00431705,0.0025
 6714,-0.00334461,0.00117352,0.00496544,0.00033934,-0.00011873,-0.00096
 621,-0.03082296,-0.02879810,-0.04074288,0.00139416,-0.00042389,-0.0035
 2127,-0.00444483,-0.00819851,0.00111052,-0.00041706,-0.00046316,0.0002
 5524,0.03445119,0.03076215,0.03290142,-0.00010638,-0.00006902,0.000086
 12,0.00003462,0.00003111,0.00001419,0.00003714,-0.00001418,-0.00004211
 ,0.00000518,0.00008168,0.00000934,0.00020818,0.00023905,0.00021212,0.0
 0006811,-0.00013053,0.00007765,-0.00105656,-0.00072554,-0.00019473,-0.
 00155572,-0.00261252,-0.00222210,-0.00422948,-0.00123280,-0.00310574,0
 .00975609,-0.01811157,0.00424901,0.00042967,-0.00105182,-0.00006634,-0
 .00489168,0.02817560,-0.00336745,-0.00043998,0.00156753,-0.00051422,-0
 .08547321,0.08459995,-0.02403136,0.00062123,0.00075389,0.00129477,0.00
 096144,-0.00037129,0.00143090,0.08563134,0.00005650,-0.00000151,-0.000
 05744,0.00004818,-0.00002306,0.00002488,-0.00002636,0.00001340,-0.0000
 2919,-0.00001639,0.00002551,0.00006005,0.00012918,-0.00007848,0.000018
 98,0.00000933,-0.00001047,0.00001093,-0.00075586,0.00051460,-0.0003392
 7,-0.00422219,-0.00125518,-0.00085730,0.00038034,0.00171064,0.00040644
 ,0.01158034,-0.01709567,0.00475987,0.00054172,-0.00108824,0.00030996,-
 0.00148626,-0.00030148,-0.00048906,-0.00008328,-0.00013801,0.00003475,
 0.08456803,-0.28637247,0.04366914,0.00002536,0.00113628,-0.00029746,0.
 00038087,0.00074524,-0.00013841,-0.09112953,0.30221891,0.00007958,-0.0
 0004718,-0.00031765,0.00000623,-0.00000435,-0.00002656,-0.00001594,0.0
 0014781,0.00000479,0.00005593,-0.00011584,0.00009775,0.00047848,-0.000
 02002,-0.00040329,-0.00022567,-0.00004490,-0.00007864,-0.00018692,-0.0
 0029428,-0.00035535,-0.00216004,-0.00022480,0.00539996,-0.00324047,-0.
 00014244,0.00480484,0.00235936,-0.00469855,0.00103509,-0.00016311,-0.0
 0016606,0.00085914,-0.00148864,0.00899367,-0.00112077,-0.00038585,0.00
 055620,0.00060341,-0.02398236,0.04357901,-0.03740240,0.00131756,-0.000
 05483,-0.00321085,0.00138190,-0.00037658,-0.00295632,0.02616995,-0.047
 08686,0.03306685\\0.00010202,0.00004408,-0.00003060,0.00000311,-0.0000
 2859,0.00000402,-0.00004943,-0.00000365,0.00003673,-0.00001870,-0.0000
 0575,-0.00001024,-0.00003755,-0.00001021,-0.00003752,0.00001135,0.0000
 0005,0.00002126,-0.00013343,-0.00008252,-0.00002657,0.00010934,-0.0001
 0878,0.00002048,0.00001569,0.00016325,0.00001137,0.00001760,0.00015537
 ,0.00001736,-0.00001769,0.00002640,0.00000385,0.00013735,-0.00007270,0
 .00002400,0.00000251,-0.00002758,-0.00000306,-0.00013765,-0.00005166,-
 0.00003725,0.00000441,-0.00001316,-0.00000504,-0.00002299,0.00000822,0
 .00000597,0.00001406,0.00000723,0.00000523\\\@


 A great many people think they are thinking when they
 are merely rearranging their prejudices.
                               -- William James
 Job cpu time:       0 days  0 hours  7 minutes  8.5 seconds.
 File lengths (MBytes):  RWF=     42 Int=      0 D2E=      0 Chk=      3 Scr=      1
 Normal termination of Gaussian 09 at Thu Mar 17 13:15:02 2016.
