Job Start Time: Tue Feb  4 11:39:40 MST 2020
SLURM Job ID: 4135247
SLURM Job Name: ethanol
 Entering Gaussian System, Link 0=/projects/user/g16/g16
 Initial command:
 /projects/user/g16_a_03/l1.exe "/gpfs/summit/scratch/user/4135247/Gau-108107.inp" -scrdir="/gpfs/summit/scratch/user/4135247/"
 Entering Link 1 = /projects/user/g16_a_03/l1.exe PID=    108108.
  
 Copyright (c) 1988,1990,1992,1993,1995,1998,2003,2009,2016,
            Gaussian, Inc.  All Rights Reserved.
  
 This is part of the Gaussian(R) 16 program.  It is based on
 the Gaussian(R) 09 system (copyright 2009, Gaussian, Inc.),
 the Gaussian(R) 03 system (copyright 2003, Gaussian, Inc.),
 the Gaussian(R) 98 system (copyright 1998, Gaussian, Inc.),
 the Gaussian(R) 94 system (copyright 1995, Gaussian, Inc.),
 the Gaussian 92(TM) system (copyright 1992, Gaussian, Inc.),
 the Gaussian 90(TM) system (copyright 1990, Gaussian, Inc.),
 the Gaussian 88(TM) system (copyright 1988, Gaussian, Inc.),
 the Gaussian 86(TM) system (copyright 1986, Carnegie Mellon
 University), and the Gaussian 82(TM) system (copyright 1983,
 Carnegie Mellon University). Gaussian is a federally registered
 trademark of Gaussian, Inc.
  
 This software contains proprietary and confidential information,
 including trade secrets, belonging to Gaussian, Inc.
  
 This software is provided under written license and may be
 used, copied, transmitted, or stored only in accord with that
 written license.
  
 The following legend is applicable only to US Government
 contracts under FAR:
  
                    RESTRICTED RIGHTS LEGEND
  
 Use, reproduction and disclosure by the US Government is
 subject to restrictions as set forth in subparagraphs (a)
 and (c) of the Commercial Computer Software - Restricted
 Rights clause in FAR 52.227-19.
  
 Gaussian, Inc.
 340 Quinnipiac St., Bldg. 40, Wallingford CT 06492
  
  
 ---------------------------------------------------------------
 Warning -- This program may not be used in any manner that
 competes with the business of Gaussian, Inc. or will provide
 assistance to any competitor of Gaussian, Inc.  The licensee
 of this program is prohibited from giving any competitor of
 Gaussian, Inc. access to this program.  By using this program,
 the user acknowledges that Gaussian, Inc. is engaged in the
 business of creating and licensing software in the field of
 computational chemistry and represents and warrants to the
 licensee that it is not a competitor of Gaussian, Inc. and that
 it will not use this program in any manner prohibited above.
 ---------------------------------------------------------------
  

 Cite this work as:
 Gaussian 16, Revision A.03,
 M. J. Frisch, G. W. Trucks, H. B. Schlegel, G. E. Scuseria, 
 M. A. Robb, J. R. Cheeseman, G. Scalmani, V. Barone, 
 G. A. Petersson, H. Nakatsuji, X. Li, M. Caricato, A. V. Marenich, 
 J. Bloino, B. G. Janesko, R. Gomperts, B. Mennucci, H. P. Hratchian, 
 J. V. Ortiz, A. F. Izmaylov, J. L. Sonnenberg, D. Williams-Young, 
 F. Ding, F. Lipparini, F. Egidi, J. Goings, B. Peng, A. Petrone, 
 T. Henderson, D. Ranasinghe, V. G. Zakrzewski, J. Gao, N. Rega, 
 G. Zheng, W. Liang, M. Hada, M. Ehara, K. Toyota, R. Fukuda, 
 J. Hasegawa, M. Ishida, T. Nakajima, Y. Honda, O. Kitao, H. Nakai, 
 T. Vreven, K. Throssell, J. A. Montgomery, Jr., J. E. Peralta, 
 F. Ogliaro, M. J. Bearpark, J. J. Heyd, E. N. Brothers, K. N. Kudin, 
 V. N. Staroverov, T. A. Keith, R. Kobayashi, J. Normand, 
 K. Raghavachari, A. P. Rendell, J. C. Burant, S. S. Iyengar, 
 J. Tomasi, M. Cossi, J. M. Millam, M. Klene, C. Adamo, R. Cammi, 
 J. W. Ochterski, R. L. Martin, K. Morokuma, O. Farkas, 
 J. B. Foresman, and D. J. Fox, Gaussian, Inc., Wallingford CT, 2016.
 
 ******************************************
 Gaussian 16:  ES64L-G16RevA.03 25-Dec-2016
                 4-Feb-2020 
 ******************************************
 %chk=ethanol.chk
 %mem=98GB
 %nprocshared=24
 Will use up to   24 processors via shared memory.
 ----------------------------------------------------------------------
 # opt=(calcfc,maxcycles=200,maxstep=10) freq=noraman wb97xd/6-31+g(d) 
 scrf=(solvent=ethanol,smd)
 ----------------------------------------------------------------------
 1/6=200,8=10,10=4,18=20,19=15,26=3,38=1/1,3;
 2/9=110,12=2,17=6,18=5,40=1/2;
 3/5=1,6=6,7=11,11=2,25=1,30=1,70=32201,71=2,72=4,74=-58,140=1/1,2,3;
 4//1;
 5/5=2,38=5,53=4/2;
 8/6=4,10=90,11=11/1;
 11/6=1,8=1,9=11,15=111,16=1/1,2,10;
 10/6=1,13=1/2;
 6/7=2,8=2,9=2,10=2,28=1/1;
 7/10=1,18=20,25=1/1,2,3,16;
 1/6=200,8=10,10=4,18=20,19=15,26=3/3(2);
 2/9=110/2;
 99//99;
 2/9=110/2;
 3/5=1,6=6,7=11,11=2,25=1,30=1,70=32205,71=1,72=4,74=-58/1,2,3;
 4/5=5,16=3,69=1/1;
 5/5=2,38=5,53=4/2;
 7//1,2,3,16;
 1/6=200,8=10,18=20,19=15,26=3/3(-5);
 2/9=110/2;
 6/7=2,8=2,9=2,10=2,19=2,28=1/1;
 99/9=1/99;
 -------
 ethanol
 -------
 Symbolic Z-matrix:
 Charge =  0 Multiplicity = 1
 O                    -1.1712    0.2997    0. 
 C                    -0.0463   -0.5665    0. 
 C                     1.2175    0.2668    0. 
 H                    -0.0958   -1.212     0.8819 
 H                    -0.0952   -1.1938   -0.8946 
 H                     2.105    -0.372    -0.0177 
 H                     1.2426    0.9307   -0.8704 
 H                     1.2616    0.9052    0.8886 
 H                    -1.1291    0.8364    0.8099 
 

 GradGradGradGradGradGradGradGradGradGradGradGradGradGradGradGradGradGrad
 Berny optimization.
 Initialization pass.
                           ----------------------------
                           !    Initial Parameters    !
                           ! (Angstroms and Degrees)  !
 --------------------------                            --------------------------
 ! Name  Definition              Value          Derivative Info.                !
 --------------------------------------------------------------------------------
 ! R1    R(1,2)                  1.4198         calculate D2E/DX2 analytically  !
 ! R2    R(1,9)                  0.9725         calculate D2E/DX2 analytically  !
 ! R3    R(2,3)                  1.5138         calculate D2E/DX2 analytically  !
 ! R4    R(2,4)                  1.094          calculate D2E/DX2 analytically  !
 ! R5    R(2,5)                  1.0937         calculate D2E/DX2 analytically  !
 ! R6    R(3,6)                  1.0936         calculate D2E/DX2 analytically  !
 ! R7    R(3,7)                  1.095          calculate D2E/DX2 analytically  !
 ! R8    R(3,8)                  1.095          calculate D2E/DX2 analytically  !
 ! A1    A(2,1,9)              107.602          calculate D2E/DX2 analytically  !
 ! A2    A(1,2,3)              109.0036         calculate D2E/DX2 analytically  !
 ! A3    A(1,2,4)              108.9129         calculate D2E/DX2 analytically  !
 ! A4    A(1,2,5)              108.3308         calculate D2E/DX2 analytically  !
 ! A5    A(3,2,4)              111.2579         calculate D2E/DX2 analytically  !
 ! A6    A(3,2,5)              110.674          calculate D2E/DX2 analytically  !
 ! A7    A(4,2,5)              108.5979         calculate D2E/DX2 analytically  !
 ! A8    A(2,3,6)              110.8525         calculate D2E/DX2 analytically  !
 ! A9    A(2,3,7)              110.6644         calculate D2E/DX2 analytically  !
 ! A10   A(2,3,8)              110.7654         calculate D2E/DX2 analytically  !
 ! A11   A(6,3,7)              108.8253         calculate D2E/DX2 analytically  !
 ! A12   A(6,3,8)              108.7224         calculate D2E/DX2 analytically  !
 ! A13   A(7,3,8)              106.8965         calculate D2E/DX2 analytically  !
 ! D1    D(9,1,2,3)            -60.8925         calculate D2E/DX2 analytically  !
 ! D2    D(9,1,2,4)             60.6648         calculate D2E/DX2 analytically  !
 ! D3    D(9,1,2,5)            178.6124         calculate D2E/DX2 analytically  !
 ! D4    D(1,2,3,6)           -179.0076         calculate D2E/DX2 analytically  !
 ! D5    D(1,2,3,7)            -58.1633         calculate D2E/DX2 analytically  !
 ! D6    D(1,2,3,8)             60.2102         calculate D2E/DX2 analytically  !
 ! D7    D(4,2,3,6)             60.8714         calculate D2E/DX2 analytically  !
 ! D8    D(4,2,3,7)           -178.2842         calculate D2E/DX2 analytically  !
 ! D9    D(4,2,3,8)            -59.9107         calculate D2E/DX2 analytically  !
 ! D10   D(5,2,3,6)            -59.9635         calculate D2E/DX2 analytically  !
 ! D11   D(5,2,3,7)             60.8809         calculate D2E/DX2 analytically  !
 ! D12   D(5,2,3,8)            179.2544         calculate D2E/DX2 analytically  !
 --------------------------------------------------------------------------------
 Trust Radius=1.00D-01 FncErr=1.00D-07 GrdErr=1.00D-06 EigMax=2.50D+02 EigMin=1.00D-04
 Number of steps in this run=    100 maximum allowed number of steps=    100.
 GradGradGradGradGradGradGradGradGradGradGradGradGradGradGradGradGradGrad

                          Input orientation:                          
 ---------------------------------------------------------------------
 Center     Atomic      Atomic             Coordinates (Angstroms)
 Number     Number       Type             X           Y           Z
 ---------------------------------------------------------------------
      1          8           0       -1.171200    0.299700    0.000000
      2          6           0       -0.046300   -0.566500    0.000000
      3          6           0        1.217500    0.266800    0.000000
      4          1           0       -0.095800   -1.212000    0.881900
      5          1           0       -0.095200   -1.193800   -0.894600
      6          1           0        2.105000   -0.372000   -0.017700
      7          1           0        1.242600    0.930700   -0.870400
      8          1           0        1.261600    0.905200    0.888600
      9          1           0       -1.129100    0.836400    0.809900
 ---------------------------------------------------------------------
                    Distance matrix (angstroms):
                    1          2          3          4          5
     1  O    0.000000
     2  C    1.419754   0.000000
     3  C    2.388927   1.513796   0.000000
     4  H    2.054135   1.094015   2.165492   0.000000
     5  H    2.046614   1.093712   2.157972   1.776593   0.000000
     6  H    3.344395   2.160147   1.093634   2.521587   2.507028
     7  H    2.642383   2.158812   1.094984   3.074579   2.510736
     8  H    2.659841   2.160119   1.095039   2.514978   3.070262
     9  H    0.972501   1.948467   2.546942   2.295394   2.845344
                    6          7          8          9
     6  H    0.000000
     7  H    1.779848   0.000000
     8  H    1.778748   1.759287   0.000000
     9  H    3.550289   2.908137   2.392984   0.000000
 Stoichiometry    C2H6O
 Framework group  C1[X(C2H6O)]
 Deg. of freedom    21
 Full point group                 C1      NOp   1
 Largest Abelian subgroup         C1      NOp   1
 Largest concise Abelian subgroup C1      NOp   1
                         Standard orientation:                         
 ---------------------------------------------------------------------
 Center     Atomic      Atomic             Coordinates (Angstroms)
 Number     Number       Type             X           Y           Z
 ---------------------------------------------------------------------
      1          8           0        1.204825   -0.271089   -0.113880
      2          6           0        0.083124    0.584430    0.046048
      3          6           0       -1.182090   -0.244120   -0.019655
      4          1           0        0.167492    1.104261    1.004967
      5          1           0        0.100140    1.327553   -0.756250
      6          1           0       -2.067854    0.389071    0.082941
      7          1           0       -1.241694   -0.783685   -0.970605
      8          1           0       -1.194565   -0.997414    0.775015
      9          1           0        1.191676   -0.912931    0.616615
 ---------------------------------------------------------------------
 Rotational constants (GHZ):          32.9314516           9.6456929           8.3823694
 Standard basis: 6-31+G(d) (6D, 7F)
 There are    69 symmetry adapted cartesian basis functions of A   symmetry.
 There are    69 symmetry adapted basis functions of A   symmetry.
    69 basis functions,   120 primitive gaussians,    69 cartesian basis functions
    13 alpha electrons       13 beta electrons
       nuclear repulsion energy        82.1304036331 Hartrees.
 NAtoms=    9 NActive=    9 NUniq=    9 SFac= 1.00D+00 NAtFMM=   60 NAOKFM=F Big=F
 Integral buffers will be    131072 words long.
 Raffenetti 2 integral format.
 Two-electron integral symmetry is turned on.
 Nuclear repulsion after empirical dispersion term =       82.1278333491 Hartrees.
 Force inversion solution in PCM.
 ------------------------------------------------------------------------------
 Polarizable Continuum Model (PCM)
 =================================
 Model                : PCM.
 Atomic radii         : SMD-Coulomb.
 Polarization charges : Total charges.
 Charge compensation  : None.
 Solution method      : Matrix inversion.
 Cavity type          : VdW (van der Waals Surface) (Alpha=1.000).
 Cavity algorithm     : GePol (No added spheres)
                        Default sphere list used, NSphG=    9.
                        Lebedev-Laikov grids with approx.  5.0 points / Ang**2.
                        Smoothing algorithm: York/Karplus (Gamma=1.0000).
                        Polarization charges: spherical gaussians, with
                                              point-specific exponents (IZeta= 3).
                        Self-potential: point-specific (ISelfS= 7).
                        Self-field    : sphere-specific E.n sum rule (ISelfD= 2).
 1st derivatives      : Analytical E(r).r(x)/FMM algorithm (CHGder, D1EAlg=3).
                        Cavity 1st derivative terms included.
 2nd derivatives      : Analytical E(r).r(xy)/FMM algorithm (CHGder, D2EAlg=3).
                        Cavity 2nd derivative terms included.
 Solvent              : Ethanol, Eps=  24.852000 Eps(inf)=   1.852593
 ------------------------------------------------------------------------------
 Spheres list:
 ISph  on   Nord     Re0    Alpha      Xe            Ye            Ze
    1   O      1    1.6280  1.000      1.204825     -0.271089     -0.113880
    2   C      2    1.8500  1.000      0.083124      0.584430      0.046048
    3   C      3    1.8500  1.000     -1.182090     -0.244120     -0.019655
    4   H      4    1.2000  1.000      0.167492      1.104261      1.004967
    5   H      5    1.2000  1.000      0.100140      1.327553     -0.756250
    6   H      6    1.2000  1.000     -2.067854      0.389071      0.082941
    7   H      7    1.2000  1.000     -1.241694     -0.783685     -0.970605
    8   H      8    1.2000  1.000     -1.194565     -0.997414      0.775015
    9   H      9    1.2000  1.000      1.191676     -0.912931      0.616615
 ------------------------------------------------------------------------------
 ------------------------------------------------------------------------------
 Atomic radii for non-electrostatic terms: SMD-CDS.
 ------------------------------------------------------------------------------
 Nuclear repulsion after PCM non-electrostatic terms =       82.1284929968 Hartrees.
 One-electron integrals computed using PRISM.
 NBasis=    69 RedAO= T EigKep=  2.86D-04  NBF=    69
 NBsUse=    69 1.00D-06 EigRej= -1.00D+00 NBFU=    69
 ExpMin= 4.38D-02 ExpMax= 5.48D+03 ExpMxC= 8.25D+02 IAcc=3 IRadAn=         5 AccDes= 0.00D+00
 Harris functional with IExCor= 4639 and IRadAn=       5 diagonalized for initial guess.
 HarFok:  IExCor= 4639 AccDes= 0.00D+00 IRadAn=         5 IDoV= 1 UseB2=F ITyADJ=14
 ICtDFT=  3500011 ScaDFX=  1.000000  1.000000  1.000000  1.000000
 FoFCou: FMM=F IPFlag=           0 FMFlag=      100000 FMFlg1=           0
         NFxFlg=           0 DoJE=T BraDBF=F KetDBF=T FulRan=T
         wScrn=  0.000000 ICntrl=       500 IOpCl=  0 I1Cent=   200000004 NGrid=           0
         NMat0=    1 NMatS0=      1 NMatT0=    0 NMatD0=    1 NMtDS0=    0 NMtDT0=    0
 Petite list used in FoFCou.
 Keep R1 ints in memory in canonical form, NReq=27246181.
 Requested convergence on RMS density matrix=1.00D-08 within 128 cycles.
 Requested convergence on MAX density matrix=1.00D-06.
 Requested convergence on             energy=1.00D-06.
 No special actions if energy rises.
 Inv3:  Mode=1 IEnd=     1383123.
 Iteration    1 A*A^-1 deviation from unit magnitude is 3.89D-15 for    324.
 Iteration    1 A*A^-1 deviation from orthogonality  is 3.37D-15 for    659    152.
 Iteration    1 A^-1*A deviation from unit magnitude is 2.89D-15 for    168.
 Iteration    1 A^-1*A deviation from orthogonality  is 1.22D-15 for    341     49.
 Error on total polarization charges =  0.03415
 SCF Done:  E(RwB97XD) =  -155.004289648     A.U. after   11 cycles
            NFock= 11  Conv=0.95D-08     -V/T= 2.0094
 SMD-CDS (non-electrostatic) energy       (kcal/mol) =       0.41
 (included in total energy above)
 DoSCS=F DFT=T ScalE2(SS,OS)=  1.000000  1.000000
 Range of M.O.s used for correlation:     1    69
 NBasis=    69 NAE=    13 NBE=    13 NFC=     0 NFV=     0
 NROrb=     69 NOA=    13 NOB=    13 NVA=    56 NVB=    56

 **** Warning!!: The largest alpha MO coefficient is  0.29493543D+02

 Symmetrizing basis deriv contribution to polar:
 IMax=3 JMax=2 DiffMx= 0.00D+00
 G2DrvN: will do    10 centers at a time, making    1 passes.
 Calling FoFCou, ICntrl=  3107 FMM=F I1Cent=   0 AccDes= 0.00D+00.
 NEqPCM:  Using equilibrium solvation (IEInf=0, Eps=  24.8520, EpsInf=   1.8526)
 G2PCM: DoFxE=T DoFxN=T DoGrad=T DoDP/DQ/DG/TGxP=FFFF NFrqRd=   0 IEInf=0 SqF1=F DoCFld=F IF1Alg=4.
 End of G2Drv F.D. properties file   721 does not exist.
 End of G2Drv F.D. properties file   722 does not exist.
 End of G2Drv F.D. properties file   788 does not exist.
          IDoAtm=111111111
 NEqPCM:  Using equilibrium solvation (IEInf=0, Eps=  24.8520, EpsInf=   1.8526)
          Differentiating once with respect to nuclear coordinates.
 Keep R1 ints in memory in canonical form, NReq=27170520.
          There are    30 degrees of freedom in the 1st order CPHF.  IDoFFX=6 NUNeed=     0.
     24 vectors produced by pass  0 Test12= 2.43D-15 3.33D-09 XBig12= 4.51D-02 5.06D-02.
 AX will form    24 AO Fock derivatives at one time.
     24 vectors produced by pass  1 Test12= 2.43D-15 3.33D-09 XBig12= 3.47D-03 9.32D-03.
     24 vectors produced by pass  2 Test12= 2.43D-15 3.33D-09 XBig12= 8.75D-05 1.52D-03.
     24 vectors produced by pass  3 Test12= 2.43D-15 3.33D-09 XBig12= 6.03D-07 1.38D-04.
     24 vectors produced by pass  4 Test12= 2.43D-15 3.33D-09 XBig12= 3.11D-09 1.06D-05.
     24 vectors produced by pass  5 Test12= 2.43D-15 3.33D-09 XBig12= 1.60D-11 6.20D-07.
     12 vectors produced by pass  6 Test12= 2.43D-15 3.33D-09 XBig12= 7.46D-14 4.53D-08.
      1 vectors produced by pass  7 Test12= 2.43D-15 3.33D-09 XBig12= 4.74D-16 3.97D-09.
 InvSVY:  IOpt=1 It=  1 EMax= 1.33D-15
 Solved reduced A of dimension   157 with    24 vectors.
 End of Minotr F.D. properties file   721 does not exist.
 End of Minotr F.D. properties file   722 does not exist.
 End of Minotr F.D. properties file   788 does not exist.

 **********************************************************************

            Population analysis using the SCF density.

 **********************************************************************

 Orbital symmetries:
       Occupied  (A) (A) (A) (A) (A) (A) (A) (A) (A) (A) (A) (A)
                 (A)
       Virtual   (A) (A) (A) (A) (A) (A) (A) (A) (A) (A) (A) (A)
                 (A) (A) (A) (A) (A) (A) (A) (A) (A) (A) (A) (A)
                 (A) (A) (A) (A) (A) (A) (A) (A) (A) (A) (A) (A)
                 (A) (A) (A) (A) (A) (A) (A) (A) (A) (A) (A) (A)
                 (A) (A) (A) (A) (A) (A) (A) (A)
 The electronic state is 1-A.
 Alpha  occ. eigenvalues --  -19.27904 -10.33577 -10.27850  -1.12533  -0.83936
 Alpha  occ. eigenvalues --   -0.71420  -0.59064  -0.54014  -0.51611  -0.46131
 Alpha  occ. eigenvalues --   -0.45009  -0.40777  -0.36039
 Alpha virt. eigenvalues --    0.08619   0.09859   0.10688   0.11834   0.14324
 Alpha virt. eigenvalues --    0.14762   0.15198   0.20452   0.22488   0.24946
 Alpha virt. eigenvalues --    0.26460   0.29119   0.30730   0.32198   0.33863
 Alpha virt. eigenvalues --    0.34463   0.35768   0.37275   0.40584   0.43318
 Alpha virt. eigenvalues --    0.71853   0.73114   0.74055   0.81139   0.81659
 Alpha virt. eigenvalues --    0.83931   1.01916   1.05667   1.07046   1.12597
 Alpha virt. eigenvalues --    1.15389   1.19213   1.22251   1.27236   1.31049
 Alpha virt. eigenvalues --    1.37547   1.52981   1.55676   1.61106   1.71498
 Alpha virt. eigenvalues --    1.84523   1.93371   2.01382   2.07271   2.20097
 Alpha virt. eigenvalues --    2.24987   2.34388   2.40058   2.48319   2.52880
 Alpha virt. eigenvalues --    2.62489   2.75782   2.97110   4.14127   4.32809
 Alpha virt. eigenvalues --    4.53646
          Condensed to atoms (all electrons):
               1          2          3          4          5          6
     1  O    8.578650   0.141469  -0.083171  -0.052742  -0.054319   0.009393
     2  C    0.141469   5.173675   0.154610   0.399284   0.427950  -0.045809
     3  C   -0.083171   0.154610   5.570880  -0.041882  -0.054928   0.382988
     4  H   -0.052742   0.399284  -0.041882   0.533171  -0.036222  -0.000177
     5  H   -0.054319   0.427950  -0.054928  -0.036222   0.496434  -0.001008
     6  H    0.009393  -0.045809   0.382988  -0.000177  -0.001008   0.477091
     7  H   -0.000827  -0.044824   0.396297   0.003777  -0.005204  -0.023594
     8  H   -0.010148  -0.042380   0.398223  -0.005682   0.003798  -0.023491
     9  H    0.211025  -0.000191  -0.014627  -0.006006   0.005091  -0.000043
               7          8          9
     1  O   -0.000827  -0.010148   0.211025
     2  C   -0.044824  -0.042380  -0.000191
     3  C    0.396297   0.398223  -0.014627
     4  H    0.003777  -0.005682  -0.006006
     5  H   -0.005204   0.003798   0.005091
     6  H   -0.023594  -0.023491  -0.000043
     7  H    0.479417  -0.031209  -0.000888
     8  H   -0.031209   0.485377   0.004309
     9  H   -0.000888   0.004309   0.287618
 Mulliken charges:
               1
     1  O   -0.739332
     2  C   -0.163783
     3  C   -0.708390
     4  H    0.206478
     5  H    0.218407
     6  H    0.224651
     7  H    0.227055
     8  H    0.221204
     9  H    0.513711
 Sum of Mulliken charges =  -0.00000
 Mulliken charges with hydrogens summed into heavy atoms:
               1
     1  O   -0.225621
     2  C    0.261102
     3  C   -0.035481
 APT charges:
               1
     1  O   -0.859662
     2  C   -0.641186
     3  C   -1.325356
     4  H    0.420395
     5  H    0.451647
     6  H    0.483445
     7  H    0.412552
     8  H    0.405819
     9  H    0.652345
 Sum of APT charges =  -0.00000
 APT charges with hydrogens summed into heavy atoms:
               1
     1  O   -0.207317
     2  C    0.230856
     3  C   -0.023539
 Electronic spatial extent (au):  <R**2>=            191.3571
 Charge=             -0.0000 electrons
 Dipole moment (field-independent basis, Debye):
    X=             -1.7982    Y=             -0.1063    Z=              1.7803  Tot=              2.5326
 Quadrupole moment (field-independent basis, Debye-Ang):
   XX=            -23.3775   YY=            -18.2289   ZZ=            -19.1216
   XY=             -1.0574   XZ=              2.2955   YZ=             -1.8589
 Traceless Quadrupole moment (field-independent basis, Debye-Ang):
   XX=             -3.1348   YY=              2.0138   ZZ=              1.1211
   XY=             -1.0574   XZ=              2.2955   YZ=             -1.8589
 Octapole moment (field-independent basis, Debye-Ang**2):
  XXX=             -2.0188  YYY=             -1.8094  ZZZ=              1.4359  XYY=              2.7912
  XXY=             -1.0744  XXZ=              3.0806  XZZ=              1.8991  YZZ=             -0.7535
  YYZ=              1.5435  XYZ=             -2.0783
 Hexadecapole moment (field-independent basis, Debye-Ang**3):
 XXXX=           -164.6716 YYYY=            -57.2252 ZZZZ=            -34.4636 XXXY=             -7.0676
 XXXZ=              4.1111 YYYX=             -4.1444 YYYZ=             -3.5291 ZZZX=              2.4800
 ZZZY=             -1.5762 XXYY=            -33.1744 XXZZ=            -31.8943 YYZZ=            -13.4211
 XXYZ=             -2.6247 YYXZ=              1.9250 ZZXY=             -0.4016
 N-N= 8.212849299684D+01 E-N=-5.258872138685D+02  KE= 1.535612918999D+02
  Exact polarizability:   0.000   0.000   0.000   0.000   0.000   0.000
 Approx polarizability:  27.434  -1.162  28.852   0.072  -0.533  27.868
 D2PCM: PCM CHGder 2nd derivatives, FixD1E=F FixD2E=F DoIter=F DoCFld=F I1PDM=0
 Calling FoFJK, ICntrl=    100147 FMM=F ISym2X=0 I1Cent= 0 IOpClX= 0 NMat=1 NMatS=1 NMatT=0.
 ***** Axes restored to original set *****
 -------------------------------------------------------------------
 Center     Atomic                   Forces (Hartrees/Bohr)
 Number     Number              X              Y              Z
 -------------------------------------------------------------------
      1        8          -0.011161006    0.002140093    0.000283550
      2        6           0.005827378    0.005982447    0.003245663
      3        6           0.004919337   -0.000855817   -0.000690649
      4        1           0.002054468   -0.003495441    0.001032904
      5        1          -0.003831119    0.001454166   -0.000298537
      6        1           0.002417010   -0.000251063    0.000289875
      7        1           0.000122668   -0.001356011   -0.002136509
      8        1           0.000748446   -0.001077269    0.002634838
      9        1          -0.001097183   -0.002541105   -0.004361135
 -------------------------------------------------------------------
 Cartesian Forces:  Max     0.011161006 RMS     0.003426791
 FormGI is forming the generalized inverse of G from B-inverse, IUseBI=4.

 GradGradGradGradGradGradGradGradGradGradGradGradGradGradGradGradGradGrad
 Berny optimization.
 Internal  Forces:  Max     0.014910762 RMS     0.004036889
 Search for a local minimum.
 Step number   1 out of a maximum of  100
 All quantities printed in internal units (Hartrees-Bohrs-Radians)
 Mixed Optimization -- RFO/linear search
 Second derivative matrix not updated -- analytic derivatives used.
 ITU=  0
     Eigenvalues ---    0.00205   0.00315   0.04462   0.04645   0.05095
     Eigenvalues ---    0.06639   0.10141   0.12141   0.12738   0.13534
     Eigenvalues ---    0.16596   0.17913   0.26146   0.31854   0.33868
     Eigenvalues ---    0.34352   0.34627   0.34887   0.35261   0.40653
     Eigenvalues ---    0.50636
 RFO step:  Lambda=-2.16079541D-03 EMin= 2.04668191D-03
 Linear search not attempted -- first point.
 Iteration  1 RMS(Cart)=  0.04447087 RMS(Int)=  0.00087361
 Iteration  2 RMS(Cart)=  0.00104932 RMS(Int)=  0.00025930
 Iteration  3 RMS(Cart)=  0.00000063 RMS(Int)=  0.00025930
 Variable       Old X    -DE/DX   Delta X   Delta X   Delta X     New X
                                 (Linear)    (Quad)   (Total)
    R1        2.68295   0.00947   0.00000   0.01695   0.01695   2.69990
    R2        1.83776  -0.00509   0.00000  -0.00922  -0.00922   1.82853
    R3        2.86066   0.00491   0.00000   0.00828   0.00828   2.86895
    R4        2.06739   0.00280   0.00000   0.00792   0.00792   2.07531
    R5        2.06682  -0.00042   0.00000  -0.00016  -0.00016   2.06665
    R6        2.06667   0.00210   0.00000   0.00544   0.00544   2.07211
    R7        2.06922   0.00088   0.00000   0.00206   0.00206   2.07128
    R8        2.06932   0.00154   0.00000   0.00348   0.00348   2.07280
    A1        1.87801   0.00166   0.00000   0.01273   0.01273   1.89074
    A2        1.90247   0.01491   0.00000   0.05783   0.05759   1.96006
    A3        1.90089  -0.00202   0.00000   0.01377   0.01328   1.91417
    A4        1.89073  -0.00874   0.00000  -0.05062  -0.05056   1.84017
    A5        1.94182  -0.00452   0.00000  -0.01364  -0.01431   1.92750
    A6        1.93162  -0.00073   0.00000   0.00135   0.00177   1.93340
    A7        1.89539   0.00083   0.00000  -0.00996  -0.01006   1.88533
    A8        1.93474   0.00160   0.00000  -0.01177  -0.01183   1.92291
    A9        1.93146  -0.00134   0.00000   0.00215   0.00207   1.93353
   A10        1.93322  -0.00066   0.00000   0.00158   0.00149   1.93471
   A11        1.89936  -0.00060   0.00000  -0.00684  -0.00688   1.89248
   A12        1.89756  -0.00112   0.00000  -0.01155  -0.01163   1.88594
   A13        1.86570   0.00212   0.00000   0.02739   0.02728   1.89298
    D1       -1.06277  -0.00003   0.00000  -0.03476  -0.03567  -1.09844
    D2        1.05880   0.00235   0.00000  -0.00749  -0.00708   1.05172
    D3        3.11737  -0.00271   0.00000  -0.04025  -0.03975   3.07762
    D4       -3.12427   0.00201   0.00000   0.01347   0.01346  -3.11081
    D5       -1.01514   0.00142   0.00000  -0.00156  -0.00160  -1.01674
    D6        1.05087   0.00279   0.00000   0.03485   0.03484   1.08571
    D7        1.06241  -0.00235   0.00000  -0.03268  -0.03269   1.02972
    D8       -3.11165  -0.00294   0.00000  -0.04771  -0.04775   3.12378
    D9       -1.04564  -0.00157   0.00000  -0.01129  -0.01131  -1.05695
   D10       -1.04656   0.00013   0.00000  -0.01182  -0.01177  -1.05833
   D11        1.06257  -0.00046   0.00000  -0.02686  -0.02683   1.03574
   D12        3.12858   0.00091   0.00000   0.00956   0.00961   3.13819
         Item               Value     Threshold  Converged?
 Maximum Force            0.014911     0.000450     NO 
 RMS     Force            0.004037     0.000300     NO 
 Maximum Displacement     0.165072     0.001800     NO 
 RMS     Displacement     0.044178     0.001200     NO 
 Predicted change in Energy=-1.098624D-03
 GradGradGradGradGradGradGradGradGradGradGradGradGradGradGradGradGradGrad

                          Input orientation:                          
 ---------------------------------------------------------------------
 Center     Atomic      Atomic             Coordinates (Angstroms)
 Number     Number       Type             X           Y           Z
 ---------------------------------------------------------------------
      1          8           0       -1.208806    0.283927   -0.003896
      2          6           0       -0.042320   -0.540915    0.010267
      3          6           0        1.239125    0.273096   -0.002262
      4          1           0       -0.067872   -1.202424    0.886512
      5          1           0       -0.115189   -1.163481   -0.885902
      6          1           0        2.109998   -0.392873   -0.022550
      7          1           0        1.278800    0.922425   -0.884407
      8          1           0        1.311817    0.900607    0.894449
      9          1           0       -1.216452    0.814137    0.805490
 ---------------------------------------------------------------------
                    Distance matrix (angstroms):
                    1          2          3          4          5
     1  O    0.000000
     2  C    1.428724   0.000000
     3  C    2.447955   1.518180   0.000000
     4  H    2.074559   1.098205   2.162249   0.000000
     5  H    2.017157   1.093626   2.163039   1.773473   0.000000
     6  H    3.387161   2.157653   1.096515   2.494972   2.508121
     7  H    2.714989   2.164986   1.096076   3.076470   2.508827
     8  H    2.746062   2.166437   1.096879   2.515223   3.076760
     9  H    0.967619   1.961411   2.641032   2.322138   2.825697
                    6          7          8          9
     6  H    0.000000
     7  H    1.778678   0.000000
     8  H    1.775125   1.779296   0.000000
     9  H    3.634253   3.015587   2.531311   0.000000
 Stoichiometry    C2H6O
 Framework group  C1[X(C2H6O)]
 Deg. of freedom    21
 Full point group                 C1      NOp   1
 Largest Abelian subgroup         C1      NOp   1
 Largest concise Abelian subgroup C1      NOp   1
                         Standard orientation:                         
 ---------------------------------------------------------------------
 Center     Atomic      Atomic             Coordinates (Angstroms)
 Number     Number       Type             X           Y           Z
 ---------------------------------------------------------------------
      1          8           0        1.236249   -0.258910   -0.112775
      2          6           0        0.076354    0.559830    0.047102
      3          6           0       -1.209936   -0.243723   -0.020960
      4          1           0        0.137488    1.105961    0.997921
      5          1           0        0.121134    1.289913   -0.765910
      6          1           0       -2.076670    0.421169    0.074099
      7          1           0       -1.285318   -0.777002   -0.975587
      8          1           0       -1.254552   -0.978781    0.791962
      9          1           0        1.269423   -0.886620    0.622864
 ---------------------------------------------------------------------
 Rotational constants (GHZ):          34.1872659           9.2012626           8.1284545
 Standard basis: 6-31+G(d) (6D, 7F)
 There are    69 symmetry adapted cartesian basis functions of A   symmetry.
 There are    69 symmetry adapted basis functions of A   symmetry.
    69 basis functions,   120 primitive gaussians,    69 cartesian basis functions
    13 alpha electrons       13 beta electrons
       nuclear repulsion energy        81.5353992571 Hartrees.
 NAtoms=    9 NActive=    9 NUniq=    9 SFac= 1.00D+00 NAtFMM=   60 NAOKFM=F Big=F
 Integral buffers will be    131072 words long.
 Raffenetti 2 integral format.
 Two-electron integral symmetry is turned on.
 Nuclear repulsion after empirical dispersion term =       81.5328290689 Hartrees.
 ------------------------------------------------------------------------------
 Polarizable Continuum Model (PCM)
 =================================
 Model                : PCM.
 Atomic radii         : SMD-Coulomb.
 Polarization charges : Total charges.
 Charge compensation  : None.
 Solution method      : Matrix inversion.
 Cavity type          : VdW (van der Waals Surface) (Alpha=1.000).
 Cavity algorithm     : GePol (No added spheres)
                        Default sphere list used, NSphG=    9.
                        Lebedev-Laikov grids with approx.  5.0 points / Ang**2.
                        Smoothing algorithm: York/Karplus (Gamma=1.0000).
                        Polarization charges: spherical gaussians, with
                                              point-specific exponents (IZeta= 3).
                        Self-potential: point-specific (ISelfS= 7).
                        Self-field    : sphere-specific E.n sum rule (ISelfD= 2).
 1st derivatives      : Analytical E(r).r(x)/FMM algorithm (CHGder, D1EAlg=3).
                        Cavity 1st derivative terms included.
 Solvent              : Ethanol, Eps=  24.852000 Eps(inf)=   1.852593
 ------------------------------------------------------------------------------
 Spheres list:
 ISph  on   Nord     Re0    Alpha      Xe            Ye            Ze
    1   O      1    1.6280  1.000      1.236249     -0.258910     -0.112775
    2   C      2    1.8500  1.000      0.076354      0.559830      0.047102
    3   C      3    1.8500  1.000     -1.209936     -0.243723     -0.020960
    4   H      4    1.2000  1.000      0.137488      1.105961      0.997921
    5   H      5    1.2000  1.000      0.121134      1.289913     -0.765910
    6   H      6    1.2000  1.000     -2.076670      0.421169      0.074099
    7   H      7    1.2000  1.000     -1.285318     -0.777002     -0.975587
    8   H      8    1.2000  1.000     -1.254552     -0.978781      0.791962
    9   H      9    1.2000  1.000      1.269423     -0.886620      0.622864
 ------------------------------------------------------------------------------
 ------------------------------------------------------------------------------
 Atomic radii for non-electrostatic terms: SMD-CDS.
 ------------------------------------------------------------------------------
 Nuclear repulsion after PCM non-electrostatic terms =       81.5334677103 Hartrees.
 One-electron integrals computed using PRISM.
 NBasis=    69 RedAO= T EigKep=  2.88D-04  NBF=    69
 NBsUse=    69 1.00D-06 EigRej= -1.00D+00 NBFU=    69
 Initial guess from the checkpoint file:  "ethanol.chk"
 B after Tr=     0.000000    0.000000   -0.000000
         Rot=    0.999994    0.003268    0.000908   -0.000925 Ang=   0.40 deg.
 ExpMin= 4.38D-02 ExpMax= 5.48D+03 ExpMxC= 8.25D+02 IAcc=2 IRadAn=         4 AccDes= 0.00D+00
 Harris functional with IExCor= 4639 and IRadAn=       4 diagonalized for initial guess.
 HarFok:  IExCor= 4639 AccDes= 0.00D+00 IRadAn=         4 IDoV= 1 UseB2=F ITyADJ=14
 ICtDFT=  3500011 ScaDFX=  1.000000  1.000000  1.000000  1.000000
 FoFCou: FMM=F IPFlag=           0 FMFlag=      100000 FMFlg1=           0
         NFxFlg=           0 DoJE=T BraDBF=F KetDBF=T FulRan=T
         wScrn=  0.000000 ICntrl=       500 IOpCl=  0 I1Cent=   200000004 NGrid=           0
         NMat0=    1 NMatS0=      1 NMatT0=    0 NMatD0=    1 NMtDS0=    0 NMtDT0=    0
 Petite list used in FoFCou.
 Keep R1 ints in memory in canonical form, NReq=27246181.
 Requested convergence on RMS density matrix=1.00D-08 within 128 cycles.
 Requested convergence on MAX density matrix=1.00D-06.
 Requested convergence on             energy=1.00D-06.
 No special actions if energy rises.
 Inv3:  Mode=1 IEnd=     1383123.
 Iteration    1 A*A^-1 deviation from unit magnitude is 2.78D-15 for    227.
 Iteration    1 A*A^-1 deviation from orthogonality  is 2.28D-15 for    656    390.
 Iteration    1 A^-1*A deviation from unit magnitude is 2.55D-15 for    227.
 Iteration    1 A^-1*A deviation from orthogonality  is 1.52D-15 for    502    278.
 Error on total polarization charges =  0.03429
 SCF Done:  E(RwB97XD) =  -155.005422439     A.U. after   11 cycles
            NFock= 11  Conv=0.32D-08     -V/T= 2.0096
 SMD-CDS (non-electrostatic) energy       (kcal/mol) =       0.40
 (included in total energy above)
 D1PCM: PCM CHGder 1st derivatives, ID1Alg=3 FixD1E=F DoIter=F DoCFld=F I1PDM=0.
 Calling FoFJK, ICntrl=      2127 FMM=F ISym2X=0 I1Cent= 0 IOpClX= 0 NMat=1 NMatS=1 NMatT=0.
 ***** Axes restored to original set *****
 -------------------------------------------------------------------
 Center     Atomic                   Forces (Hartrees/Bohr)
 Number     Number              X              Y              Z
 -------------------------------------------------------------------
      1        8          -0.001024900    0.000092748   -0.000230854
      2        6           0.000403878    0.000345813    0.000501477
      3        6           0.000372671    0.000023264   -0.000275797
      4        1           0.000017211   -0.000307334   -0.000162986
      5        1           0.000025540   -0.000030173   -0.000020933
      6        1           0.000073504   -0.000026345    0.000015702
      7        1           0.000059539   -0.000092345   -0.000055621
      8        1           0.000074894   -0.000083817    0.000100596
      9        1          -0.000002336    0.000078189    0.000128417
 -------------------------------------------------------------------
 Cartesian Forces:  Max     0.001024900 RMS     0.000275693

 GradGradGradGradGradGradGradGradGradGradGradGradGradGradGradGradGradGrad
 Berny optimization.
 Using GEDIIS/GDIIS optimizer.
 FormGI is forming the generalized inverse of G from B-inverse, IUseBI=4.
 Internal  Forces:  Max     0.000943939 RMS     0.000270387
 Search for a local minimum.
 Step number   2 out of a maximum of  100
 All quantities printed in internal units (Hartrees-Bohrs-Radians)
 Mixed Optimization -- En-DIIS/RFO-DIIS
 Update second derivatives using D2CorX and points    1    2
 DE= -1.13D-03 DEPred=-1.10D-03 R= 1.03D+00
 TightC=F SS=  1.41D+00  RLast= 1.30D-01 DXNew= 1.6818D-01 3.8967D-01
 Trust test= 1.03D+00 RLast= 1.30D-01 DXMaxT set to 1.68D-01
 ITU=  1  0
 Use linear search instead of GDIIS.
     Eigenvalues ---    0.00206   0.00316   0.04462   0.04633   0.05079
     Eigenvalues ---    0.06595   0.10134   0.12259   0.12731   0.13498
     Eigenvalues ---    0.16662   0.17911   0.25703   0.31741   0.33837
     Eigenvalues ---    0.34351   0.34588   0.34865   0.35256   0.39625
     Eigenvalues ---    0.50766
 RFO step:  Lambda=-4.04134996D-06 EMin= 2.05712712D-03
 Quartic linear search produced a step of  0.06004.
 Iteration  1 RMS(Cart)=  0.00356466 RMS(Int)=  0.00001815
 Iteration  2 RMS(Cart)=  0.00000697 RMS(Int)=  0.00001719
 Iteration  3 RMS(Cart)=  0.00000000 RMS(Int)=  0.00001719
 Variable       Old X    -DE/DX   Delta X   Delta X   Delta X     New X
                                 (Linear)    (Quad)   (Total)
    R1        2.69990   0.00094   0.00102   0.00100   0.00202   2.70192
    R2        1.82853   0.00013  -0.00055   0.00087   0.00031   1.82885
    R3        2.86895   0.00040   0.00050   0.00027   0.00077   2.86971
    R4        2.07531   0.00006   0.00048  -0.00035   0.00013   2.07543
    R5        2.06665   0.00003  -0.00001   0.00026   0.00025   2.06690
    R6        2.07211   0.00007   0.00033  -0.00010   0.00022   2.07234
    R7        2.07128  -0.00001   0.00012  -0.00022  -0.00010   2.07118
    R8        2.07280   0.00005   0.00021  -0.00009   0.00012   2.07292
    A1        1.89074   0.00003   0.00076  -0.00092  -0.00015   1.89059
    A2        1.96006   0.00090   0.00346   0.00070   0.00414   1.96420
    A3        1.91417  -0.00023   0.00080  -0.00017   0.00059   1.91476
    A4        1.84017  -0.00030  -0.00304   0.00166  -0.00137   1.83880
    A5        1.92750  -0.00007  -0.00086   0.00162   0.00072   1.92822
    A6        1.93340  -0.00030   0.00011  -0.00231  -0.00218   1.93121
    A7        1.88533  -0.00004  -0.00060  -0.00162  -0.00223   1.88311
    A8        1.92291   0.00001  -0.00071  -0.00106  -0.00177   1.92114
    A9        1.93353   0.00002   0.00012   0.00066   0.00078   1.93431
   A10        1.93471   0.00000   0.00009   0.00070   0.00078   1.93549
   A11        1.89248  -0.00004  -0.00041  -0.00004  -0.00046   1.89202
   A12        1.88594  -0.00006  -0.00070  -0.00024  -0.00094   1.88499
   A13        1.89298   0.00007   0.00164  -0.00004   0.00159   1.89457
    D1       -1.09844  -0.00014  -0.00214   0.00059  -0.00161  -1.10005
    D2        1.05172   0.00023  -0.00043   0.00304   0.00264   1.05435
    D3        3.07762  -0.00009  -0.00239   0.00195  -0.00040   3.07722
    D4       -3.11081   0.00007   0.00081  -0.00367  -0.00286  -3.11367
    D5       -1.01674   0.00004  -0.00010  -0.00399  -0.00408  -1.02083
    D6        1.08571   0.00014   0.00209  -0.00314  -0.00104   1.08467
    D7        1.02972  -0.00021  -0.00196  -0.00512  -0.00709   1.02263
    D8        3.12378  -0.00025  -0.00287  -0.00544  -0.00831   3.11547
    D9       -1.05695  -0.00015  -0.00068  -0.00459  -0.00527  -1.06222
   D10       -1.05833   0.00008  -0.00071  -0.00267  -0.00337  -1.06170
   D11        1.03574   0.00004  -0.00161  -0.00299  -0.00460   1.03114
   D12        3.13819   0.00014   0.00058  -0.00214  -0.00156   3.13663
         Item               Value     Threshold  Converged?
 Maximum Force            0.000944     0.000450     NO 
 RMS     Force            0.000270     0.000300     YES
 Maximum Displacement     0.009663     0.001800     NO 
 RMS     Displacement     0.003562     0.001200     NO 
 Predicted change in Energy=-5.497568D-06
 GradGradGradGradGradGradGradGradGradGradGradGradGradGradGradGradGradGrad

                          Input orientation:                          
 ---------------------------------------------------------------------
 Center     Atomic      Atomic             Coordinates (Angstroms)
 Number     Number       Type             X           Y           Z
 ---------------------------------------------------------------------
      1          8           0       -1.212263    0.283010   -0.002652
      2          6           0       -0.042403   -0.538909    0.010959
      3          6           0        1.240281    0.273886   -0.002679
      4          1           0       -0.066872   -1.203536    0.884958
      5          1           0       -0.114712   -1.160528   -0.886074
      6          1           0        2.109355   -0.394695   -0.020361
      7          1           0        1.282769    0.920094   -0.886918
      8          1           0        1.314509    0.902747    0.893036
      9          1           0       -1.221566    0.812431    0.807431
 ---------------------------------------------------------------------
                    Distance matrix (angstroms):
                    1          2          3          4          5
     1  O    0.000000
     2  C    1.429793   0.000000
     3  C    2.452561   1.518585   0.000000
     4  H    2.075955   1.098272   2.163175   0.000000
     5  H    2.017140   1.093758   2.161928   1.772200   0.000000
     6  H    3.390095   2.156813   1.096633   2.491945   2.506478
     7  H    2.722680   2.165862   1.096024   3.077480   2.506380
     8  H    2.751528   2.167405   1.096942   2.518870   3.076525
     9  H    0.967785   1.962374   2.647074   2.324532   2.825889
                    6          7          8          9
     6  H    0.000000
     7  H    1.778437   0.000000
     8  H    1.774664   1.780321   0.000000
     9  H    3.638328   3.025575   2.539126   0.000000
 Stoichiometry    C2H6O
 Framework group  C1[X(C2H6O)]
 Deg. of freedom    21
 Full point group                 C1      NOp   1
 Largest Abelian subgroup         C1      NOp   1
 Largest concise Abelian subgroup C1      NOp   1
                         Standard orientation:                         
 ---------------------------------------------------------------------
 Center     Atomic      Atomic             Coordinates (Angstroms)
 Number     Number       Type             X           Y           Z
 ---------------------------------------------------------------------
      1          8           0        1.238894   -0.258014   -0.112813
      2          6           0        0.075842    0.558069    0.047271
      3          6           0       -1.211905   -0.243902   -0.020936
      4          1           0        0.136606    1.107374    0.996363
      5          1           0        0.119567    1.287480   -0.766579
      6          1           0       -2.076546    0.423380    0.077724
      7          1           0       -1.290926   -0.773610   -0.977196
      8          1           0       -1.257645   -0.980329    0.790770
      9          1           0        1.274172   -0.885186    0.623405
 ---------------------------------------------------------------------
 Rotational constants (GHZ):          34.2689221           9.1688600           8.1079078
 Standard basis: 6-31+G(d) (6D, 7F)
 There are    69 symmetry adapted cartesian basis functions of A   symmetry.
 There are    69 symmetry adapted basis functions of A   symmetry.
    69 basis functions,   120 primitive gaussians,    69 cartesian basis functions
    13 alpha electrons       13 beta electrons
       nuclear repulsion energy        81.4824452149 Hartrees.
 NAtoms=    9 NActive=    9 NUniq=    9 SFac= 1.00D+00 NAtFMM=   60 NAOKFM=F Big=F
 Integral buffers will be    131072 words long.
 Raffenetti 2 integral format.
 Two-electron integral symmetry is turned on.
 Nuclear repulsion after empirical dispersion term =       81.4798758721 Hartrees.
 ------------------------------------------------------------------------------
 Polarizable Continuum Model (PCM)
 =================================
 Model                : PCM.
 Atomic radii         : SMD-Coulomb.
 Polarization charges : Total charges.
 Charge compensation  : None.
 Solution method      : Matrix inversion.
 Cavity type          : VdW (van der Waals Surface) (Alpha=1.000).
 Cavity algorithm     : GePol (No added spheres)
                        Default sphere list used, NSphG=    9.
                        Lebedev-Laikov grids with approx.  5.0 points / Ang**2.
                        Smoothing algorithm: York/Karplus (Gamma=1.0000).
                        Polarization charges: spherical gaussians, with
                                              point-specific exponents (IZeta= 3).
                        Self-potential: point-specific (ISelfS= 7).
                        Self-field    : sphere-specific E.n sum rule (ISelfD= 2).
 1st derivatives      : Analytical E(r).r(x)/FMM algorithm (CHGder, D1EAlg=3).
                        Cavity 1st derivative terms included.
 Solvent              : Ethanol, Eps=  24.852000 Eps(inf)=   1.852593
 ------------------------------------------------------------------------------
 Spheres list:
 ISph  on   Nord     Re0    Alpha      Xe            Ye            Ze
    1   O      1    1.6280  1.000      1.238894     -0.258014     -0.112813
    2   C      2    1.8500  1.000      0.075842      0.558069      0.047271
    3   C      3    1.8500  1.000     -1.211905     -0.243902     -0.020936
    4   H      4    1.2000  1.000      0.136606      1.107374      0.996363
    5   H      5    1.2000  1.000      0.119567      1.287480     -0.766579
    6   H      6    1.2000  1.000     -2.076546      0.423380      0.077724
    7   H      7    1.2000  1.000     -1.290926     -0.773610     -0.977196
    8   H      8    1.2000  1.000     -1.257645     -0.980329      0.790770
    9   H      9    1.2000  1.000      1.274172     -0.885186      0.623405
 ------------------------------------------------------------------------------
 ------------------------------------------------------------------------------
 Atomic radii for non-electrostatic terms: SMD-CDS.
 ------------------------------------------------------------------------------
 Nuclear repulsion after PCM non-electrostatic terms =       81.4805144118 Hartrees.
 One-electron integrals computed using PRISM.
 NBasis=    69 RedAO= T EigKep=  2.89D-04  NBF=    69
 NBsUse=    69 1.00D-06 EigRej= -1.00D+00 NBFU=    69
 Initial guess from the checkpoint file:  "ethanol.chk"
 B after Tr=    -0.000000   -0.000000   -0.000000
         Rot=    1.000000   -0.000125   -0.000119   -0.000106 Ang=  -0.02 deg.
 Keep R1 ints in memory in canonical form, NReq=27246181.
 Requested convergence on RMS density matrix=1.00D-08 within 128 cycles.
 Requested convergence on MAX density matrix=1.00D-06.
 Requested convergence on             energy=1.00D-06.
 No special actions if energy rises.
 Inv3:  Mode=1 IEnd=     1395372.
 Iteration    1 A*A^-1 deviation from unit magnitude is 3.33D-15 for    680.
 Iteration    1 A*A^-1 deviation from orthogonality  is 1.32D-15 for    443    248.
 Iteration    1 A^-1*A deviation from unit magnitude is 3.33D-15 for    680.
 Iteration    1 A^-1*A deviation from orthogonality  is 1.48D-15 for    462    235.
 Error on total polarization charges =  0.03430
 SCF Done:  E(RwB97XD) =  -155.005428085     A.U. after    9 cycles
            NFock=  9  Conv=0.51D-08     -V/T= 2.0097
 SMD-CDS (non-electrostatic) energy       (kcal/mol) =       0.40
 (included in total energy above)
 D1PCM: PCM CHGder 1st derivatives, ID1Alg=3 FixD1E=F DoIter=F DoCFld=F I1PDM=0.
 Calling FoFJK, ICntrl=      2127 FMM=F ISym2X=0 I1Cent= 0 IOpClX= 0 NMat=1 NMatS=1 NMatT=0.
 ***** Axes restored to original set *****
 -------------------------------------------------------------------
 Center     Atomic                   Forces (Hartrees/Bohr)
 Number     Number              X              Y              Z
 -------------------------------------------------------------------
      1        8          -0.000077943    0.000007518    0.000022332
      2        6           0.000033320    0.000021820    0.000023978
      3        6           0.000036923   -0.000022241   -0.000017525
      4        1          -0.000015183   -0.000019084   -0.000028082
      5        1          -0.000012704    0.000016491   -0.000008512
      6        1          -0.000002283   -0.000007706   -0.000025037
      7        1          -0.000004991    0.000010606    0.000012739
      8        1           0.000015609   -0.000014020   -0.000002586
      9        1           0.000027252    0.000006616    0.000022691
 -------------------------------------------------------------------
 Cartesian Forces:  Max     0.000077943 RMS     0.000024026

 GradGradGradGradGradGradGradGradGradGradGradGradGradGradGradGradGradGrad
 Berny optimization.
 Using GEDIIS/GDIIS optimizer.
 FormGI is forming the generalized inverse of G from B-inverse, IUseBI=4.
 Internal  Forces:  Max     0.000054225 RMS     0.000016675
 Search for a local minimum.
 Step number   3 out of a maximum of  100
 All quantities printed in internal units (Hartrees-Bohrs-Radians)
 Mixed Optimization -- En-DIIS/RFO-DIIS
 Swapping is turned off.
 Update second derivatives using D2CorX and points    1    2    3
 DE= -5.65D-06 DEPred=-5.50D-06 R= 1.03D+00
 TightC=F SS=  1.41D+00  RLast= 1.61D-02 DXNew= 2.8284D-01 4.8401D-02
 Trust test= 1.03D+00 RLast= 1.61D-02 DXMaxT set to 1.68D-01
 ITU=  1  1  0
     Eigenvalues ---    0.00206   0.00315   0.04462   0.04639   0.05049
     Eigenvalues ---    0.06534   0.10122   0.12261   0.12728   0.13415
     Eigenvalues ---    0.16647   0.17911   0.25277   0.31581   0.33757
     Eigenvalues ---    0.34350   0.34551   0.34838   0.35259   0.39141
     Eigenvalues ---    0.50784
 En-DIIS/RFO-DIIS/Sim-DIIS IScMMF=       -3 using points:     3    2
 RFO step:  Lambda=-1.49679416D-07.
 DidBck=F Rises=F RFO-DIIS coefs:    0.99796    0.00204
 Iteration  1 RMS(Cart)=  0.00097509 RMS(Int)=  0.00000222
 Iteration  2 RMS(Cart)=  0.00000198 RMS(Int)=  0.00000001
 Iteration  3 RMS(Cart)=  0.00000000 RMS(Int)=  0.00000001
 Variable       Old X    -DE/DX   Delta X   Delta X   Delta X     New X
                                 (Linear)    (Quad)   (Total)
    R1        2.70192   0.00005  -0.00000   0.00017   0.00016   2.70208
    R2        1.82885  -0.00000  -0.00000   0.00001   0.00001   1.82886
    R3        2.86971   0.00003  -0.00000   0.00003   0.00003   2.86974
    R4        2.07543  -0.00001  -0.00000   0.00000   0.00000   2.07543
    R5        2.06690  -0.00000  -0.00000   0.00000   0.00000   2.06690
    R6        2.07234  -0.00000  -0.00000  -0.00002  -0.00002   2.07232
    R7        2.07118  -0.00001   0.00000  -0.00001  -0.00001   2.07117
    R8        2.07292  -0.00000  -0.00000   0.00001   0.00001   2.07293
    A1        1.89059  -0.00001   0.00000  -0.00012  -0.00012   1.89046
    A2        1.96420   0.00005  -0.00001   0.00030   0.00029   1.96449
    A3        1.91476  -0.00003  -0.00000  -0.00008  -0.00009   1.91468
    A4        1.83880  -0.00002   0.00000  -0.00010  -0.00009   1.83871
    A5        1.92822   0.00001  -0.00000   0.00012   0.00012   1.92834
    A6        1.93121  -0.00002   0.00000  -0.00013  -0.00012   1.93109
    A7        1.88311  -0.00000   0.00000  -0.00014  -0.00013   1.88298
    A8        1.92114   0.00000   0.00000  -0.00003  -0.00002   1.92111
    A9        1.93431   0.00000  -0.00000   0.00002   0.00001   1.93432
   A10        1.93549   0.00000  -0.00000   0.00007   0.00006   1.93555
   A11        1.89202  -0.00000   0.00000   0.00003   0.00003   1.89205
   A12        1.88499  -0.00000   0.00000  -0.00002  -0.00001   1.88498
   A13        1.89457  -0.00001  -0.00000  -0.00007  -0.00007   1.89450
    D1       -1.10005  -0.00000   0.00000   0.00409   0.00410  -1.09595
    D2        1.05435   0.00003  -0.00001   0.00439   0.00439   1.05874
    D3        3.07722   0.00000   0.00000   0.00414   0.00414   3.08136
    D4       -3.11367   0.00000   0.00001   0.00025   0.00025  -3.11342
    D5       -1.02083   0.00001   0.00001   0.00027   0.00028  -1.02055
    D6        1.08467  -0.00000   0.00000   0.00024   0.00024   1.08491
    D7        1.02263  -0.00001   0.00001   0.00006   0.00007   1.02270
    D8        3.11547  -0.00000   0.00002   0.00008   0.00010   3.11557
    D9       -1.06222  -0.00001   0.00001   0.00005   0.00006  -1.06216
   D10       -1.06170   0.00001   0.00001   0.00023   0.00024  -1.06147
   D11        1.03114   0.00001   0.00001   0.00025   0.00026   1.03140
   D12        3.13663   0.00000   0.00000   0.00022   0.00023   3.13686
         Item               Value     Threshold  Converged?
 Maximum Force            0.000054     0.000450     YES
 RMS     Force            0.000017     0.000300     YES
 Maximum Displacement     0.003045     0.001800     NO 
 RMS     Displacement     0.000975     0.001200     YES
 Predicted change in Energy=-7.484071D-08
 GradGradGradGradGradGradGradGradGradGradGradGradGradGradGradGradGradGrad

                          Input orientation:                          
 ---------------------------------------------------------------------
 Center     Atomic      Atomic             Coordinates (Angstroms)
 Number     Number       Type             X           Y           Z
 ---------------------------------------------------------------------
      1          8           0       -1.212811    0.282116   -0.002208
      2          6           0       -0.042438   -0.539224    0.011112
      3          6           0        1.240053    0.273905   -0.002508
      4          1           0       -0.066677   -1.204206    0.884848
      5          1           0       -0.114577   -1.160628   -0.886084
      6          1           0        2.109267   -0.394466   -0.020673
      7          1           0        1.282165    0.920505   -0.886470
      8          1           0        1.314400    0.902456    0.893423
      9          1           0       -1.220282    0.814042    0.806259
 ---------------------------------------------------------------------
                    Distance matrix (angstroms):
                    1          2          3          4          5
     1  O    0.000000
     2  C    1.429878   0.000000
     3  C    2.452878   1.518601   0.000000
     4  H    2.075969   1.098273   2.163274   0.000000
     5  H    2.017143   1.093758   2.161854   1.772116   0.000000
     6  H    3.390325   2.156803   1.096623   2.492062   2.506276
     7  H    2.722933   2.165880   1.096017   3.077554   2.506393
     8  H    2.752049   2.167470   1.096949   2.519022   3.076514
     9  H    0.967790   1.962372   2.645581   2.326006   2.825938
                    6          7          8          9
     6  H    0.000000
     7  H    1.778441   0.000000
     8  H    1.774652   1.780277   0.000000
     9  H    3.637334   3.023062   2.537721   0.000000
 Stoichiometry    C2H6O
 Framework group  C1[X(C2H6O)]
 Deg. of freedom    21
 Full point group                 C1      NOp   1
 Largest Abelian subgroup         C1      NOp   1
 Largest concise Abelian subgroup C1      NOp   1
                         Standard orientation:                         
 ---------------------------------------------------------------------
 Center     Atomic      Atomic             Coordinates (Angstroms)
 Number     Number       Type             X           Y           Z
 ---------------------------------------------------------------------
      1          8           0        1.239181   -0.257799   -0.112544
      2          6           0        0.075840    0.558061    0.047338
      3          6           0       -1.211949   -0.243859   -0.021013
      4          1           0        0.136538    1.107584    0.996308
      5          1           0        0.119593    1.287395   -0.766581
      6          1           0       -2.076553    0.423512    0.077261
      7          1           0       -1.290751   -0.773817   -0.977145
      8          1           0       -1.258004   -0.980119    0.790835
      9          1           0        1.272377   -0.887375    0.621724
 ---------------------------------------------------------------------
 Rotational constants (GHZ):          34.2709497           9.1679938           8.1065869
 Standard basis: 6-31+G(d) (6D, 7F)
 There are    69 symmetry adapted cartesian basis functions of A   symmetry.
 There are    69 symmetry adapted basis functions of A   symmetry.
    69 basis functions,   120 primitive gaussians,    69 cartesian basis functions
    13 alpha electrons       13 beta electrons
       nuclear repulsion energy        81.4801602529 Hartrees.
 NAtoms=    9 NActive=    9 NUniq=    9 SFac= 1.00D+00 NAtFMM=   60 NAOKFM=F Big=F
 Integral buffers will be    131072 words long.
 Raffenetti 2 integral format.
 Two-electron integral symmetry is turned on.
 Nuclear repulsion after empirical dispersion term =       81.4775905815 Hartrees.
 ------------------------------------------------------------------------------
 Polarizable Continuum Model (PCM)
 =================================
 Model                : PCM.
 Atomic radii         : SMD-Coulomb.
 Polarization charges : Total charges.
 Charge compensation  : None.
 Solution method      : Matrix inversion.
 Cavity type          : VdW (van der Waals Surface) (Alpha=1.000).
 Cavity algorithm     : GePol (No added spheres)
                        Default sphere list used, NSphG=    9.
                        Lebedev-Laikov grids with approx.  5.0 points / Ang**2.
                        Smoothing algorithm: York/Karplus (Gamma=1.0000).
                        Polarization charges: spherical gaussians, with
                                              point-specific exponents (IZeta= 3).
                        Self-potential: point-specific (ISelfS= 7).
                        Self-field    : sphere-specific E.n sum rule (ISelfD= 2).
 1st derivatives      : Analytical E(r).r(x)/FMM algorithm (CHGder, D1EAlg=3).
                        Cavity 1st derivative terms included.
 Solvent              : Ethanol, Eps=  24.852000 Eps(inf)=   1.852593
 ------------------------------------------------------------------------------
 Spheres list:
 ISph  on   Nord     Re0    Alpha      Xe            Ye            Ze
    1   O      1    1.6280  1.000      1.239181     -0.257799     -0.112544
    2   C      2    1.8500  1.000      0.075840      0.558061      0.047338
    3   C      3    1.8500  1.000     -1.211949     -0.243859     -0.021013
    4   H      4    1.2000  1.000      0.136538      1.107584      0.996308
    5   H      5    1.2000  1.000      0.119593      1.287395     -0.766581
    6   H      6    1.2000  1.000     -2.076553      0.423512      0.077261
    7   H      7    1.2000  1.000     -1.290751     -0.773817     -0.977145
    8   H      8    1.2000  1.000     -1.258004     -0.980119      0.790835
    9   H      9    1.2000  1.000      1.272377     -0.887375      0.621724
 ------------------------------------------------------------------------------
 ------------------------------------------------------------------------------
 Atomic radii for non-electrostatic terms: SMD-CDS.
 ------------------------------------------------------------------------------
 Nuclear repulsion after PCM non-electrostatic terms =       81.4782294800 Hartrees.
 One-electron integrals computed using PRISM.
 NBasis=    69 RedAO= T EigKep=  2.89D-04  NBF=    69
 NBsUse=    69 1.00D-06 EigRej= -1.00D+00 NBFU=    69
 Initial guess from the checkpoint file:  "ethanol.chk"
 B after Tr=     0.000000   -0.000000    0.000000
         Rot=    1.000000   -0.000077    0.000056    0.000032 Ang=  -0.01 deg.
 Keep R1 ints in memory in canonical form, NReq=27246181.
 Requested convergence on RMS density matrix=1.00D-08 within 128 cycles.
 Requested convergence on MAX density matrix=1.00D-06.
 Requested convergence on             energy=1.00D-06.
 No special actions if energy rises.
 Inv3:  Mode=1 IEnd=     1395372.
 Iteration    1 A*A^-1 deviation from unit magnitude is 2.44D-15 for    611.
 Iteration    1 A*A^-1 deviation from orthogonality  is 2.01D-15 for    669    328.
 Iteration    1 A^-1*A deviation from unit magnitude is 2.66D-15 for    681.
 Iteration    1 A^-1*A deviation from orthogonality  is 2.15D-15 for    680    506.
 Error on total polarization charges =  0.03430
 SCF Done:  E(RwB97XD) =  -155.005428167     A.U. after    8 cycles
            NFock=  8  Conv=0.78D-08     -V/T= 2.0097
 SMD-CDS (non-electrostatic) energy       (kcal/mol) =       0.40
 (included in total energy above)
 D1PCM: PCM CHGder 1st derivatives, ID1Alg=3 FixD1E=F DoIter=F DoCFld=F I1PDM=0.
 Calling FoFJK, ICntrl=      2127 FMM=F ISym2X=0 I1Cent= 0 IOpClX= 0 NMat=1 NMatS=1 NMatT=0.
 ***** Axes restored to original set *****
 -------------------------------------------------------------------
 Center     Atomic                   Forces (Hartrees/Bohr)
 Number     Number              X              Y              Z
 -------------------------------------------------------------------
      1        8           0.000009399    0.000012497    0.000023747
      2        6          -0.000004698    0.000003281   -0.000004595
      3        6           0.000003915   -0.000002856   -0.000004324
      4        1          -0.000000820   -0.000005240   -0.000012367
      5        1          -0.000019450    0.000016292   -0.000009694
      6        1          -0.000004925   -0.000011691   -0.000024815
      7        1          -0.000004239    0.000008487    0.000005033
      8        1           0.000014463   -0.000018213   -0.000000920
      9        1           0.000006356   -0.000002555    0.000027936
 -------------------------------------------------------------------
 Cartesian Forces:  Max     0.000027936 RMS     0.000012299

 GradGradGradGradGradGradGradGradGradGradGradGradGradGradGradGradGradGrad
 Berny optimization.
 Using GEDIIS/GDIIS optimizer.
 FormGI is forming the generalized inverse of G from B-inverse, IUseBI=4.
 Internal  Forces:  Max     0.000008589 RMS     0.000002504
 Search for a local minimum.
 Step number   4 out of a maximum of  100
 All quantities printed in internal units (Hartrees-Bohrs-Radians)
 Mixed Optimization -- En-DIIS/RFO-DIIS
 Swapping is turned off.
 Update second derivatives using D2CorX and points    1    2    3    4
 DE= -8.12D-08 DEPred=-7.48D-08 R= 1.09D+00
 Trust test= 1.09D+00 RLast= 7.34D-03 DXMaxT set to 1.68D-01
 ITU=  0  1  1  0
     Eigenvalues ---    0.00274   0.00315   0.04458   0.04638   0.05015
     Eigenvalues ---    0.06476   0.10102   0.12172   0.12706   0.13176
     Eigenvalues ---    0.16653   0.18003   0.24421   0.31250   0.33609
     Eigenvalues ---    0.34346   0.34516   0.34793   0.35242   0.38721
     Eigenvalues ---    0.50790
 En-DIIS/RFO-DIIS/Sim-DIIS IScMMF=       -3 using points:     4    3    2
 RFO step:  Lambda=-1.14413831D-08.
 DidBck=T Rises=F RFO-DIIS coefs:    0.73797    0.25109    0.01094
 Iteration  1 RMS(Cart)=  0.00028313 RMS(Int)=  0.00000016
 Iteration  2 RMS(Cart)=  0.00000014 RMS(Int)=  0.00000003
 Variable       Old X    -DE/DX   Delta X   Delta X   Delta X     New X
                                 (Linear)    (Quad)   (Total)
    R1        2.70208  -0.00000  -0.00006   0.00006  -0.00001   2.70207
    R2        1.82886  -0.00000  -0.00001  -0.00000  -0.00001   1.82885
    R3        2.86974   0.00000  -0.00002   0.00003   0.00001   2.86975
    R4        2.07543  -0.00000  -0.00000  -0.00001  -0.00001   2.07542
    R5        2.06690  -0.00000  -0.00000   0.00000  -0.00000   2.06690
    R6        2.07232   0.00000   0.00000  -0.00000   0.00000   2.07232
    R7        2.07117  -0.00000   0.00000  -0.00001  -0.00000   2.07117
    R8        2.07293  -0.00000  -0.00000  -0.00001  -0.00001   2.07292
    A1        1.89046   0.00001   0.00003   0.00001   0.00004   1.89051
    A2        1.96449   0.00001  -0.00012   0.00014   0.00002   1.96451
    A3        1.91468  -0.00000   0.00002  -0.00004  -0.00002   1.91465
    A4        1.83871  -0.00000   0.00004  -0.00004  -0.00000   1.83870
    A5        1.92834   0.00000  -0.00004   0.00005   0.00001   1.92835
    A6        1.93109  -0.00000   0.00006  -0.00006  -0.00001   1.93109
    A7        1.88298   0.00000   0.00006  -0.00006  -0.00001   1.88297
    A8        1.92111  -0.00000   0.00003  -0.00005  -0.00002   1.92109
    A9        1.93432   0.00000  -0.00001   0.00001  -0.00000   1.93432
   A10        1.93555   0.00000  -0.00003   0.00004   0.00001   1.93557
   A11        1.89205   0.00000  -0.00000   0.00001   0.00000   1.89205
   A12        1.88498   0.00000   0.00001   0.00001   0.00003   1.88500
   A13        1.89450  -0.00000   0.00000  -0.00002  -0.00002   1.89448
    D1       -1.09595  -0.00000  -0.00106  -0.00007  -0.00113  -1.09708
    D2        1.05874  -0.00000  -0.00118   0.00006  -0.00111   1.05763
    D3        3.08136  -0.00000  -0.00108  -0.00005  -0.00113   3.08023
    D4       -3.11342   0.00000  -0.00003   0.00011   0.00008  -3.11334
    D5       -1.02055   0.00000  -0.00003   0.00010   0.00007  -1.02048
    D6        1.08491  -0.00000  -0.00005   0.00010   0.00005   1.08496
    D7        1.02270   0.00000   0.00006   0.00002   0.00008   1.02278
    D8        3.11557   0.00000   0.00007   0.00000   0.00007   3.11564
    D9       -1.06216   0.00000   0.00004   0.00001   0.00005  -1.06210
   D10       -1.06147   0.00000  -0.00003   0.00011   0.00008  -1.06139
   D11        1.03140   0.00000  -0.00002   0.00009   0.00007   1.03147
   D12        3.13686  -0.00000  -0.00004   0.00010   0.00006   3.13692
         Item               Value     Threshold  Converged?
 Maximum Force            0.000009     0.000450     YES
 RMS     Force            0.000003     0.000300     YES
 Maximum Displacement     0.000901     0.001800     YES
 RMS     Displacement     0.000283     0.001200     YES
 Predicted change in Energy=-5.715021D-09
 Optimization completed.
    -- Stationary point found.
                           ----------------------------
                           !   Optimized Parameters   !
                           ! (Angstroms and Degrees)  !
 --------------------------                            --------------------------
 ! Name  Definition              Value          Derivative Info.                !
 --------------------------------------------------------------------------------
 ! R1    R(1,2)                  1.4299         -DE/DX =    0.0                 !
 ! R2    R(1,9)                  0.9678         -DE/DX =    0.0                 !
 ! R3    R(2,3)                  1.5186         -DE/DX =    0.0                 !
 ! R4    R(2,4)                  1.0983         -DE/DX =    0.0                 !
 ! R5    R(2,5)                  1.0938         -DE/DX =    0.0                 !
 ! R6    R(3,6)                  1.0966         -DE/DX =    0.0                 !
 ! R7    R(3,7)                  1.096          -DE/DX =    0.0                 !
 ! R8    R(3,8)                  1.0969         -DE/DX =    0.0                 !
 ! A1    A(2,1,9)              108.3156         -DE/DX =    0.0                 !
 ! A2    A(1,2,3)              112.5569         -DE/DX =    0.0                 !
 ! A3    A(1,2,4)              109.7028         -DE/DX =    0.0                 !
 ! A4    A(1,2,5)              105.3502         -DE/DX =    0.0                 !
 ! A5    A(3,2,4)              110.4858         -DE/DX =    0.0                 !
 ! A6    A(3,2,5)              110.6434         -DE/DX =    0.0                 !
 ! A7    A(4,2,5)              107.8865         -DE/DX =    0.0                 !
 ! A8    A(2,3,6)              110.0716         -DE/DX =    0.0                 !
 ! A9    A(2,3,7)              110.8285         -DE/DX =    0.0                 !
 ! A10   A(2,3,8)              110.8991         -DE/DX =    0.0                 !
 ! A11   A(6,3,7)              108.4062         -DE/DX =    0.0                 !
 ! A12   A(6,3,8)              108.0014         -DE/DX =    0.0                 !
 ! A13   A(7,3,8)              108.5467         -DE/DX =    0.0                 !
 ! D1    D(9,1,2,3)            -62.7935         -DE/DX =    0.0                 !
 ! D2    D(9,1,2,4)             60.6615         -DE/DX =    0.0                 !
 ! D3    D(9,1,2,5)            176.5491         -DE/DX =    0.0                 !
 ! D4    D(1,2,3,6)           -178.3858         -DE/DX =    0.0                 !
 ! D5    D(1,2,3,7)            -58.4732         -DE/DX =    0.0                 !
 ! D6    D(1,2,3,8)             62.1608         -DE/DX =    0.0                 !
 ! D7    D(4,2,3,6)             58.5962         -DE/DX =    0.0                 !
 ! D8    D(4,2,3,7)            178.5089         -DE/DX =    0.0                 !
 ! D9    D(4,2,3,8)            -60.8572         -DE/DX =    0.0                 !
 ! D10   D(5,2,3,6)            -60.8177         -DE/DX =    0.0                 !
 ! D11   D(5,2,3,7)             59.095          -DE/DX =    0.0                 !
 ! D12   D(5,2,3,8)            179.729          -DE/DX =    0.0                 !
 --------------------------------------------------------------------------------
 GradGradGradGradGradGradGradGradGradGradGradGradGradGradGradGradGradGrad

                          Input orientation:                          
 ---------------------------------------------------------------------
 Center     Atomic      Atomic             Coordinates (Angstroms)
 Number     Number       Type             X           Y           Z
 ---------------------------------------------------------------------
      1          8           0       -1.212811    0.282116   -0.002208
      2          6           0       -0.042438   -0.539224    0.011112
      3          6           0        1.240053    0.273905   -0.002508
      4          1           0       -0.066677   -1.204206    0.884848
      5          1           0       -0.114577   -1.160628   -0.886084
      6          1           0        2.109267   -0.394466   -0.020673
      7          1           0        1.282165    0.920505   -0.886470
      8          1           0        1.314400    0.902456    0.893423
      9          1           0       -1.220282    0.814042    0.806259
 ---------------------------------------------------------------------
                    Distance matrix (angstroms):
                    1          2          3          4          5
     1  O    0.000000
     2  C    1.429878   0.000000
     3  C    2.452878   1.518601   0.000000
     4  H    2.075969   1.098273   2.163274   0.000000
     5  H    2.017143   1.093758   2.161854   1.772116   0.000000
     6  H    3.390325   2.156803   1.096623   2.492062   2.506276
     7  H    2.722933   2.165880   1.096017   3.077554   2.506393
     8  H    2.752049   2.167470   1.096949   2.519022   3.076514
     9  H    0.967790   1.962372   2.645581   2.326006   2.825938
                    6          7          8          9
     6  H    0.000000
     7  H    1.778441   0.000000
     8  H    1.774652   1.780277   0.000000
     9  H    3.637334   3.023062   2.537721   0.000000
 Stoichiometry    C2H6O
 Framework group  C1[X(C2H6O)]
 Deg. of freedom    21
 Full point group                 C1      NOp   1
 Largest Abelian subgroup         C1      NOp   1
 Largest concise Abelian subgroup C1      NOp   1
                         Standard orientation:                         
 ---------------------------------------------------------------------
 Center     Atomic      Atomic             Coordinates (Angstroms)
 Number     Number       Type             X           Y           Z
 ---------------------------------------------------------------------
      1          8           0        1.239181   -0.257799   -0.112544
      2          6           0        0.075840    0.558061    0.047338
      3          6           0       -1.211949   -0.243859   -0.021013
      4          1           0        0.136538    1.107584    0.996308
      5          1           0        0.119593    1.287395   -0.766581
      6          1           0       -2.076553    0.423512    0.077261
      7          1           0       -1.290751   -0.773817   -0.977145
      8          1           0       -1.258004   -0.980119    0.790835
      9          1           0        1.272377   -0.887375    0.621724
 ---------------------------------------------------------------------
 Rotational constants (GHZ):          34.2709497           9.1679938           8.1065869

 **********************************************************************

            Population analysis using the SCF density.

 **********************************************************************

 Orbital symmetries:
       Occupied  (A) (A) (A) (A) (A) (A) (A) (A) (A) (A) (A) (A)
                 (A)
       Virtual   (A) (A) (A) (A) (A) (A) (A) (A) (A) (A) (A) (A)
                 (A) (A) (A) (A) (A) (A) (A) (A) (A) (A) (A) (A)
                 (A) (A) (A) (A) (A) (A) (A) (A) (A) (A) (A) (A)
                 (A) (A) (A) (A) (A) (A) (A) (A) (A) (A) (A) (A)
                 (A) (A) (A) (A) (A) (A) (A) (A)
 The electronic state is 1-A.
 Alpha  occ. eigenvalues --  -19.28000 -10.33726 -10.28055  -1.12260  -0.84037
 Alpha  occ. eigenvalues --   -0.71388  -0.58981  -0.53681  -0.51405  -0.46258
 Alpha  occ. eigenvalues --   -0.44895  -0.40857  -0.36237
 Alpha virt. eigenvalues --    0.08548   0.09867   0.10748   0.11861   0.14320
 Alpha virt. eigenvalues --    0.14796   0.15186   0.20445   0.22461   0.25291
 Alpha virt. eigenvalues --    0.26204   0.28995   0.30142   0.32204   0.33496
 Alpha virt. eigenvalues --    0.34689   0.35827   0.37497   0.40191   0.43046
 Alpha virt. eigenvalues --    0.71582   0.73748   0.73979   0.80705   0.81611
 Alpha virt. eigenvalues --    0.83597   1.02058   1.05846   1.07117   1.12790
 Alpha virt. eigenvalues --    1.15559   1.19493   1.22190   1.27473   1.30646
 Alpha virt. eigenvalues --    1.36477   1.52025   1.56125   1.62559   1.71047
 Alpha virt. eigenvalues --    1.83635   1.90659   2.01350   2.07502   2.19078
 Alpha virt. eigenvalues --    2.24636   2.33331   2.39991   2.46742   2.52159
 Alpha virt. eigenvalues --    2.62602   2.76543   2.96471   4.13964   4.32545
 Alpha virt. eigenvalues --    4.53488
          Condensed to atoms (all electrons):
               1          2          3          4          5          6
     1  O    8.578047   0.140230  -0.072855  -0.050274  -0.059939   0.008370
     2  C    0.140230   5.176620   0.150456   0.396535   0.434340  -0.046487
     3  C   -0.072855   0.150456   5.563116  -0.042046  -0.057840   0.385442
     4  H   -0.050274   0.396535  -0.042046   0.533959  -0.036342  -0.000577
     5  H   -0.059939   0.434340  -0.057840  -0.036342   0.501104  -0.001232
     6  H    0.008370  -0.046487   0.385442  -0.000577  -0.001232   0.475058
     7  H   -0.000121  -0.044991   0.395043   0.003828  -0.005161  -0.023827
     8  H   -0.008290  -0.039732   0.393992  -0.005362   0.003779  -0.024307
     9  H    0.209898   0.002355  -0.015690  -0.005615   0.005267  -0.000072
               7          8          9
     1  O   -0.000121  -0.008290   0.209898
     2  C   -0.044991  -0.039732   0.002355
     3  C    0.395043   0.393992  -0.015690
     4  H    0.003828  -0.005362  -0.005615
     5  H   -0.005161   0.003779   0.005267
     6  H   -0.023827  -0.024307  -0.000072
     7  H    0.478279  -0.028791  -0.000587
     8  H   -0.028791   0.483005   0.003260
     9  H   -0.000587   0.003260   0.285496
 Mulliken charges:
               1
     1  O   -0.745067
     2  C   -0.169326
     3  C   -0.699618
     4  H    0.205893
     5  H    0.216022
     6  H    0.227632
     7  H    0.226329
     8  H    0.222446
     9  H    0.515687
 Sum of Mulliken charges =  -0.00000
 Mulliken charges with hydrogens summed into heavy atoms:
               1
     1  O   -0.229380
     2  C    0.252590
     3  C   -0.023211
 Electronic spatial extent (au):  <R**2>=            195.7163
 Charge=             -0.0000 electrons
 Dipole moment (field-independent basis, Debye):
    X=             -1.7988    Y=             -0.1279    Z=              1.8137  Tot=              2.5577
[...]
 Translational            0.889              2.981             37.406
 Rotational               0.889              2.981             22.361
 Vibrational             51.584              7.426              4.562
 Vibration     1          0.668              1.746              1.662
 Vibration     2          0.691              1.677              1.428
 Vibration     3          0.794              1.398              0.849
                       Q            Log10(Q)             Ln(Q)
 Total Bot       0.323687D-25        -25.489874        -58.692605
 Total V=0       0.466472D+12         11.668826         26.868465
 Vib (Bot)       0.153283D-36        -36.814506        -84.768534
 Vib (Bot)    1  0.746978D+00         -0.126692         -0.291720
 Vib (Bot)    2  0.638716D+00         -0.194693         -0.448296
 Vib (Bot)    3  0.401337D+00         -0.396491         -0.912954
 Vib (V=0)       0.220899D+01          0.344194          0.792536
 Vib (V=0)    1  0.139887D+01          0.145779          0.335668
 Vib (V=0)    2  0.131115D+01          0.117651          0.270901
 Vib (V=0)    3  0.114115D+01          0.057342          0.132035
 Electronic      0.100000D+01          0.000000          0.000000
 Translational   0.122796D+08          7.089183         16.323448
 Rotational      0.171968D+05          4.235449          9.752481
 ***** Axes restored to original set *****
 -------------------------------------------------------------------
 Center     Atomic                   Forces (Hartrees/Bohr)
 Number     Number              X              Y              Z
 -------------------------------------------------------------------
      1        8           0.000009395    0.000012499    0.000023747
      2        6          -0.000004699    0.000003279   -0.000004595
      3        6           0.000003923   -0.000002854   -0.000004322
      4        1          -0.000000821   -0.000005241   -0.000012366
      5        1          -0.000019450    0.000016291   -0.000009695
      6        1          -0.000004927   -0.000011691   -0.000024815
      7        1          -0.000004241    0.000008487    0.000005031
      8        1           0.000014462   -0.000018214   -0.000000921
      9        1           0.000006357   -0.000002556    0.000027936
 -------------------------------------------------------------------
 Cartesian Forces:  Max     0.000027936 RMS     0.000012299
 FormGI is forming the generalized inverse of G from B-inverse, IUseBI=4.

 GradGradGradGradGradGradGradGradGradGradGradGradGradGradGradGradGradGrad
 Berny optimization.
 Internal  Forces:  Max     0.000008587 RMS     0.000002504
 Search for a local minimum.
 Step number   1 out of a maximum of    2
 All quantities printed in internal units (Hartrees-Bohrs-Radians)
 Second derivative matrix not updated -- analytic derivatives used.
 ITU=  0
     Eigenvalues ---    0.00275   0.00296   0.04506   0.04547   0.05000
     Eigenvalues ---    0.06128   0.10349   0.12358   0.12735   0.13378
     Eigenvalues ---    0.16586   0.17779   0.24767   0.30779   0.32832
     Eigenvalues ---    0.34077   0.34245   0.34441   0.34808   0.37825
     Eigenvalues ---    0.52295
 Angle between quadratic step and forces=  65.93 degrees.
 Linear search not attempted -- first point.
 Iteration  1 RMS(Cart)=  0.00026865 RMS(Int)=  0.00000015
 Iteration  2 RMS(Cart)=  0.00000013 RMS(Int)=  0.00000000
 Variable       Old X    -DE/DX   Delta X   Delta X   Delta X     New X
                                 (Linear)    (Quad)   (Total)
    R1        2.70208  -0.00000   0.00000  -0.00001  -0.00001   2.70207
    R2        1.82886  -0.00000   0.00000  -0.00001  -0.00001   1.82885
    R3        2.86974   0.00000   0.00000   0.00001   0.00001   2.86975
    R4        2.07543  -0.00000   0.00000  -0.00001  -0.00001   2.07542
    R5        2.06690  -0.00000   0.00000  -0.00000  -0.00000   2.06690
    R6        2.07232   0.00000   0.00000   0.00000   0.00000   2.07232
    R7        2.07117  -0.00000   0.00000  -0.00000  -0.00000   2.07117
    R8        2.07293  -0.00000   0.00000  -0.00001  -0.00001   2.07292
    A1        1.89046   0.00001   0.00000   0.00004   0.00004   1.89051
    A2        1.96449   0.00001   0.00000   0.00001   0.00001   1.96450
    A3        1.91468  -0.00000   0.00000  -0.00002  -0.00002   1.91466
    A4        1.83871  -0.00000   0.00000   0.00000   0.00000   1.83871
    A5        1.92834   0.00000   0.00000   0.00001   0.00001   1.92835
    A6        1.93109  -0.00000   0.00000  -0.00000  -0.00000   1.93109
    A7        1.88298   0.00000   0.00000  -0.00000  -0.00000   1.88297
    A8        1.92111  -0.00000   0.00000  -0.00002  -0.00002   1.92109
    A9        1.93432   0.00000   0.00000  -0.00000  -0.00000   1.93432
   A10        1.93555   0.00000   0.00000   0.00001   0.00001   1.93557
   A11        1.89205   0.00000   0.00000   0.00000   0.00000   1.89205
   A12        1.88498   0.00000   0.00000   0.00002   0.00002   1.88500
   A13        1.89450  -0.00000   0.00000  -0.00002  -0.00002   1.89448
    D1       -1.09595  -0.00000   0.00000  -0.00109  -0.00109  -1.09704
    D2        1.05874  -0.00000   0.00000  -0.00108  -0.00108   1.05766
    D3        3.08136  -0.00000   0.00000  -0.00109  -0.00109   3.08027
    D4       -3.11342   0.00000   0.00000   0.00007   0.00007  -3.11335
    D5       -1.02055   0.00000   0.00000   0.00006   0.00006  -1.02048
    D6        1.08491  -0.00000   0.00000   0.00005   0.00005   1.08496
    D7        1.02270   0.00000   0.00000   0.00008   0.00008   1.02278
    D8        3.11557   0.00000   0.00000   0.00007   0.00007   3.11564
    D9       -1.06216   0.00000   0.00000   0.00006   0.00006  -1.06210
   D10       -1.06147   0.00000   0.00000   0.00008   0.00008  -1.06139
   D11        1.03140   0.00000   0.00000   0.00007   0.00007   1.03147
   D12        3.13686  -0.00000   0.00000   0.00006   0.00006   3.13692
         Item               Value     Threshold  Converged?
 Maximum Force            0.000009     0.000450     YES
 RMS     Force            0.000003     0.000300     YES
 Maximum Displacement     0.000846     0.001800     YES
 RMS     Displacement     0.000269     0.001200     YES
 Predicted change in Energy=-5.553943D-09
 Optimization completed.
    -- Stationary point found.
                           ----------------------------
                           !   Optimized Parameters   !
                           ! (Angstroms and Degrees)  !
 --------------------------                            --------------------------
 ! Name  Definition              Value          Derivative Info.                !
 --------------------------------------------------------------------------------
 ! R1    R(1,2)                  1.4299         -DE/DX =    0.0                 !
 ! R2    R(1,9)                  0.9678         -DE/DX =    0.0                 !
 ! R3    R(2,3)                  1.5186         -DE/DX =    0.0                 !
 ! R4    R(2,4)                  1.0983         -DE/DX =    0.0                 !
 ! R5    R(2,5)                  1.0938         -DE/DX =    0.0                 !
 ! R6    R(3,6)                  1.0966         -DE/DX =    0.0                 !
 ! R7    R(3,7)                  1.096          -DE/DX =    0.0                 !
 ! R8    R(3,8)                  1.0969         -DE/DX =    0.0                 !
 ! A1    A(2,1,9)              108.3156         -DE/DX =    0.0                 !
 ! A2    A(1,2,3)              112.5569         -DE/DX =    0.0                 !
 ! A3    A(1,2,4)              109.7028         -DE/DX =    0.0                 !
 ! A4    A(1,2,5)              105.3502         -DE/DX =    0.0                 !
 ! A5    A(3,2,4)              110.4858         -DE/DX =    0.0                 !
 ! A6    A(3,2,5)              110.6434         -DE/DX =    0.0                 !
 ! A7    A(4,2,5)              107.8865         -DE/DX =    0.0                 !
 ! A8    A(2,3,6)              110.0716         -DE/DX =    0.0                 !
 ! A9    A(2,3,7)              110.8285         -DE/DX =    0.0                 !
 ! A10   A(2,3,8)              110.8991         -DE/DX =    0.0                 !
 ! A11   A(6,3,7)              108.4062         -DE/DX =    0.0                 !
 ! A12   A(6,3,8)              108.0014         -DE/DX =    0.0                 !
 ! A13   A(7,3,8)              108.5467         -DE/DX =    0.0                 !
 ! D1    D(9,1,2,3)            -62.7935         -DE/DX =    0.0                 !
 ! D2    D(9,1,2,4)             60.6615         -DE/DX =    0.0                 !
 ! D3    D(9,1,2,5)            176.5491         -DE/DX =    0.0                 !
 ! D4    D(1,2,3,6)           -178.3858         -DE/DX =    0.0                 !
 ! D5    D(1,2,3,7)            -58.4732         -DE/DX =    0.0                 !
 ! D6    D(1,2,3,8)             62.1608         -DE/DX =    0.0                 !
 ! D7    D(4,2,3,6)             58.5962         -DE/DX =    0.0                 !
 ! D8    D(4,2,3,7)            178.5089         -DE/DX =    0.0                 !
 ! D9    D(4,2,3,8)            -60.8572         -DE/DX =    0.0                 !
 ! D10   D(5,2,3,6)            -60.8177         -DE/DX =    0.0                 !
 ! D11   D(5,2,3,7)             59.095          -DE/DX =    0.0                 !
 ! D12   D(5,2,3,8)            179.729          -DE/DX =    0.0                 !
 --------------------------------------------------------------------------------
 GradGradGradGradGradGradGradGradGradGradGradGradGradGradGradGradGradGrad


 ----------------------------------------------------------------------

 Electric dipole moment (input orientation):
 (Debye = 10**-18 statcoulomb cm , SI units = C m)
                  (au)            (Debye)         (10**-30 SI)
   Tot        0.100627D+01      0.255769D+01      0.853154D+01
   x          0.733520D+00      0.186442D+01      0.621904D+01
   y         -0.349327D-01     -0.887900D-01     -0.296172D+00
   z          0.687977D+00      0.174866D+01      0.583292D+01

 Dipole polarizability, Alpha (input orientation).
 (esu units = cm**3 , SI units = C**2 m**2 J**-1)
 Alpha(0;0):
               (au)            (10**-24 esu)      (10**-40 SI)
   iso        0.376091D+02      0.557309D+01      0.620090D+01
   aniso      0.223871D+01      0.331742D+00      0.369113D+00
   xx         0.379687D+02      0.562639D+01      0.626020D+01
   yx        -0.102392D+01     -0.151729D+00     -0.168821D+00
   yy         0.380711D+02      0.564156D+01      0.627708D+01
   zx        -0.220405D+00     -0.326607D-01     -0.363399D-01
   zy         0.254203D+00      0.376690D-01      0.419124D-01
   zz         0.367874D+02      0.545133D+01      0.606542D+01

 ----------------------------------------------------------------------

 Dipole orientation:
     8         -1.55752023          0.49814989         -1.69202072
     6         -0.08550846         -1.01873315         -0.00872820
     6          1.61504105          0.55229035          1.68697787
     1         -1.33932597         -2.21783628          1.13036063
     1          1.03943865         -2.25308201         -1.22649880
     1          2.74526588         -0.68634840          2.90470725
     1          2.90553827          1.71651927          0.56050425
     1          0.49489371          1.80011575          2.90568770
     1         -2.66574532          1.55544876         -0.69268047

 Electric dipole moment (dipole orientation):
 (Debye = 10**-18 statcoulomb cm , SI units = C m)
                  (au)            (Debye)         (10**-30 SI)
   Tot        0.100627D+01      0.255769D+01      0.853154D+01
   x          0.000000D+00      0.000000D+00      0.000000D+00
   y          0.000000D+00      0.000000D+00      0.000000D+00
   z          0.100627D+01      0.255769D+01      0.853154D+01

 Dipole polarizability, Alpha (dipole orientation).
 (esu units = cm**3 , SI units = C**2 m**2 J**-1)
 Alpha(0;0):
               (au)            (10**-24 esu)      (10**-40 SI)
   iso        0.376091D+02      0.557309D+01      0.620090D+01
   aniso      0.223871D+01      0.331742D+00      0.369113D+00
   xx         0.375343D+02      0.556201D+01      0.618857D+01
   yx        -0.856927D+00     -0.126984D+00     -0.141288D+00
   yy         0.380562D+02      0.563935D+01      0.627462D+01
   zx         0.624832D+00      0.925906D-01      0.103021D+00
   zy        -0.611380D+00     -0.905971D-01     -0.100803D+00
   zz         0.372367D+02      0.551791D+01      0.613951D+01

 ----------------------------------------------------------------------
 1\1\GINC-SHAS0111\Freq\RwB97XD\6-31+G(d)\C2H6O1\USER\
 04-Feb-2020\0\\#N Geom=AllCheck Guess=TCheck SCRF=Check GenChk RwB97XD
 /6-31+G(d) Freq\\ethanol\\0,1\O,-1.2128113202,0.2821163308,-0.00220751
 06\C,-0.0424379131,-0.539224247,0.0111119761\C,1.2400530125,0.27390495
 6,-0.0025082391\H,-0.0666765582,-1.2042056489,0.8848484829\H,-0.114577
 4878,-1.1606280191,-0.8860835519\H,2.1092665261,-0.3944662789,-0.02067
 28209\H,1.2821648521,0.920504911,-0.8864702264\H,1.3144004068,0.902456
 021,0.8934231905\H,-1.2202815183,0.8140419751,0.8062586994\\Version=ES
 64L-G16RevA.03\State=1-A\HF=-155.0054282\RMSD=2.538e-09\RMSF=1.230e-05
 \ZeroPoint=0.0807855\Thermal=0.0850374\Dipole=0.7335203,-0.0349327,0.6
 879775\DipoleDeriv=-1.2163764,0.2173016,0.0947043,0.3050015,-0.906518,
 0.0966884,0.1583088,0.047283,-0.5392591,1.0216466,-0.2522516,0.0001678
 ,-0.2996468,0.6618165,-0.0567202,-0.071295,-0.0156677,0.4377647,-0.186
 0468,-0.0323648,0.0222427,-0.1096743,0.0275573,-0.0057809,0.0031884,0.
 0083327,0.1124365,-0.0386834,0.0072495,0.0353007,0.0238514,-0.1002474,
 0.1345738,-0.0031568,0.1908526,-0.1204287,0.001721,-0.0310828,-0.05114
 23,0.000945,-0.0286777,-0.1016498,-0.021998,-0.150491,-0.0983607,-0.10
 32796,0.1015352,0.0059452,0.1394295,-0.0187375,-0.001934,0.0052643,-0.
 0024138,0.1118908,0.0693508,-0.0124668,-0.021582,-0.0554779,-0.0189065
 ,0.1251927,0.0159777,0.1463452,-0.0943091,0.065858,-0.0128951,0.019375
 3,-0.0545937,-0.0126058,-0.1228926,-0.0120478,-0.1478409,-0.1031422,0.
 3858099,0.0149746,-0.1050117,0.0501654,0.3963191,-0.0674774,-0.0742416
 ,-0.0764001,0.293408\Polar=37.9687328,-1.0239155,38.0711268,-0.2204053
 ,0.2542029,36.7873934\Quadrupole=-2.2782573,0.9601352,1.3181221,-0.650
 1973,-1.7674352,1.3650099\PG=C01 [X(C2H6O1)]\NImag=0\\0.26475387,-0.13
 134660,0.30204179,0.02806661,0.23766382,0.44562712,-0.16652623,0.08429
 507,0.00388801,0.45298720,0.05981723,-0.12344541,-0.01894182,0.0257874
 5,0.55663666,-0.02850187,0.00332745,-0.09122757,0.00594678,0.01971265,
 0.64438252,-0.04239018,-0.00500838,-0.00031485,-0.16042961,-0.06492282
 ,0.00231295,0.52071581,0.03168604,0.01025962,-0.00108683,-0.07531263,-
 0.13342324,0.00025467,-0.03972803,0.56594854,0.00046467,-0.00138231,0.
 00383647,0.00035288,0.00129992,-0.08690145,0.00113856,-0.00222124,0.58
 434256,-0.01194851,0.02943652,-0.02499619,-0.05007442,-0.01117340,0.01
 368372,-0.00100959,-0.01775887,0.02399428,0.06328750,0.01424782,-0.018
 45668,0.01563097,-0.01153441,-0.13862800,0.11505368,-0.00285140,-0.009
 54403,0.01595320,0.00253201,0.15363527,-0.00371752,0.00079690,0.007001
 76,0.01064479,0.11839022,-0.22466407,-0.00082211,-0.00128781,0.0008960
 6,-0.00832797,-0.13354289,0.23326051,-0.00630560,0.02558450,0.02903069
 ,-0.05058099,-0.01813326,-0.02502740,-0.00216167,-0.01660219,-0.024584
 01,0.00164826,0.00027235,0.00181256,0.06442641,0.00687321,-0.01699732,
 -0.02040976,-0.01316988,-0.13207514,-0.11620296,-0.00291645,-0.0092384
 4,-0.01531814,0.00102199,0.01275362,0.01588897,0.00702606,0.14749312,0
 .00249875,-0.00064763,0.00298709,-0.01719572,-0.12382324,-0.24216217,0
 .00041684,0.00196089,0.00210491,-0.00250544,-0.01417359,-0.02010190,0.
 01770235,0.13555320,0.25234918,-0.00926852,-0.00252095,0.00050349,-0.0
 1543007,0.02131564,0.00040945,-0.21717493,0.12860473,0.00390510,0.0009
 0195,-0.00027953,0.00054163,0.00087421,-0.00001969,-0.00058168,0.23457
 215,-0.00544083,-0.00005276,-0.00005847,-0.01277921,0.01221852,0.00044
 673,0.13108109,-0.15052755,-0.00268552,0.00084954,0.00045929,0.0002597
 3,0.00078054,0.00055431,-0.00021342,-0.14217040,0.15874928,0.00000273,
 0.00007082,0.00147056,0.00019498,-0.00027227,-0.00217803,0.00388929,-0
 .00271795,-0.04778760,-0.00019341,-0.00004953,0.00002678,0.00018638,0.
 00013491,0.00006080,-0.00392618,0.00315635,0.04589109,0.00299676,0.000
 64205,-0.00043804,-0.00194613,-0.01833810,0.02510961,-0.04879299,-0.00
 326937,0.00524009,-0.00475769,-0.00327738,0.00007866,0.00119765,0.0010
 1442,-0.00031964,0.00213357,0.01399209,-0.02198843,0.05014526,0.000468
 00,0.00218696,-0.00122894,0.00157147,-0.01276434,0.01600269,-0.0054057
 4,-0.14094203,0.12615867,-0.00390154,-0.00116147,-0.00020282,0.0007132
 7,0.00036497,-0.00018652,-0.00203195,-0.01058840,0.01510472,0.00811717
 ,0.15033509,0.00080737,-0.00085732,0.00017006,-0.00088210,-0.00080836,
 0.00074045,0.00648269,0.12728422,-0.22715739,-0.00016497,0.00026842,0.
 00152196,0.00054677,-0.00006737,0.00095007,-0.00043243,-0.00192910,0.0
 0178638,-0.00673566,-0.14001124,0.24144606,0.00307237,0.00003325,0.000
 10041,-0.00309238,-0.01769691,-0.02599543,-0.04918036,-0.00794343,-0.0
 1221629,0.00113860,0.00115501,0.00037140,-0.00474935,-0.00320638,0.000
 20617,0.00280504,0.01387040,0.02236265,-0.00091495,0.00053796,0.000525
 96,0.05156517,0.00048713,0.00168753,0.00159047,0.00104321,-0.01221167,
 -0.01660006,-0.00939517,-0.13521461,-0.12299818,0.00065970,0.00038792,
 0.00021313,-0.00372584,-0.00100932,0.00046640,-0.00244106,-0.01053382,
 -0.01550711,0.00109262,0.01266246,0.01604365,0.01279753,0.14391683,-0.
 00102313,0.00108991,0.00080335,0.00098557,0.00112427,0.00110969,-0.012
 56371,-0.12417776,-0.23018553,-0.00063305,-0.00006175,0.00096778,0.000
 39402,-0.00016324,0.00153916,0.00030935,0.00109000,0.00061145,-0.00107
 479,-0.01555757,-0.01941423,0.01422525,0.13690624,0.24501929,-0.034383
 95,-0.00111546,-0.03584014,-0.00490736,0.02334416,0.03206218,0.0004235
 3,0.00032377,0.00170473,0.00081390,-0.00026446,-0.00058143,-0.00434891
 ,0.00337672,-0.00022164,0.00058660,-0.00018322,-0.00052801,-0.00006148
 ,-0.00006866,-0.00014763,-0.00064413,-0.00051813,-0.00061951,0.0425218
 0,0.02320800,-0.15722374,-0.21315946,0.00009894,-0.01630737,-0.0219948
 4,-0.00085311,0.00268175,0.00119361,-0.00166595,0.00055407,-0.00051543
 ,0.00408457,-0.00184579,0.00106391,-0.00045679,-0.00027888,0.00008007,
 0.00002650,-0.00009323,0.00007709,0.00045258,0.00031468,-0.00025010,-0
 .02489473,0.17219851,0.00140240,-0.24006165,-0.37066883,-0.00393519,0.
 00331863,0.00090064,-0.00053966,0.00199180,0.00085197,-0.00085697,0.00
 092150,0.00109113,-0.00006137,0.00058439,0.00227285,-0.00072874,-0.000
 06629,0.00011858,0.00012819,-0.00007900,-0.00004335,0.00041988,-0.0001
 1454,-0.00045096,0.00417144,0.23350515,0.36592797\\-0.00000939,-0.0000
 1250,-0.00002375,0.00000470,-0.00000328,0.00000460,-0.00000392,0.00000
 285,0.00000432,0.00000082,0.00000524,0.00001237,0.00001945,-0.00001629
 ,0.00000970,0.00000493,0.00001169,0.00002482,0.00000424,-0.00000849,-0
 .00000503,-0.00001446,0.00001821,0.00000092,-0.00000636,0.00000256,-0.
 00002794\\\@


 THE VALUE OF PHILOSOPHY IS, IN FACT, TO BE SOUGHT LARGELY IN ITS
 VERY UNCERTAINTY.  THE MAN WHO HAS NO TINCTURE OF PHILOSOPHY GOES
 THROUGH LIFE IMPRISONED IN THE PREJUDICES DERIVED FROM COMMON SENSE,
 FROM THE HABITUAL BELIEFS OF HIS AGE OR HIS NATION, AND FROM
 CONVICTIONS WHICH HAVE GROWN UP IN HIS MIND WITHOUT THE CO-OPERATION
 OR CONSENT OF HIS DELIBERATE REASON.  TO SUCH A MAN THE WORLD TENDS
 TO BE DEFINITE, FINITE, OBVIOUS; COMMON OBJECTS ROUSE NO QUESTIONS,
 AND UNFAMILIAR POSSIBILITIES ARE CONTEMPTUOUSLY REJECTED.

                             -- BERTRAND RUSSELL
 Job cpu time:       0 days  0 hours  5 minutes  2.8 seconds.
 Elapsed time:       0 days  0 hours  0 minutes 13.2 seconds.
 File lengths (MBytes):  RWF=    136 Int=      0 D2E=      0 Chk=     16 Scr=     16
 Normal termination of Gaussian 16 at Tue Feb  4 11:40:29 2020.
