Job Start Time: Fri Mar 16 10:28:45 MDT 2018
SLURM Job ID: 698143
SLURM Job Name: Int3_Pyrax_SMD_b_2
 Entering Gaussian System, Link 0=/projects/user/g16/g16
 Initial command:
 /projects/user/g16/l1.exe "/gpfs/summit/scratch/user/698143/Gau-159217.inp" -scrdir="/gpfs/summit/scratch/user/698143/"
 Entering Link 1 = /projects/user/g16/l1.exe PID=    159220.
  
 Copyright (c) 1988,1990,1992,1993,1995,1998,2003,2009,2016,
            Gaussian, Inc.  All Rights Reserved.
  
 This is part of the Gaussian(R) 16 program.  It is based on
 the Gaussian(R) 09 system (copyright 2009, Gaussian, Inc.),
 the Gaussian(R) 03 system (copyright 2003, Gaussian, Inc.),
 the Gaussian(R) 98 system (copyright 1998, Gaussian, Inc.),
 the Gaussian(R) 94 system (copyright 1995, Gaussian, Inc.),
 the Gaussian 92(TM) system (copyright 1992, Gaussian, Inc.),
 the Gaussian 90(TM) system (copyright 1990, Gaussian, Inc.),
 the Gaussian 88(TM) system (copyright 1988, Gaussian, Inc.),
 the Gaussian 86(TM) system (copyright 1986, Carnegie Mellon
 University), and the Gaussian 82(TM) system (copyright 1983,
 Carnegie Mellon University). Gaussian is a federally registered
 trademark of Gaussian, Inc.
  
 This software contains proprietary and confidential information,
 including trade secrets, belonging to Gaussian, Inc.
  
 This software is provided under written license and may be
 used, copied, transmitted, or stored only in accord with that
 written license.
  
 The following legend is applicable only to US Government
 contracts under FAR:
  
                    RESTRICTED RIGHTS LEGEND
  
 Use, reproduction and disclosure by the US Government is
 subject to restrictions as set forth in subparagraphs (a)
 and (c) of the Commercial Computer Software - Restricted
 Rights clause in FAR 52.227-19.
  
 Gaussian, Inc.
 340 Quinnipiac St., Bldg. 40, Wallingford CT 06492
  
  
 ---------------------------------------------------------------
 Warning -- This program may not be used in any manner that
 competes with the business of Gaussian, Inc. or will provide
 assistance to any competitor of Gaussian, Inc.  The licensee
 of this program is prohibited from giving any competitor of
 Gaussian, Inc. access to this program.  By using this program,
 the user acknowledges that Gaussian, Inc. is engaged in the
 business of creating and licensing software in the field of
 computational chemistry and represents and warrants to the
 licensee that it is not a competitor of Gaussian, Inc. and that
 it will not use this program in any manner prohibited above.
 ---------------------------------------------------------------
  

 Cite this work as:
 Gaussian 16, Revision A.03,
 M. J. Frisch, G. W. Trucks, H. B. Schlegel, G. E. Scuseria, 
 M. A. Robb, J. R. Cheeseman, G. Scalmani, V. Barone, 
 G. A. Petersson, H. Nakatsuji, X. Li, M. Caricato, A. V. Marenich, 
 J. Bloino, B. G. Janesko, R. Gomperts, B. Mennucci, H. P. Hratchian, 
 J. V. Ortiz, A. F. Izmaylov, J. L. Sonnenberg, D. Williams-Young, 
 F. Ding, F. Lipparini, F. Egidi, J. Goings, B. Peng, A. Petrone, 
 T. Henderson, D. Ranasinghe, V. G. Zakrzewski, J. Gao, N. Rega, 
 G. Zheng, W. Liang, M. Hada, M. Ehara, K. Toyota, R. Fukuda, 
 J. Hasegawa, M. Ishida, T. Nakajima, Y. Honda, O. Kitao, H. Nakai, 
 T. Vreven, K. Throssell, J. A. Montgomery, Jr., J. E. Peralta, 
 F. Ogliaro, M. J. Bearpark, J. J. Heyd, E. N. Brothers, K. N. Kudin, 
 V. N. Staroverov, T. A. Keith, R. Kobayashi, J. Normand, 
 K. Raghavachari, A. P. Rendell, J. C. Burant, S. S. Iyengar, 
 J. Tomasi, M. Cossi, J. M. Millam, M. Klene, C. Adamo, R. Cammi, 
 J. W. Ochterski, R. L. Martin, K. Morokuma, O. Farkas, 
 J. B. Foresman, and D. J. Fox, Gaussian, Inc., Wallingford CT, 2016.
 
 ******************************************
 Gaussian 16:  ES64L-G16RevA.03 25-Dec-2016
                16-Mar-2018 
 ******************************************
 %mem=98GB
 %nprocshared=24
 Will use up to   24 processors via shared memory.
 %chk=Int3_SNdcdgy.chk
 ----------------------------------------------------------------------
 # opt=maxcycles=200 freq=noraman wb97xd/6-31+g(d) scrf=(solvent=ethano
 l,smd) geom=connectivity
 ----------------------------------------------------------------------
 1/6=200,18=20,19=15,26=3,38=1,57=2/1,3;
 2/9=110,12=2,17=6,18=5,40=1/2;
 3/5=1,6=6,7=11,11=2,25=1,30=1,70=32201,71=1,72=4,74=-58/1,2,3;
 4//1;
 5/5=2,38=5,53=4/2;
 6/7=2,8=2,9=2,10=2,28=1/1;
 7//1,2,3,16;
 1/6=200,18=20,19=15,26=3/3(2);
 2/9=110/2;
 99//99;
 2/9=110/2;
 3/5=1,6=6,7=11,11=2,25=1,30=1,70=32205,71=1,72=4,74=-58/1,2,3;
 4/5=5,16=3,69=1/1;
 5/5=2,38=5,53=4/2;
 7//1,2,3,16;
 1/6=200,18=20,19=15,26=3/3(-5);
 2/9=110/2;
 6/7=2,8=2,9=2,10=2,19=2,28=1/1;
 99/9=1/99;
 -------------------
 Title Card Required
 -------------------
 Symbolic Z-matrix:
 Charge =  2 Multiplicity = 1
 C                    -2.22141   3.47296  -0.57509 
 C                    -1.21031   2.54471  -0.70329 
 C                    -1.4188    1.23394  -0.26141 
 C                    -2.66131   0.89126   0.27832 
 C                    -3.64813   1.85134   0.37498 
 H                    -2.13307   4.50583  -0.88717 
 H                    -0.2769    2.85653  -1.1577 
 H                    -2.88455  -0.11129   0.62315 
 H                    -4.63507   1.65986   0.77686 
 P                    -0.08832  -0.03279  -0.5055 
 C                    -0.55304  -1.81062  -0.32691 
 C                    -0.27942  -2.70866  -1.3659 
 C                    -1.18419  -2.28658   0.82979 
 C                    -0.60322  -4.05692  -1.23747 
 H                     0.17884  -2.3596   -2.28428 
 C                    -1.54184  -3.62764   0.94019 
 H                    -1.41212  -1.62131   1.6572 
 H                    -0.36638  -4.74286  -2.04579 
 H                    -2.04832  -3.97446   1.83639 
 C                     0.45793   0.03936   1.4 
 C                     1.47881  -0.84261   1.79625 
 C                    -0.02711   0.92564   2.36698 
 C                     1.96503  -0.82912   3.08201 
 H                     1.90855  -1.5551    1.09806 
 C                     0.48596   0.91473   3.65123 
 H                    -0.80497   1.64965   2.15438 
 H                     2.74789  -1.48438   3.44281 
 H                     0.15011   1.57736   4.43933 
 O                    -0.44593  -0.00675  -2.21743 
 C                     1.61064   0.5252   -0.9548 
 C                     2.15566   1.66378  -0.35036 
 C                     2.37873  -0.19514  -1.87517 
 C                     3.4413    2.08758  -0.67829 
 H                     1.58603   2.23385   0.37892 
 C                     3.67789   0.21098  -2.17247 
 H                     1.9773   -1.07646  -2.36212 
 H                     3.84393   2.98431  -0.21576 
 H                     4.27063  -0.36743  -2.87569 
 C                    -1.73551  -0.27227  -2.74431 
 H                    -2.29048   0.66383  -2.89117 
 H                    -1.60927  -0.76328  -3.71483 
 H                    -2.33035  -0.93398  -2.10116 
 C                     4.20946   1.35629  -1.58227 
 H                     5.2186    1.67711  -1.82552 
 N                     1.45552   0.04635   3.97046 
 H                     1.82384   0.04971   4.91958 
 N                    -3.39818   3.10118  -0.04365 
 C                    -1.24061  -4.51894  -0.08774 
 H                    -1.50548  -5.56853   0.00539 
 H                    -4.13682   3.7982    0.03791 
 
 Add virtual bond connecting atoms C20        and P10        Dist= 3.75D+00.

 GradGradGradGradGradGradGradGradGradGradGradGradGradGradGradGradGradGrad
 Berny optimization.
 Initialization pass.
                           ----------------------------
                           !    Initial Parameters    !
                           ! (Angstroms and Degrees)  !
 --------------------------                            --------------------------
 ! Name  Definition              Value          Derivative Info.                !
 --------------------------------------------------------------------------------
 ! R1    R(1,2)                  1.3786         estimate D2E/DX2                !
 ! R2    R(1,6)                  1.0826         estimate D2E/DX2                !
 ! R3    R(1,47)                 1.3437         estimate D2E/DX2                !
 ! R4    R(2,3)                  1.3989         estimate D2E/DX2                !
 ! R5    R(2,7)                  1.084          estimate D2E/DX2                !
 ! R6    R(3,4)                  1.3973         estimate D2E/DX2                !
 ! R7    R(3,10)                 1.8532         estimate D2E/DX2                !
 ! R8    R(4,5)                  1.3802         estimate D2E/DX2                !
 ! R9    R(4,8)                  1.0834         estimate D2E/DX2                !
 ! R10   R(5,9)                  1.0827         estimate D2E/DX2                !
 ! R11   R(5,47)                 1.3416         estimate D2E/DX2                !
 ! R12   R(10,11)                1.8462         estimate D2E/DX2                !
 ! R13   R(10,20)                1.9836         estimate D2E/DX2                !
 ! R14   R(10,29)                1.7491         estimate D2E/DX2                !
 ! R15   R(10,30)                1.8438         estimate D2E/DX2                !
 ! R16   R(11,12)                1.4003         estimate D2E/DX2                !
 ! R17   R(11,13)                1.401          estimate D2E/DX2                !
 ! R18   R(12,14)                1.3925         estimate D2E/DX2                !
 ! R19   R(12,15)                1.0841         estimate D2E/DX2                !
 ! R20   R(13,16)                1.3923         estimate D2E/DX2                !
 ! R21   R(13,17)                1.0859         estimate D2E/DX2                !
 ! R22   R(14,18)                1.0863         estimate D2E/DX2                !
 ! R23   R(14,48)                1.3934         estimate D2E/DX2                !
 ! R24   R(16,19)                1.0863         estimate D2E/DX2                !
 ! R25   R(16,48)                1.3935         estimate D2E/DX2                !
 ! R26   R(20,21)                1.4061         estimate D2E/DX2                !
 ! R27   R(20,22)                1.3985         estimate D2E/DX2                !
 ! R28   R(21,23)                1.3747         estimate D2E/DX2                !
 ! R29   R(21,24)                1.0862         estimate D2E/DX2                !
 ! R30   R(22,25)                1.383          estimate D2E/DX2                !
 ! R31   R(22,26)                1.0837         estimate D2E/DX2                !
 ! R32   R(23,27)                1.0828         estimate D2E/DX2                !
 ! R33   R(23,45)                1.3474         estimate D2E/DX2                !
 ! R34   R(25,28)                1.083          estimate D2E/DX2                !
 ! R35   R(25,45)                1.3402         estimate D2E/DX2                !
 ! R36   R(29,39)                1.4181         estimate D2E/DX2                !
 ! R37   R(30,31)                1.3996         estimate D2E/DX2                !
 ! R38   R(30,32)                1.3985         estimate D2E/DX2                !
 ! R39   R(31,33)                1.3928         estimate D2E/DX2                !
 ! R40   R(31,34)                1.0869         estimate D2E/DX2                !
 ! R41   R(32,35)                1.3933         estimate D2E/DX2                !
 ! R42   R(32,36)                1.084          estimate D2E/DX2                !
 ! R43   R(33,37)                1.0864         estimate D2E/DX2                !
 ! R44   R(33,43)                1.3936         estimate D2E/DX2                !
 ! R45   R(35,38)                1.0865         estimate D2E/DX2                !
 ! R46   R(35,43)                1.3938         estimate D2E/DX2                !
 ! R47   R(39,40)                1.0981         estimate D2E/DX2                !
 ! R48   R(39,41)                1.095          estimate D2E/DX2                !
 ! R49   R(39,42)                1.0979         estimate D2E/DX2                !
 ! R50   R(43,44)                1.0865         estimate D2E/DX2                !
 ! R51   R(45,46)                1.0181         estimate D2E/DX2                !
 ! R52   R(47,50)                1.0189         estimate D2E/DX2                !
 ! R53   R(48,49)                1.0865         estimate D2E/DX2                !
 ! A1    A(2,1,6)              123.7629         estimate D2E/DX2                !
 ! A2    A(2,1,47)             119.5266         estimate D2E/DX2                !
 ! A3    A(6,1,47)             116.7091         estimate D2E/DX2                !
 ! A4    A(1,2,3)              119.4884         estimate D2E/DX2                !
 ! A5    A(1,2,7)              118.4816         estimate D2E/DX2                !
 ! A6    A(3,2,7)              122.0262         estimate D2E/DX2                !
 ! A7    A(2,3,4)              118.9687         estimate D2E/DX2                !
 ! A8    A(2,3,10)             119.4639         estimate D2E/DX2                !
 ! A9    A(4,3,10)             121.4417         estimate D2E/DX2                !
 ! A10   A(3,4,5)              119.487          estimate D2E/DX2                !
 ! A11   A(3,4,8)              122.2137         estimate D2E/DX2                !
 ! A12   A(5,4,8)              118.2985         estimate D2E/DX2                !
 ! A13   A(4,5,9)              123.6922         estimate D2E/DX2                !
 ! A14   A(4,5,47)             119.537          estimate D2E/DX2                !
 ! A15   A(9,5,47)             116.7708         estimate D2E/DX2                !
 ! A16   A(3,10,11)            117.6946         estimate D2E/DX2                !
 ! A17   A(3,10,20)             92.655          estimate D2E/DX2                !
 ! A18   A(3,10,29)             88.3927         estimate D2E/DX2                !
 ! A19   A(3,10,30)            119.1285         estimate D2E/DX2                !
 ! A20   A(11,10,20)            90.6543         estimate D2E/DX2                !
 ! A21   A(11,10,29)            93.2995         estimate D2E/DX2                !
 ! A22   A(11,10,30)           123.1562         estimate D2E/DX2                !
 ! A23   A(20,10,30)            88.2422         estimate D2E/DX2                !
 ! A24   A(29,10,30)            86.8692         estimate D2E/DX2                !
 ! A25   A(10,11,12)           119.7756         estimate D2E/DX2                !
 ! A26   A(10,11,13)           121.359          estimate D2E/DX2                !
 ! A27   A(12,11,13)           118.8646         estimate D2E/DX2                !
 ! A28   A(11,12,14)           120.4685         estimate D2E/DX2                !
 ! A29   A(11,12,15)           120.3085         estimate D2E/DX2                !
 ! A30   A(14,12,15)           119.2204         estimate D2E/DX2                !
 ! A31   A(11,13,16)           120.5573         estimate D2E/DX2                !
 ! A32   A(11,13,17)           121.0326         estimate D2E/DX2                !
 ! A33   A(16,13,17)           118.4089         estimate D2E/DX2                !
 ! A34   A(12,14,18)           119.4762         estimate D2E/DX2                !
 ! A35   A(12,14,48)           120.2314         estimate D2E/DX2                !
 ! A36   A(18,14,48)           120.2879         estimate D2E/DX2                !
 ! A37   A(13,16,19)           119.5185         estimate D2E/DX2                !
 ! A38   A(13,16,48)           120.1361         estimate D2E/DX2                !
 ! A39   A(19,16,48)           120.343          estimate D2E/DX2                !
 ! A40   A(10,20,21)           116.6057         estimate D2E/DX2                !
 ! A41   A(10,20,22)           126.2822         estimate D2E/DX2                !
 ! A42   A(21,20,22)           117.0311         estimate D2E/DX2                !
 ! A43   A(20,21,23)           120.945          estimate D2E/DX2                !
 ! A44   A(20,21,24)           121.169          estimate D2E/DX2                !
 ! A45   A(23,21,24)           117.886          estimate D2E/DX2                !
 ! A46   A(20,22,25)           120.5572         estimate D2E/DX2                !
 ! A47   A(20,22,26)           122.4582         estimate D2E/DX2                !
 ! A48   A(25,22,26)           116.9831         estimate D2E/DX2                !
 ! A49   A(21,23,27)           124.1556         estimate D2E/DX2                !
 ! A50   A(21,23,45)           119.2994         estimate D2E/DX2                !
 ! A51   A(27,23,45)           116.5449         estimate D2E/DX2                !
 ! A52   A(22,25,28)           123.7693         estimate D2E/DX2                !
 ! A53   A(22,25,45)           119.6505         estimate D2E/DX2                !
 ! A54   A(28,25,45)           116.5802         estimate D2E/DX2                !
 ! A55   A(10,29,39)           123.1456         estimate D2E/DX2                !
 ! A56   A(10,30,31)           119.9855         estimate D2E/DX2                !
 ! A57   A(10,30,32)           120.7001         estimate D2E/DX2                !
 ! A58   A(31,30,32)           119.2989         estimate D2E/DX2                !
 ! A59   A(30,31,33)           120.3514         estimate D2E/DX2                !
 ! A60   A(30,31,34)           120.8229         estimate D2E/DX2                !
 ! A61   A(33,31,34)           118.8256         estimate D2E/DX2                !
 ! A62   A(30,32,35)           120.1592         estimate D2E/DX2                !
 ! A63   A(30,32,36)           120.7317         estimate D2E/DX2                !
 ! A64   A(35,32,36)           119.1083         estimate D2E/DX2                !
 ! A65   A(31,33,37)           119.5391         estimate D2E/DX2                !
 ! A66   A(31,33,43)           120.1219         estimate D2E/DX2                !
 ! A67   A(37,33,43)           120.3351         estimate D2E/DX2                !
 ! A68   A(32,35,38)           119.449          estimate D2E/DX2                !
 ! A69   A(32,35,43)           120.318          estimate D2E/DX2                !
 ! A70   A(38,35,43)           120.2306         estimate D2E/DX2                !
 ! A71   A(29,39,40)           110.4656         estimate D2E/DX2                !
 ! A72   A(29,39,41)           107.9641         estimate D2E/DX2                !
 ! A73   A(29,39,42)           112.8241         estimate D2E/DX2                !
 ! A74   A(40,39,41)           108.7835         estimate D2E/DX2                !
 ! A75   A(40,39,42)           108.561          estimate D2E/DX2                !
 ! A76   A(41,39,42)           108.1458         estimate D2E/DX2                !
 ! A77   A(33,43,35)           119.7141         estimate D2E/DX2                !
 ! A78   A(33,43,44)           120.1486         estimate D2E/DX2                !
 ! A79   A(35,43,44)           120.1373         estimate D2E/DX2                !
 ! A80   A(23,45,25)           122.5159         estimate D2E/DX2                !
 ! A81   A(23,45,46)           118.6896         estimate D2E/DX2                !
 ! A82   A(25,45,46)           118.7942         estimate D2E/DX2                !
 ! A83   A(1,47,5)             122.9807         estimate D2E/DX2                !
 ! A84   A(1,47,50)            118.5087         estimate D2E/DX2                !
 ! A85   A(5,47,50)            118.5085         estimate D2E/DX2                !
 ! A86   A(14,48,16)           119.7006         estimate D2E/DX2                !
 ! A87   A(14,48,49)           120.1687         estimate D2E/DX2                !
 ! A88   A(16,48,49)           120.1301         estimate D2E/DX2                !
 ! A89   L(20,10,29,3,-1)      181.0476         estimate D2E/DX2                !
 ! A90   L(20,10,29,3,-2)      174.9821         estimate D2E/DX2                !
 ! D1    D(6,1,2,3)            179.5854         estimate D2E/DX2                !
 ! D2    D(6,1,2,7)             -1.1132         estimate D2E/DX2                !
 ! D3    D(47,1,2,3)            -0.8589         estimate D2E/DX2                !
 ! D4    D(47,1,2,7)           178.4425         estimate D2E/DX2                !
 ! D5    D(2,1,47,5)            -0.1135         estimate D2E/DX2                !
 ! D6    D(2,1,47,50)         -179.5854         estimate D2E/DX2                !
 ! D7    D(6,1,47,5)           179.4731         estimate D2E/DX2                !
 ! D8    D(6,1,47,50)            0.0012         estimate D2E/DX2                !
 ! D9    D(1,2,3,4)              1.1896         estimate D2E/DX2                !
 ! D10   D(1,2,3,10)           177.1742         estimate D2E/DX2                !
 ! D11   D(7,2,3,4)           -178.0861         estimate D2E/DX2                !
 ! D12   D(7,2,3,10)            -2.1016         estimate D2E/DX2                !
 ! D13   D(2,3,4,5)             -0.5823         estimate D2E/DX2                !
 ! D14   D(2,3,4,8)            179.0944         estimate D2E/DX2                !
 ! D15   D(10,3,4,5)          -176.4844         estimate D2E/DX2                !
 ! D16   D(10,3,4,8)             3.1923         estimate D2E/DX2                !
 ! D17   D(2,3,10,11)         -164.1956         estimate D2E/DX2                !
 ! D18   D(2,3,10,20)          103.6696         estimate D2E/DX2                !
 ! D19   D(2,3,10,29)          -71.3125         estimate D2E/DX2                !
 ! D20   D(2,3,10,30)           14.2033         estimate D2E/DX2                !
 ! D21   D(4,3,10,11)           11.6866         estimate D2E/DX2                !
 ! D22   D(4,3,10,20)          -80.4482         estimate D2E/DX2                !
 ! D23   D(4,3,10,29)          104.5697         estimate D2E/DX2                !
 ! D24   D(4,3,10,30)         -169.9145         estimate D2E/DX2                !
 ! D25   D(3,4,5,9)            179.7046         estimate D2E/DX2                !
 ! D26   D(3,4,5,47)            -0.3635         estimate D2E/DX2                !
 ! D27   D(8,4,5,9)              0.0153         estimate D2E/DX2                !
 ! D28   D(8,4,5,47)           179.9472         estimate D2E/DX2                !
 ! D29   D(4,5,47,1)             0.7338         estimate D2E/DX2                !
 ! D30   D(4,5,47,50)         -179.7943         estimate D2E/DX2                !
 ! D31   D(9,5,47,1)          -179.3297         estimate D2E/DX2                !
 ! D32   D(9,5,47,50)            0.1422         estimate D2E/DX2                !
 ! D33   D(3,10,11,12)         125.4341         estimate D2E/DX2                !
 ! D34   D(3,10,11,13)         -54.2436         estimate D2E/DX2                !
 ! D35   D(20,10,11,12)       -141.223          estimate D2E/DX2                !
 ! D36   D(20,10,11,13)         39.0994         estimate D2E/DX2                !
 ! D37   D(29,10,11,12)         35.5184         estimate D2E/DX2                !
 ! D38   D(29,10,11,13)       -144.1593         estimate D2E/DX2                !
 ! D39   D(30,10,11,12)        -52.8952         estimate D2E/DX2                !
 ! D40   D(30,10,11,13)        127.4271         estimate D2E/DX2                !
 ! D41   D(3,10,20,21)         177.2729         estimate D2E/DX2                !
 ! D42   D(3,10,20,22)          -6.1147         estimate D2E/DX2                !
 ! D43   D(11,10,20,21)         59.5097         estimate D2E/DX2                !
 ! D44   D(11,10,20,22)       -123.8779         estimate D2E/DX2                !
 ! D45   D(30,10,20,21)        -63.6425         estimate D2E/DX2                !
 ! D46   D(30,10,20,22)        112.9698         estimate D2E/DX2                !
 ! D47   D(21,20,29,39)        122.3451         estimate D2E/DX2                !
 ! D48   D(22,20,29,39)        -63.9808         estimate D2E/DX2                !
 ! D49   D(3,10,29,39)         -56.6107         estimate D2E/DX2                !
 ! D50   D(11,10,29,39)         61.0411         estimate D2E/DX2                !
 ! D51   D(30,10,29,39)       -175.9003         estimate D2E/DX2                !
 ! D52   D(3,10,30,31)          40.3443         estimate D2E/DX2                !
 ! D53   D(3,10,30,32)        -141.0968         estimate D2E/DX2                !
 ! D54   D(11,10,30,31)       -141.3491         estimate D2E/DX2                !
 ! D55   D(11,10,30,32)         37.2098         estimate D2E/DX2                !
 ! D56   D(20,10,30,31)        -51.7159         estimate D2E/DX2                !
 ! D57   D(20,10,30,32)        126.8429         estimate D2E/DX2                !
 ! D58   D(29,10,30,31)        126.7531         estimate D2E/DX2                !
 ! D59   D(29,10,30,32)        -54.6881         estimate D2E/DX2                !
 ! D60   D(10,11,12,14)        178.9117         estimate D2E/DX2                !
 ! D61   D(10,11,12,15)         -1.6785         estimate D2E/DX2                !
 ! D62   D(13,11,12,14)         -1.4025         estimate D2E/DX2                !
 ! D63   D(13,11,12,15)        178.0072         estimate D2E/DX2                !
 ! D64   D(10,11,13,16)        179.2234         estimate D2E/DX2                !
 ! D65   D(10,11,13,17)         -0.3751         estimate D2E/DX2                !
 ! D66   D(12,11,13,16)         -0.4572         estimate D2E/DX2                !
 ! D67   D(12,11,13,17)        179.9444         estimate D2E/DX2                !
 ! D68   D(11,12,14,18)       -178.8279         estimate D2E/DX2                !
 ! D69   D(11,12,14,48)          1.9466         estimate D2E/DX2                !
 ! D70   D(15,12,14,18)          1.756          estimate D2E/DX2                !
 ! D71   D(15,12,14,48)       -177.4695         estimate D2E/DX2                !
 ! D72   D(11,13,16,19)       -178.7823         estimate D2E/DX2                !
 ! D73   D(11,13,16,48)          1.7827         estimate D2E/DX2                !
 ! D74   D(17,13,16,19)          0.8265         estimate D2E/DX2                !
 ! D75   D(17,13,16,48)       -178.6085         estimate D2E/DX2                !
 ! D76   D(12,14,48,16)         -0.612          estimate D2E/DX2                !
 ! D77   D(12,14,48,49)        179.1284         estimate D2E/DX2                !
 ! D78   D(18,14,48,16)       -179.8312         estimate D2E/DX2                !
 ! D79   D(18,14,48,49)         -0.0908         estimate D2E/DX2                !
 ! D80   D(13,16,48,14)         -1.2432         estimate D2E/DX2                !
 ! D81   D(13,16,48,49)        179.0163         estimate D2E/DX2                !
 ! D82   D(19,16,48,14)        179.3265         estimate D2E/DX2                !
 ! D83   D(19,16,48,49)         -0.414          estimate D2E/DX2                !
 ! D84   D(10,20,21,23)        177.2665         estimate D2E/DX2                !
 ! D85   D(10,20,21,24)         -2.7072         estimate D2E/DX2                !
 ! D86   D(22,20,21,23)          0.3319         estimate D2E/DX2                !
 ! D87   D(22,20,21,24)       -179.6419         estimate D2E/DX2                !
 ! D88   D(10,20,22,25)       -176.8111         estimate D2E/DX2                !
 ! D89   D(10,20,22,26)          2.7312         estimate D2E/DX2                !
 ! D90   D(21,20,22,25)         -0.2115         estimate D2E/DX2                !
 ! D91   D(21,20,22,26)        179.3309         estimate D2E/DX2                !
 ! D92   D(20,21,23,27)        179.9382         estimate D2E/DX2                !
 ! D93   D(20,21,23,45)         -0.1978         estimate D2E/DX2                !
 ! D94   D(24,21,23,27)         -0.0872         estimate D2E/DX2                !
 ! D95   D(24,21,23,45)        179.7768         estimate D2E/DX2                !
 ! D96   D(20,22,25,28)        179.9424         estimate D2E/DX2                !
 ! D97   D(20,22,25,45)         -0.0422         estimate D2E/DX2                !
 ! D98   D(26,22,25,28)          0.3758         estimate D2E/DX2                !
 ! D99   D(26,22,25,45)       -179.6089         estimate D2E/DX2                !
 ! D100  D(21,23,45,25)         -0.0734         estimate D2E/DX2                !
 ! D101  D(21,23,45,46)       -179.8692         estimate D2E/DX2                !
 ! D102  D(27,23,45,25)        179.8008         estimate D2E/DX2                !
 ! D103  D(27,23,45,46)          0.0051         estimate D2E/DX2                !
 ! D104  D(22,25,45,23)          0.1933         estimate D2E/DX2                !
 ! D105  D(22,25,45,46)        179.9889         estimate D2E/DX2                !
 ! D106  D(28,25,45,23)       -179.7924         estimate D2E/DX2                !
 ! D107  D(28,25,45,46)          0.0031         estimate D2E/DX2                !
 ! D108  D(10,29,39,40)         94.0754         estimate D2E/DX2                !
 ! D109  D(10,29,39,41)       -147.0889         estimate D2E/DX2                !
 ! D110  D(10,29,39,42)        -27.6389         estimate D2E/DX2                !
 ! D111  D(10,30,31,33)        179.6227         estimate D2E/DX2                !
 ! D112  D(10,30,31,34)         -0.5374         estimate D2E/DX2                !
 ! D113  D(32,30,31,33)          1.0437         estimate D2E/DX2                !
 ! D114  D(32,30,31,34)       -179.1165         estimate D2E/DX2                !
 ! D115  D(10,30,32,35)       -177.8222         estimate D2E/DX2                !
 ! D116  D(10,30,32,36)          1.8515         estimate D2E/DX2                !
 ! D117  D(31,30,32,35)          0.7465         estimate D2E/DX2                !
 ! D118  D(31,30,32,36)       -179.5798         estimate D2E/DX2                !
 ! D119  D(30,31,33,37)        178.7956         estimate D2E/DX2                !
 ! D120  D(30,31,33,43)         -1.9245         estimate D2E/DX2                !
 ! D121  D(34,31,33,37)         -1.0475         estimate D2E/DX2                !
 ! D122  D(34,31,33,43)        178.2325         estimate D2E/DX2                !
 ! D123  D(30,32,35,38)        178.9008         estimate D2E/DX2                !
 ! D124  D(30,32,35,43)         -1.6668         estimate D2E/DX2                !
 ! D125  D(36,32,35,38)         -0.7782         estimate D2E/DX2                !
 ! D126  D(36,32,35,43)        178.6543         estimate D2E/DX2                !
 ! D127  D(31,33,43,35)          1.0032         estimate D2E/DX2                !
 ! D128  D(31,33,43,44)       -178.9581         estimate D2E/DX2                !
 ! D129  D(37,33,43,35)       -179.7226         estimate D2E/DX2                !
 ! D130  D(37,33,43,44)          0.316          estimate D2E/DX2                !
 ! D131  D(32,35,43,33)          0.7889         estimate D2E/DX2                !
 ! D132  D(32,35,43,44)       -179.2497         estimate D2E/DX2                !
 ! D133  D(38,35,43,33)       -179.7831         estimate D2E/DX2                !
 ! D134  D(38,35,43,44)          0.1783         estimate D2E/DX2                !
 --------------------------------------------------------------------------------
 Trust Radius=3.00D-01 FncErr=1.00D-07 GrdErr=1.00D-06 EigMax=2.50D+02 EigMin=1.00D-04
 Number of steps in this run=    200 maximum allowed number of steps=    300.
 GradGradGradGradGradGradGradGradGradGradGradGradGradGradGradGradGradGrad

                          Input orientation:                          
 ---------------------------------------------------------------------
 Center     Atomic      Atomic             Coordinates (Angstroms)
 Number     Number       Type             X           Y           Z
 ---------------------------------------------------------------------
      1          6           0       -2.221411    3.472958   -0.575087
      2          6           0       -1.210309    2.544714   -0.703290
      3          6           0       -1.418804    1.233937   -0.261411
      4          6           0       -2.661312    0.891258    0.278321
      5          6           0       -3.648133    1.851338    0.374979
      6          1           0       -2.133068    4.505832   -0.887171
      7          1           0       -0.276895    2.856526   -1.157705
      8          1           0       -2.884554   -0.111285    0.623152
      9          1           0       -4.635074    1.659858    0.776855
     10         15           0       -0.088322   -0.032793   -0.505501
     11          6           0       -0.553039   -1.810617   -0.326912
     12          6           0       -0.279424   -2.708658   -1.365903
     13          6           0       -1.184191   -2.286576    0.829790
     14          6           0       -0.603221   -4.056920   -1.237471
     15          1           0        0.178838   -2.359595   -2.284280
     16          6           0       -1.541836   -3.627642    0.940188
     17          1           0       -1.412118   -1.621312    1.657204
     18          1           0       -0.366382   -4.742862   -2.045789
     19          1           0       -2.048321   -3.974458    1.836385
     20          6           0        0.457931    0.039355    1.399999
     21          6           0        1.478809   -0.842614    1.796245
     22          6           0       -0.027113    0.925642    2.366979
     23          6           0        1.965028   -0.829115    3.082010
     24          1           0        1.908553   -1.555103    1.098057
     25          6           0        0.485961    0.914725    3.651230
     26          1           0       -0.804972    1.649646    2.154380
     27          1           0        2.747888   -1.484380    3.442813
     28          1           0        0.150114    1.577357    4.439332
     29          8           0       -0.445929   -0.006745   -2.217434
     30          6           0        1.610644    0.525196   -0.954797
     31          6           0        2.155657    1.663781   -0.350362
     32          6           0        2.378729   -0.195143   -1.875171
     33          6           0        3.441301    2.087583   -0.678287
     34          1           0        1.586026    2.233845    0.378920
     35          6           0        3.677891    0.210981   -2.172471
     36          1           0        1.977304   -1.076461   -2.362117
     37          1           0        3.843927    2.984313   -0.215761
     38          1           0        4.270628   -0.367434   -2.875687
     39          6           0       -1.735510   -0.272274   -2.744311
     40          1           0       -2.290481    0.663833   -2.891174
     41          1           0       -1.609265   -0.763275   -3.714827
     42          1           0       -2.330355   -0.933976   -2.101164
     43          6           0        4.209458    1.356287   -1.582271
     44          1           0        5.218603    1.677114   -1.825518
     45          7           0        1.455517    0.046351    3.970460
     46          1           0        1.823840    0.049708    4.919580
     47          7           0       -3.398181    3.101181   -0.043652
     48          6           0       -1.240610   -4.518936   -0.087741
     49          1           0       -1.505484   -5.568528    0.005386
     50          1           0       -4.136819    3.798204    0.037913
 ---------------------------------------------------------------------
                    Distance matrix (angstroms):
                    1          2          3          4          5
     1  C    0.000000
     2  C    1.378550   0.000000
     3  C    2.399122   1.398879   0.000000
     4  C    2.754450   2.408918   1.397342   0.000000
     5  C    2.359621   2.754346   2.399184   1.380186   0.000000
     6  H    1.082603   2.175151   3.406911   3.834392   3.306778
     7  H    2.121456   1.083966   2.177176   3.407329   3.837287
     8  H    3.836969   3.408354   2.177268   1.083438   2.120503
     9  H    3.307695   3.834425   3.406435   2.176010   1.082692
    10  P    4.104291   2.818070   1.853205   2.844033   4.122796
    11  C    5.546280   4.420698   3.165936   3.480122   4.845841
    12  C    6.527563   5.376199   4.249958   4.619119   5.930635
    13  C    6.018450   5.068765   3.693207   3.547483   4.837375
    14  C    7.730223   6.650976   5.441602   5.569365   6.839517
    15  H    6.534616   5.336807   4.422435   5.020102   6.280870
    16  C    7.292215   6.396007   5.009384   4.702313   5.897048
    17  H    5.620468   4.792539   3.439996   3.126470   4.324715
    18  H    8.550076   7.458102   6.325640   6.512411   7.753288
    19  H    7.830017   7.046405   5.650170   5.145728   6.215706
    20  C    4.782203   3.672012   2.776588   3.422510   4.603663
    21  C    6.159465   4.995300   4.116087   4.738249   5.963464
    22  C    4.467607   3.667138   2.990031   3.361946   4.235182
    23  C    7.029115   5.982807   5.185072   5.676564   6.783835
    24  H    6.718438   5.457165   4.549528   5.247887   6.557701
    25  C    5.633487   4.949347   4.363346   4.613284   5.357406
    26  H    3.575018   3.021874   2.526984   2.746042   3.360136
    27  H    8.087809   7.006504   6.202568   6.702023   7.838859
    28  H    5.861897   5.406763   4.967537   5.068418   5.569624
    29  O    4.237685   3.063797   2.512330   3.455883   4.519645
    30  C    4.849549   3.478431   3.187578   4.461411   5.584057
    31  C    4.741555   3.497189   3.601312   4.918864   5.851946
    32  C    6.025485   4.664902   4.366663   5.587469   6.750876
    33  C    5.830628   4.674085   4.952082   6.291914   7.171140
    34  H    4.116079   3.014516   3.230920   4.455619   5.248118
    35  C    6.927763   5.612424   5.538492   6.830421   7.927856
    36  H    6.443593   5.101519   4.613508   5.688637   6.907188
    37  H    6.095590   5.096688   5.546372   6.851506   7.600235
    38  H    7.885933   6.575757   6.462853   7.719059   8.842882
    39  C    4.355272   3.518100   2.921261   3.368564   4.230582
    40  H    3.641458   3.080799   2.828514   3.199209   3.731105
    41  H    5.308329   4.491248   3.993897   4.448541   5.264950
    42  H    4.664959   3.912779   2.985877   3.017111   3.952948
    43  C    6.844764   5.617726   5.782471   7.133410   8.112807
    44  H    7.755156   6.583543   6.833594   8.193703   9.137371
    45  N    6.776683   5.932317   5.251744   5.594108   6.498669
    46  H    7.633745   6.859139   6.225737   6.508923   7.337694
    47  N    1.343663   2.351927   2.729826   2.351681   1.341579
    48  C    8.066588   7.090484   5.758252   5.605586   6.825736
    49  H    9.088343   8.149481   6.808247   6.568049   7.731879
    50  H    2.037239   3.268804   3.748689   3.268830   2.035366
                    6          7          8          9         10
     6  H    0.000000
     7  H    2.497754   0.000000
     8  H    4.915646   4.333502   0.000000
     9  H    4.138669   4.916123   2.494973   0.000000
    10  P    4.992572   2.968012   3.016444   5.018213   0.000000
    11  C    6.535129   4.748547   3.037485   5.470421   1.846216
    12  C    7.464184   5.569078   4.182032   6.530469   2.817280
    13  C    7.070016   5.587917   2.768723   5.242684   2.839625
    14  C    8.705393   6.921603   4.922848   7.279760   4.122438
    15  H    7.377731   5.355818   4.784603   6.978560   2.940992
    16  C    8.357164   6.931498   3.777323   6.128006   4.138316
    17  H    6.673493   5.409573   2.348939   4.682792   2.992177
    18  H    9.486934   7.651627   5.908971   8.196577   4.963321
    19  H    8.907315   7.665825   4.134649   6.289627   4.986256
    20  C    5.647463   3.875341   3.434878   5.380803   1.983564
    21  C    6.989439   5.048956   4.577109   6.684391   2.899956
    22  C    5.276580   4.026674   3.504443   4.929591   3.028776
    23  C    7.810919   6.048583   5.484497   7.420921   4.209586
    24  H    7.550547   5.415452   5.028322   7.297822   2.979318
    25  C    6.352358   5.241984   4.645678   5.919650   4.301861
    26  H    4.378661   3.564454   3.125732   4.070302   3.227872
    27  H    8.857490   7.011244   6.446726   8.455867   5.073497
    28  H    6.493113   5.757207   5.159840   6.026489   5.205844
    29  O    4.997938   3.057764   3.745230   5.412233   1.749079
    30  C    5.464926   3.006505   4.806437   6.579899   1.843829
    31  C    5.172870   2.826969   5.431603   6.883652   2.817423
    32  C    6.590267   4.108501   5.826731   7.724487   2.826428
    33  C    6.079897   3.827022   6.822405   8.217556   4.121176
    34  H    4.538345   2.493877   5.054243   6.260184   2.953522
    35  C    7.339277   4.865079   7.140381   8.938856   4.125842
    36  H    7.087497   4.690459   5.786282   7.814354   2.966998
    37  H    6.204054   4.229038   7.453788   8.639035   4.964822
    38  H    8.289164   5.833125   7.968947   9.836793   4.972948
    39  C    5.141723   3.799245   3.561745   4.953707   2.789776
    40  H    4.336100   3.444901   3.647495   4.465828   3.320576
    41  H    6.002791   4.627855   4.568316   5.933153   3.625830
    42  H    5.577115   4.413017   2.899285   4.508070   2.895684
    43  C    7.115507   4.749562   7.572494   9.158787   4.643263
    44  H    7.932793   5.660167   8.651908  10.191545   5.729719
    45  N    7.507429   6.098886   5.483205   7.063839   4.735391
    46  H    8.320608   7.016032   6.376064   7.840429   5.752797
    47  N    2.070043   3.323161   3.320900   2.068949   4.581513
    48  C    9.103956   7.514720   4.757658   7.102634   4.650567
    49  H   10.133274   8.593238   5.662594   7.914484   5.737048
    50  H    2.317657   4.149129   4.146658   2.316639   5.600193
                   11         12         13         14         15
    11  C    0.000000
    12  C    1.400302   0.000000
    13  C    1.401017   2.412017   0.000000
    14  C    2.424358   1.392534   2.783022   0.000000
    15  H    2.160627   1.084097   3.400090   2.142041   0.000000
    16  C    2.425869   2.785008   1.392320   2.409871   3.868573
    17  H    2.170385   3.406537   1.085883   3.868545   4.314105
    18  H    3.404033   2.146577   3.869251   1.086272   2.456441
    19  H    3.405573   3.871162   2.146835   3.397603   4.954584
    20  C    2.725193   3.968058   2.903732   4.986157   4.405311
    21  C    3.094064   4.070956   3.179722   4.885698   4.543329
    22  C    3.875663   5.215957   3.744346   6.176559   5.698193
    23  C    4.350259   5.324864   4.136939   5.972650   5.859173
    24  H    2.855741   3.491279   3.189371   4.245325   3.883211
    25  C    4.932811   6.235891   4.582386   7.057122   6.785704
    26  H    4.265407   5.627025   4.170394   6.641555   6.061650
    27  H    5.021292   5.812678   4.788805   6.304994   6.337635
    28  H    5.889811   7.228775   5.453361   8.033597   7.791494
    29  O    2.615244   2.837810   3.876627   4.170010   2.435304
    30  C    3.245271   3.768180   4.347633   5.096753   3.484195
    31  C    4.405568   5.106776   5.305908   6.412861   4.882152
    32  C    3.688106   3.693628   4.938148   4.920570   3.113156
    33  C    5.592332   6.109054   6.542380   7.377382   5.744586
    34  H    4.629414   5.563510   5.320864   6.854141   5.492950
    35  C    5.039218   4.983491   6.236281   6.116954   4.343240
    36  H    3.329216   2.957927   4.652709   4.099643   2.210650
    37  H    6.506690   7.122834   7.359172   8.390470   6.802132
    38  H    5.643296   5.335143   6.867948   6.328543   4.589250
    39  C    3.099767   3.155339   4.139512   4.228024   2.869367
    40  H    3.964473   4.212422   4.875896   5.278929   3.950566
    41  H    3.700068   3.327226   4.811931   4.242348   2.791418
    42  H    2.659948   2.810057   3.425450   3.671748   2.891707
    43  C    5.855475   6.059757   6.941177   7.251453   5.526888
    44  H    6.908107   7.048017   7.984815   8.192593   6.473385
    45  N    5.094118   6.251149   4.719578   6.942462   6.822042
    46  H    6.052771   7.179109   5.588636   7.788729   7.772154
    47  N    5.683382   6.725267   5.890041   7.776594   6.901851
    48  C    2.804452   2.415509   2.414224   1.393414   3.391514
    49  H    3.890947   3.400370   3.399129   2.154932   4.286813
    50  H    6.665992   7.693468   6.809525   8.707232   7.869941
                   16         17         18         19         20
    16  C    0.000000
    17  H    2.134549   0.000000
    18  H    3.397273   4.954775   0.000000
    19  H    1.086268   2.444209   4.300074   0.000000
    20  C    4.202066   2.514170   5.951684   4.752097   0.000000
    21  C    4.196845   2.997192   5.777360   4.717065   1.406084
    22  C    5.006247   2.984794   7.191631   5.327081   1.398507
    23  C    4.971645   3.750035   6.859097   5.248975   2.419658
    24  H    4.028092   3.368068   5.022042   4.696303   2.176642
    25  C    5.665228   3.743037   8.074082   5.798306   2.415595
    26  H    5.465071   3.363774   7.661458   5.768673   2.181067
    27  H    5.409107   4.529106   7.102192   5.637794   3.426187
    28  H    6.496054   4.517996   9.070211   6.513916   3.420197
    29  O    4.927726   4.307339   4.739894   5.894392   3.728929
    30  C    5.547537   4.535100   5.731608   6.436273   2.666431
    31  C    6.583018   5.248921   7.090855   7.365123   2.929982
    32  C    5.922763   5.374212   5.314743   6.903451   3.804102
    33  C    7.753381   6.539579   7.938734   8.556160   4.173129
    34  H    6.667501   5.048278   7.639735   7.340007   2.670391
    35  C    7.188131   6.628114   6.396308   8.147290   4.812498
    36  H    5.458763   5.285829   4.362960   6.498574   4.207975
    37  H    8.605847   7.235039   8.988044   9.346357   4.769531
    38  H    7.679492   7.376511   6.429227   8.668527   5.743137
    39  C    4.987137   4.614956   4.727431   5.898033   4.699319
    40  H    5.801428   5.165380   5.800792   6.627383   5.133995
    41  H    5.466106   5.443695   4.490831   6.428096   5.574851
    42  H    4.138529   3.929494   4.285775   4.982807   4.580399
    43  C    8.017464   7.138796   7.638899   8.903025   4.970131
    44  H    9.027353   8.183852   8.512148   9.907471   5.979148
    45  N    5.627157   4.044204   7.902603   5.744394   2.757263
    46  H    6.378577   4.889461   8.733966   6.379156   3.775350
    47  N    7.049186   5.398083   8.644615   7.444550   5.131131
    48  C    1.393478   3.386809   2.156008   2.156644   5.086888
    49  H    2.154580   4.279922   2.487287   2.487627   6.103138
    50  H    7.917779   6.278316   9.565972   8.246854   6.090645
                   21         22         23         24         25
    21  C    0.000000
    22  C    2.391708   0.000000
    23  C    1.374694   2.749376   0.000000
    24  H    1.086180   3.392796   2.113366   0.000000
    25  C    2.741342   1.382991   2.356402   3.826553   0.000000
    26  H    3.399305   1.083718   3.831143   4.330064   2.108833
    27  H    2.175686   3.829655   1.082784   2.491459   3.303855
    28  H    3.821989   2.179630   3.305653   4.905969   1.083042
    29  O    4.529118   4.696977   5.879891   4.351262   6.013214
    30  C    3.075145   3.725158   4.272652   2.937789   4.757324
    31  C    3.368688   3.562762   4.246416   3.538388   4.400194
    32  C    3.835149   5.004006   5.014650   3.303126   5.946048
    33  C    4.308217   4.759585   4.982604   4.332883   5.371624
    34  H    3.388939   2.875064   4.102690   3.870053   3.695705
    35  C    4.657975   5.902915   5.623635   4.116547   6.678261
    36  H    4.194658   5.512754   5.449757   3.493799   6.507632
    37  H    4.928217   5.088578   5.380315   5.106671   5.523835
    38  H    5.463241   6.901317   6.404927   4.772902   7.652992
    39  C    5.592297   5.520771   6.924599   5.448728   6.873634
    40  H    6.200712   5.730580   7.484462   6.202381   7.111584
    41  H    6.317785   6.507228   7.679642   6.013808   7.839927
    42  H    5.450493   5.359795   6.732504   5.346883   6.666286
    43  C    4.868879   5.807802   5.618627   4.577610   6.438085
    44  H    5.783792   6.757165   6.399278   5.472746   7.278318
    45  N    2.349045   2.354251   1.347362   3.319728   1.340157
    46  H    3.266574   3.272470   2.041795   4.145676   2.036391
    47  N    6.536342   4.680621   7.347176   7.151637   5.789586
    48  C    4.945704   6.094395   5.825652   4.484156   6.818037
    49  H    5.869194   7.066608   6.631147   5.381186   7.700039
    50  H    7.494278   5.528639   8.240822   8.144220   6.537630
                   26         27         28         29         30
    26  H    0.000000
    27  H    4.909684   0.000000
    28  H    2.477584   4.137114   0.000000
    29  O    4.688849   6.665003   6.868565   0.000000
    30  C    4.094700   4.966960   5.686547   2.471175   0.000000
    31  C    3.878048   4.964860   5.193346   3.611768   1.399556
    32  C    5.456783   5.484466   6.926863   2.851549   1.398546
    33  C    5.123146   5.497564   6.105921   4.676082   2.422564
    34  H    3.034867   4.956063   4.356577   3.986244   2.167692
    35  C    6.394330   5.938903   7.617620   4.129808   2.419705
    36  H    5.964182   5.870043   7.526027   2.652788   2.163399
    37  H    5.386201   5.878408   6.106854   5.599642   3.403084
    38  H    7.425086   6.594676   8.618025   4.775909   3.400312
    39  C    5.343861   7.736314   7.653851   1.418141   3.877508
    40  H    5.351278   8.373731   7.779932   2.075084   4.357471
    41  H    6.396614   8.410504   8.663965   2.041537   4.432351
    42  H    5.206875   7.538380   7.432201   2.103411   4.356009
    43  C    6.260442   5.954582   7.265456   4.892230   2.799691
    44  H    7.219681   6.622295   8.059025   5.922491   3.886186
    45  N    3.313384   2.071659   2.065889   6.473666   4.950910
    46  H    4.137244   2.321235   2.316400   7.489460   5.897444
    47  N    3.696354   8.423596   5.916890   4.806280   5.705630
    48  C    6.577864   6.130372   7.719669   5.052423   5.858729
    49  H    7.563791   6.825492   8.571147   6.082517   6.911272
    50  H    4.494100   9.321922   6.533180   5.760807   6.688153
                   31         32         33         34         35
    31  C    0.000000
    32  C    2.414623   0.000000
    33  C    1.392847   2.787908   0.000000
    34  H    1.086878   3.407240   2.140356   0.000000
    35  C    2.783506   1.393250   2.410435   3.870074   0.000000
    36  H    3.404100   1.083965   3.871659   4.315612   2.141371
    37  H    2.147598   3.874195   1.086353   2.452542   3.398184
    38  H    3.869910   2.147091   3.397567   4.956431   1.086469
    39  C    4.961903   4.205748   6.052830   5.202673   5.464929
    40  H    5.217640   4.855062   6.306921   5.309026   6.028522
    41  H    5.602219   4.428454   6.546463   5.995947   5.593036
    42  H    5.471559   4.772046   6.668314   5.614619   6.116783
    43  C    2.414591   2.417497   1.393573   3.390984   1.393781
    44  H    3.399691   3.401867   2.154861   4.285454   2.154928
    45  N    4.666452   5.923010   5.451680   4.207294   6.534650
    46  H    5.521560   6.821766   6.172943   5.044264   7.332169
    47  N    5.745024   6.898761   6.943245   5.076727   7.934477
    48  C    7.059008   5.915210   8.118813   7.335373   7.135115
    49  H    8.113988   6.891797   9.140795   8.400832   8.063074
    50  H    6.655958   7.877758   7.801735   5.942597   8.878269
                   36         37         38         39         40
    36  H    0.000000
    37  H    4.957924   0.000000
    38  H    2.454752   4.300173   0.000000
    39  C    3.818085   6.937510   6.008328   0.000000
    40  H    4.639236   7.083320   6.641679   1.098116   0.000000
    41  H    3.845957   7.484997   5.952645   1.094953   1.783002
    42  H    4.317907   7.551787   6.670370   1.097874   1.782891
    43  C    3.392482   2.156718   2.155894   6.272575   6.666478
    44  H    4.286739   2.487935   2.486300   7.280383   7.651712
    45  N    6.452480   5.644517   7.413892   7.441258   7.841926
    46  H    7.369866   6.250151   8.180890   8.456233   8.849444
    47  N    7.191927   7.245095   8.880447   4.630144   3.908458
    48  C    5.232436   9.064637   7.441865   5.033530   5.985195
    49  H    6.157398  10.090401   8.289477   5.971939   6.917269
    50  H    8.179548   8.026149   9.824804   5.484145   4.670417
                   41         42         43         44         45
    41  H    0.000000
    42  H    1.775674   0.000000
    43  C    6.549647   6.948648   0.000000
    44  H    7.492981   7.992530   1.086496   0.000000
    45  N    8.313364   7.222083   6.335057   7.100251   0.000000
    46  H    9.327386   8.216801   7.047864   7.724585   1.018087
    47  N    5.622434   4.653612   7.955387   8.913584   7.000248
    48  C    5.234181   4.253628   8.152000   9.117694   6.676821
    49  H    6.077928   5.157232   9.117800  10.053103   7.484397
    50  H    6.424848   5.498408   8.845807   9.772171   7.798432
                   46         47         48         49         50
    46  H    0.000000
    47  N    7.823980   0.000000
    48  C    7.438859   7.919800   0.000000
    49  H    8.173021   8.874039   1.086496   0.000000
    50  H    8.568042   1.018862   8.807873   9.729370   0.000000
 Stoichiometry    C23H23N2OP(2+)
 Framework group  C1[X(C23H23N2OP)]
 Deg. of freedom   144
 Full point group                 C1      NOp   1
 Largest Abelian subgroup         C1      NOp   1
 Largest concise Abelian subgroup C1      NOp   1
                         Standard orientation:                         
 ---------------------------------------------------------------------
 Center     Atomic      Atomic             Coordinates (Angstroms)
 Number     Number       Type             X           Y           Z
 ---------------------------------------------------------------------
      1          6           0        2.221416   -3.472955   -0.575087
      2          6           0        1.210312   -2.544712   -0.703290
      3          6           0        1.418806   -1.233935   -0.261411
      4          6           0        2.661313   -0.891255    0.278321
      5          6           0        3.648135   -1.851333    0.374979
      6          1           0        2.133074   -4.505829   -0.887171
      7          1           0        0.276899   -2.856526   -1.157705
      8          1           0        2.884554    0.111289    0.623152
      9          1           0        4.635076   -1.659852    0.776855
     10         15           0        0.088322    0.032793   -0.505501
     11          6           0        0.553037    1.810618   -0.326912
     12          6           0        0.279420    2.708658   -1.365903
     13          6           0        1.184188    2.286578    0.829790
     14          6           0        0.603216    4.056921   -1.237471
     15          1           0       -0.178841    2.359595   -2.284280
     16          6           0        1.541831    3.627644    0.940188
     17          1           0        1.412116    1.621314    1.657204
     18          1           0        0.366376    4.742862   -2.045789
     19          1           0        2.048316    3.974461    1.836385
     20          6           0       -0.457931   -0.039356    1.399999
     21          6           0       -1.478810    0.842612    1.796245
     22          6           0        0.027114   -0.925642    2.366979
     23          6           0       -1.965029    0.829112    3.082010
     24          1           0       -1.908555    1.555100    1.098057
     25          6           0       -0.485960   -0.914726    3.651230
     26          1           0        0.804974   -1.649645    2.154380
     27          1           0       -2.747890    1.484376    3.442813
     28          1           0       -0.150112   -1.577357    4.439332
     29          8           0        0.445929    0.006746   -2.217434
     30          6           0       -1.610643   -0.525198   -0.954797
     31          6           0       -2.155655   -1.663784   -0.350362
     32          6           0       -2.378729    0.195140   -1.875171
     33          6           0       -3.441298   -2.087588   -0.678287
     34          1           0       -1.586023   -2.233847    0.378920
     35          6           0       -3.677891   -0.210986   -2.172471
     36          1           0       -1.977305    1.076458   -2.362117
     37          1           0       -3.843923   -2.984318   -0.215761
     38          1           0       -4.270628    0.367428   -2.875687
     39          6           0        1.735510    0.272276   -2.744311
     40          1           0        2.290482   -0.663830   -2.891174
     41          1           0        1.609264    0.763277   -3.714827
     42          1           0        2.330354    0.933979   -2.101164
     43          6           0       -4.209456   -1.356293   -1.582271
     44          1           0       -5.218601   -1.677121   -1.825518
     45          7           0       -1.455517   -0.046353    3.970460
     46          1           0       -1.823840   -0.049710    4.919580
     47          7           0        3.398185   -3.101177   -0.043652
     48          6           0        1.240604    4.518938   -0.087741
     49          1           0        1.505477    5.568530    0.005386
     50          1           0        4.136824   -3.798199    0.037913
 ---------------------------------------------------------------------
 Rotational constants (GHZ):           0.1894128           0.1869672           0.1642725
 Standard basis: 6-31+G(d) (6D, 7F)
 There are   563 symmetry adapted cartesian basis functions of A   symmetry.
 There are   563 symmetry adapted basis functions of A   symmetry.
   563 basis functions,   980 primitive gaussians,   563 cartesian basis functions
    98 alpha electrons       98 beta electrons
       nuclear repulsion energy      2704.0951474869 Hartrees.
 NAtoms=   50 NActive=   50 NUniq=   50 SFac= 1.00D+00 NAtFMM=   60 NAOKFM=F Big=F
 Integral buffers will be    131072 words long.
 Raffenetti 2 integral format.
 Two-electron integral symmetry is turned on.
 Nuclear repulsion after empirical dispersion term =     2704.0472322478 Hartrees.
 ------------------------------------------------------------------------------
 Polarizable Continuum Model (PCM)
 =================================
 Model                : PCM.
 Atomic radii         : SMD-Coulomb.
 Polarization charges : Total charges.
 Charge compensation  : None.
 Solution method      : On-the-fly selection.
 Cavity type          : VdW (van der Waals Surface) (Alpha=1.000).
 Cavity algorithm     : GePol (No added spheres)
                        Default sphere list used, NSphG=   50.
                        Lebedev-Laikov grids with approx.  5.0 points / Ang**2.
                        Smoothing algorithm: York/Karplus (Gamma=1.0000).
                        Polarization charges: spherical gaussians, with
                                              point-specific exponents (IZeta= 3).
                        Self-potential: point-specific (ISelfS= 7).
                        Self-field    : sphere-specific E.n sum rule (ISelfD= 2).
 1st derivatives      : Analytical E(r).r(x)/FMM algorithm (CHGder, D1EAlg=3).
                        Cavity 1st derivative terms included.
 Solvent              : Ethanol, Eps=  24.852000 Eps(inf)=   1.852593
 ------------------------------------------------------------------------------
 ------------------------------------------------------------------------------
 Atomic radii for non-electrostatic terms: SMD-CDS.
 ------------------------------------------------------------------------------
 Nuclear repulsion after PCM non-electrostatic terms =     2704.0464136323 Hartrees.
 One-electron integrals computed using PRISM.
 NBasis=   563 RedAO= T EigKep=  1.18D-06  NBF=   563
 NBsUse=   560 1.00D-06 EigRej=  8.93D-07 NBFU=   560
 ExpMin= 3.48D-02 ExpMax= 1.94D+04 ExpMxC= 2.91D+03 IAcc=3 IRadAn=         5 AccDes= 0.00D+00
 Harris functional with IExCor= 4639 and IRadAn=       5 diagonalized for initial guess.
 HarFok:  IExCor= 4639 AccDes= 0.00D+00 IRadAn=         5 IDoV= 1 UseB2=F ITyADJ=14
 ICtDFT=  3500011 ScaDFX=  1.000000  1.000000  1.000000  1.000000
 FoFCou: FMM=F IPFlag=           0 FMFlag=      100000 FMFlg1=           0
         NFxFlg=           0 DoJE=T BraDBF=F KetDBF=T FulRan=T
         wScrn=  0.000000 ICntrl=       500 IOpCl=  0 I1Cent=   200000004 NGrid=           0
         NMat0=    1 NMatS0=      1 NMatT0=    0 NMatD0=    1 NMtDS0=    0 NMtDT0=    0
 Petite list used in FoFCou.
 Requested convergence on RMS density matrix=1.00D-08 within 128 cycles.
 Requested convergence on MAX density matrix=1.00D-06.
 Requested convergence on             energy=1.00D-06.
 No special actions if energy rises.
 Inv3:  Mode=1 IEnd=    40384683.
 Iteration    1 A*A^-1 deviation from unit magnitude is 7.55D-15 for   3669.
 Iteration    1 A*A^-1 deviation from orthogonality  is 3.89D-15 for   3664   1067.
 Iteration    1 A^-1*A deviation from unit magnitude is 7.11D-15 for   3660.
 Iteration    1 A^-1*A deviation from orthogonality  is 2.12D-14 for   1731   1698.
 Error on total polarization charges =  0.05623
 SCF Done:  E(RwB97XD) =  -1415.71334703     A.U. after   16 cycles
            NFock= 16  Conv=0.93D-08     -V/T= 2.0082
 SMD-CDS (non-electrostatic) energy       (kcal/mol) =      -0.51
 (included in total energy above)

 **********************************************************************

            Population analysis using the SCF density.

 **********************************************************************

 Orbital symmetries:
       Occupied  (A) (A) (A) (A) (A) (A) (A) (A) (A) (A) (A) (A)
                 (A) (A) (A) (A) (A) (A) (A) (A) (A) (A) (A) (A)
                 (A) (A) (A) (A) (A) (A) (A) (A) (A) (A) (A) (A)
                 (A) (A) (A) (A) (A) (A) (A) (A) (A) (A) (A) (A)
                 (A) (A) (A) (A) (A) (A) (A) (A) (A) (A) (A) (A)
                 (A) (A) (A) (A) (A) (A) (A) (A) (A) (A) (A) (A)
                 (A) (A) (A) (A) (A) (A) (A) (A) (A) (A) (A) (A)
                 (A) (A) (A) (A) (A) (A) (A) (A) (A) (A) (A) (A)
                 (A) (A)
       Virtual   (A) (A) (A) (A) (A) (A) (A) (A) (A) (A) (A) (A)
                 (A) (A) (A) (A) (A) (A) (A) (A) (A) (A) (A) (A)
                 (A) (A) (A) (A) (A) (A) (A) (A) (A) (A) (A) (A)
                 (A) (A) (A) (A) (A) (A) (A) (A) (A) (A) (A) (A)
                 (A) (A) (A) (A) (A) (A) (A) (A) (A) (A) (A) (A)
                 (A) (A) (A) (A) (A) (A) (A) (A) (A) (A) (A) (A)
                 (A) (A) (A) (A) (A) (A) (A) (A) (A) (A) (A) (A)
                 (A) (A) (A) (A) (A) (A) (A) (A) (A) (A) (A) (A)
                 (A) (A) (A) (A) (A) (A) (A) (A) (A) (A) (A) (A)
                 (A) (A) (A) (A) (A) (A) (A) (A) (A) (A) (A) (A)
                 (A) (A) (A) (A) (A) (A) (A) (A) (A) (A) (A) (A)
                 (A) (A) (A) (A) (A) (A) (A) (A) (A) (A) (A) (A)
                 (A) (A) (A) (A) (A) (A) (A) (A) (A) (A) (A) (A)
                 (A) (A) (A) (A) (A) (A) (A) (A) (A) (A) (A) (A)
                 (A) (A) (A) (A) (A) (A) (A) (A) (A) (A) (A) (A)
                 (A) (A) (A) (A) (A) (A) (A) (A) (A) (A) (A) (A)
                 (A) (A) (A) (A) (A) (A) (A) (A) (A) (A) (A) (A)
                 (A) (A) (A) (A) (A) (A) (A) (A) (A) (A) (A) (A)
                 (A) (A) (A) (A) (A) (A) (A) (A) (A) (A) (A) (A)
                 (A) (A) (A) (A) (A) (A) (A) (A) (A) (A) (A) (A)
                 (A) (A) (A) (A) (A) (A) (A) (A) (A) (A) (A) (A)
                 (A) (A) (A) (A) (A) (A) (A) (A) (A) (A) (A) (A)
                 (A) (A) (A) (A) (A) (A) (A) (A) (A) (A) (A) (A)
                 (A) (A) (A) (A) (A) (A) (A) (A) (A) (A) (A) (A)
                 (A) (A) (A) (A) (A) (A) (A) (A) (A) (A) (A) (A)
                 (A) (A) (A) (A) (A) (A) (A) (A) (A) (A) (A) (A)
                 (A) (A) (A) (A) (A) (A) (A) (A) (A) (A) (A) (A)
                 (A) (A) (A) (A) (A) (A) (A) (A) (A) (A) (A) (A)
                 (A) (A) (A) (A) (A) (A) (A) (A) (A) (A) (A) (A)
                 (A) (A) (A) (A) (A) (A) (A) (A) (A) (A) (A) (A)
                 (A) (A) (A) (A) (A) (A) (A) (A) (A) (A) (A) (A)
                 (A) (A) (A) (A) (A) (A) (A) (A) (A) (A) (A) (A)
                 (A) (A) (A) (A) (A) (A) (A) (A) (A) (A) (A) (A)
                 (A) (A) (A) (A) (A) (A) (A) (A) (A) (A) (A) (A)
                 (A) (A) (A) (A) (A) (A) (A) (A) (A) (A) (A) (A)
                 (A) (A) (A) (A) (A) (A) (A) (A) (A) (A) (A) (A)
                 (A) (A) (A) (A) (A) (A) (A) (A) (A) (A) (A) (A)
                 (A) (A) (A) (A) (A) (A) (A) (A) (A) (A) (A) (A)
                 (A) (A) (A) (A) (A) (A)
 The electronic state is 1-A.
 Alpha  occ. eigenvalues --  -77.37343 -19.27155 -14.58379 -14.57454 -10.40247
 Alpha  occ. eigenvalues --  -10.40136 -10.39428 -10.39042 -10.37894 -10.35796
 Alpha  occ. eigenvalues --  -10.35748 -10.35246 -10.34462 -10.34340 -10.33668
 Alpha  occ. eigenvalues --  -10.33640 -10.33531 -10.32646 -10.32417 -10.32360
 Alpha  occ. eigenvalues --  -10.32189 -10.32088 -10.31840 -10.31808 -10.31739
 Alpha  occ. eigenvalues --  -10.31704 -10.31611  -6.78348  -4.93235  -4.93217
 Alpha  occ. eigenvalues --   -4.93122  -1.15125  -1.14169  -1.11896  -0.98466
 Alpha  occ. eigenvalues --   -0.97565  -0.97147  -0.95270  -0.92914  -0.91829
 Alpha  occ. eigenvalues --   -0.88825  -0.86595  -0.86383  -0.86139  -0.82390
 Alpha  occ. eigenvalues --   -0.79422  -0.78572  -0.78108  -0.77684  -0.73521
 Alpha  occ. eigenvalues --   -0.71773  -0.71397  -0.71277  -0.71016  -0.70594
 Alpha  occ. eigenvalues --   -0.68136  -0.64054  -0.63059  -0.62381  -0.61871
 Alpha  occ. eigenvalues --   -0.60363  -0.59658  -0.58831  -0.58598  -0.57086
 Alpha  occ. eigenvalues --   -0.56827  -0.56203  -0.55799  -0.55740  -0.55341
 Alpha  occ. eigenvalues --   -0.55199  -0.54636  -0.53744  -0.53513  -0.52502
 Alpha  occ. eigenvalues --   -0.51910  -0.51672  -0.50357  -0.49692  -0.49454
 Alpha  occ. eigenvalues --   -0.48234  -0.47457  -0.47396  -0.44997  -0.44233
 Alpha  occ. eigenvalues --   -0.43849  -0.43498  -0.42610  -0.41313  -0.40771
 Alpha  occ. eigenvalues --   -0.39231  -0.38331  -0.36644  -0.36026  -0.34740
 Alpha  occ. eigenvalues --   -0.34595  -0.34304  -0.33911
 Alpha virt. eigenvalues --   -0.03117  -0.02179   0.00493   0.01525   0.01941
 Alpha virt. eigenvalues --    0.03723   0.04128   0.04820   0.05076   0.05502
 Alpha virt. eigenvalues --    0.06133   0.06553   0.07494   0.07687   0.08186
 Alpha virt. eigenvalues --    0.08437   0.08775   0.09125   0.09643   0.09883
 Alpha virt. eigenvalues --    0.10242   0.10406   0.10527   0.10917   0.11315
 Alpha virt. eigenvalues --    0.11776   0.12525   0.12661   0.12814   0.12864
 Alpha virt. eigenvalues --    0.13226   0.13318   0.13792   0.14073   0.14195
 Alpha virt. eigenvalues --    0.14384   0.14525   0.15663   0.16046   0.16282
 Alpha virt. eigenvalues --    0.16408   0.16693   0.17255   0.17665   0.17750
 Alpha virt. eigenvalues --    0.17967   0.18238   0.18468   0.18593   0.18814
 Alpha virt. eigenvalues --    0.19082   0.19251   0.19465   0.19762   0.19901
 Alpha virt. eigenvalues --    0.20159   0.20736   0.20956   0.21225   0.21413
 Alpha virt. eigenvalues --    0.21681   0.22108   0.22339   0.22390   0.22519
 Alpha virt. eigenvalues --    0.22876   0.23207   0.23440   0.23811   0.24086
 Alpha virt. eigenvalues --    0.24207   0.24416   0.24717   0.24988   0.25303
 Alpha virt. eigenvalues --    0.25662   0.25845   0.25924   0.26297   0.26558
 Alpha virt. eigenvalues --    0.26893   0.27311   0.27488   0.27562   0.27634
 Alpha virt. eigenvalues --    0.28002   0.28116   0.28283   0.28592   0.28762
 Alpha virt. eigenvalues --    0.29236   0.29650   0.30200   0.30568   0.30786
 Alpha virt. eigenvalues --    0.30927   0.31032   0.31345   0.31633   0.31789
 Alpha virt. eigenvalues --    0.31912   0.32274   0.32615   0.32851   0.32991
 Alpha virt. eigenvalues --    0.33072   0.33490   0.33659   0.33767   0.34341
 Alpha virt. eigenvalues --    0.34699   0.34985   0.35042   0.35338   0.35592
 Alpha virt. eigenvalues --    0.35821   0.36066   0.36303   0.36445   0.36776
 Alpha virt. eigenvalues --    0.36941   0.37393   0.37504   0.37843   0.38243
 Alpha virt. eigenvalues --    0.38396   0.38767   0.39077   0.39297   0.39579
 Alpha virt. eigenvalues --    0.40075   0.40562   0.40642   0.40878   0.41151
 Alpha virt. eigenvalues --    0.41897   0.42211   0.42633   0.42848   0.42998
 Alpha virt. eigenvalues --    0.43303   0.43572   0.44294   0.44874   0.45146
 Alpha virt. eigenvalues --    0.45781   0.46615   0.46931   0.47504   0.48633
 Alpha virt. eigenvalues --    0.49055   0.49321   0.49979   0.50484   0.51114
 Alpha virt. eigenvalues --    0.52168   0.52914   0.53505   0.54023   0.55561
 Alpha virt. eigenvalues --    0.56697   0.59506   0.61103   0.62804   0.63388
 Alpha virt. eigenvalues --    0.65184   0.65392   0.65860   0.69147   0.71006
 Alpha virt. eigenvalues --    0.72282   0.72719   0.74260   0.75205   0.76217
 Alpha virt. eigenvalues --    0.76624   0.77123   0.77589   0.77800   0.78321
 Alpha virt. eigenvalues --    0.79088   0.79623   0.80016   0.80563   0.81242
 Alpha virt. eigenvalues --    0.82005   0.82199   0.83103   0.83209   0.83510
 Alpha virt. eigenvalues --    0.84353   0.84491   0.85146   0.85795   0.86113
 Alpha virt. eigenvalues --    0.87207   0.87407   0.87607   0.88559   0.89143
 Alpha virt. eigenvalues --    0.89930   0.90180   0.91000   0.91516   0.92221
 Alpha virt. eigenvalues --    0.93791   0.94207   0.94671   0.95766   0.96315
 Alpha virt. eigenvalues --    0.97120   0.97329   0.97553   0.97974   0.98096
 Alpha virt. eigenvalues --    0.99368   0.99481   0.99637   1.00295   1.00398
 Alpha virt. eigenvalues --    1.00709   1.00855   1.01050   1.01331   1.01915
 Alpha virt. eigenvalues --    1.02344   1.02669   1.02768   1.04016   1.04344
 Alpha virt. eigenvalues --    1.04614   1.05535   1.05997   1.06411   1.07368
 Alpha virt. eigenvalues --    1.08197   1.09370   1.09740   1.10384   1.11047
 Alpha virt. eigenvalues --    1.11903   1.12833   1.13020   1.13617   1.14828
 Alpha virt. eigenvalues --    1.15210   1.15468   1.16395   1.16758   1.17520
 Alpha virt. eigenvalues --    1.18568   1.20053   1.20436   1.21051   1.21850
 Alpha virt. eigenvalues --    1.22665   1.22981   1.24136   1.24731   1.25266
 Alpha virt. eigenvalues --    1.25547   1.25888   1.26449   1.26867   1.27729
 Alpha virt. eigenvalues --    1.28983   1.29275   1.29755   1.30596   1.31132
 Alpha virt. eigenvalues --    1.32032   1.33010   1.34653   1.34866   1.35914
 Alpha virt. eigenvalues --    1.36642   1.37068   1.38538   1.40773   1.41511
 Alpha virt. eigenvalues --    1.41700   1.43891   1.44582   1.46056   1.46578
 Alpha virt. eigenvalues --    1.47135   1.48218   1.48420   1.49234   1.50029
 Alpha virt. eigenvalues --    1.50453   1.51168   1.51367   1.51971   1.52720
 Alpha virt. eigenvalues --    1.52907   1.53592   1.53755   1.54180   1.54474
 Alpha virt. eigenvalues --    1.54916   1.55189   1.55713   1.55799   1.57126
 Alpha virt. eigenvalues --    1.57888   1.58241   1.58792   1.58967   1.59604
 Alpha virt. eigenvalues --    1.60546   1.61418   1.62882   1.63437   1.64429
 Alpha virt. eigenvalues --    1.68021   1.68763   1.70070   1.70926   1.73084
 Alpha virt. eigenvalues --    1.73964   1.76454   1.78271   1.82178   1.83467
 Alpha virt. eigenvalues --    1.86011   1.87774   1.88492   1.90729   1.92523
 Alpha virt. eigenvalues --    1.94215   1.95584   1.96224   1.97997   1.98258
 Alpha virt. eigenvalues --    1.98685   2.00134   2.02261   2.02897   2.04372
 Alpha virt. eigenvalues --    2.05687   2.06126   2.06956   2.07327   2.07770
 Alpha virt. eigenvalues --    2.10306   2.11029   2.11692   2.12534   2.14051
 Alpha virt. eigenvalues --    2.14937   2.18974   2.19629   2.20266   2.20673
 Alpha virt. eigenvalues --    2.21791   2.21830   2.22723   2.22985   2.23169
 Alpha virt. eigenvalues --    2.23280   2.24077   2.24596   2.25222   2.25446
 Alpha virt. eigenvalues --    2.26070   2.26760   2.26872   2.27163   2.28011
 Alpha virt. eigenvalues --    2.29544   2.29943   2.30592   2.30851   2.31373
 Alpha virt. eigenvalues --    2.32231   2.33118   2.33763   2.34870   2.36302
 Alpha virt. eigenvalues --    2.36538   2.37118   2.37874   2.38055   2.39179
 Alpha virt. eigenvalues --    2.39504   2.40545   2.40779   2.41383   2.43646
 Alpha virt. eigenvalues --    2.44153   2.47521   2.52207   2.60177   2.66183
 Alpha virt. eigenvalues --    2.67434   2.68107   2.69321   2.70880   2.71446
 Alpha virt. eigenvalues --    2.71585   2.72101   2.72527   2.72910   2.73620
 Alpha virt. eigenvalues --    2.74169   2.76242   2.76772   2.77370   2.77692
 Alpha virt. eigenvalues --    2.78486   2.78761   2.80565   2.81024   2.85659
 Alpha virt. eigenvalues --    2.86393   2.87865   2.88761   2.89009   2.89701
 Alpha virt. eigenvalues --    2.91188   2.92160   2.93884   2.96107   2.96376
 Alpha virt. eigenvalues --    2.96689   3.02251   3.11266   3.14287   3.15512
 Alpha virt. eigenvalues --    3.18376   3.43643   3.47078   3.48363   3.48929
 Alpha virt. eigenvalues --    3.75892   4.29968   4.31574   4.37331   4.38264
 Alpha virt. eigenvalues --    4.39715   4.41873   4.42264   4.42842   4.45917
 Alpha virt. eigenvalues --    4.46908   4.47586   4.48123   4.51430   4.53346
 Alpha virt. eigenvalues --    4.54870   4.55594   4.57890   4.60742   4.62674
 Alpha virt. eigenvalues --    4.64969   4.67853   4.74897   4.77930   4.79181
 Alpha virt. eigenvalues --    4.83479   4.85898
          Condensed to atoms (all electrons):
               1          2          3          4          5          6
     1  C   10.537553  -3.492385   0.971141  -1.278385  -0.427364   0.419558
     2  C   -3.492385  20.438325  -4.515952  -4.658988  -1.272158  -0.162887
     3  C    0.971141  -4.515952  19.717507  -6.048691   0.743238   0.096264
     4  C   -1.278385  -4.658988  -6.048691  19.995641  -3.326488   0.011162
     5  C   -0.427364  -1.272158   0.743238  -3.326488  10.027574  -0.000489
     6  H    0.419558  -0.162887   0.096264   0.011162  -0.000489   0.366382
     7  H   -0.017073   0.317524  -0.042706  -0.031450   0.005721  -0.001863
     8  H    0.002772  -0.000037   0.016615   0.223133  -0.010737   0.000009
     9  H   -0.001085   0.016870   0.095511  -0.156293   0.410757  -0.000076
    10  P   -0.124400  -1.528066   0.889982  -1.057097   0.468134   0.005418
    11  C   -0.096518  -1.326140  -2.654200   1.586468   0.456291  -0.000053
    12  C    0.090613   0.740457   1.588161  -1.195496   0.112504  -0.000135
    13  C   -0.025732  -0.018428   0.350303   0.338679  -0.433155   0.000139
    14  C    0.004048   0.076288  -0.187015  -0.055828  -0.017533  -0.000007
    15  H    0.000550  -0.000351   0.000448   0.000109  -0.000497   0.000000
    16  C    0.008135  -0.087502  -0.003927   0.119822  -0.052929   0.000018
    17  H   -0.001457   0.001107  -0.033037   0.010502   0.008456  -0.000000
    18  H   -0.000001   0.000095   0.000100  -0.000497  -0.000039  -0.000000
    19  H    0.000009   0.000017  -0.000586   0.000032   0.000171  -0.000000
    20  C    0.407316   0.174226  -3.072974   0.637870  -0.419459  -0.000735
    21  C   -0.097668  -0.131921  -2.044486   0.583583  -0.198747  -0.000237
    22  C    0.195569  -0.010318   2.367138  -0.724567   0.578054   0.001102
    23  C   -0.020539  -0.141586  -0.043685   0.140841   0.018202  -0.000003
    24  H    0.000175   0.002438   0.002026  -0.003958  -0.000349  -0.000000
    25  C   -0.162183   0.489969   0.056214   0.061717  -0.226748  -0.000085
    26  H    0.003196  -0.082622   0.110167   0.013819   0.012386  -0.000003
    27  H    0.000003  -0.000440  -0.000284   0.000689   0.000027  -0.000000
    28  H   -0.000277   0.002071  -0.000745  -0.000808  -0.001912  -0.000000
    29  O   -0.036908   0.257447  -0.358234  -0.219501   0.106582   0.000023
    30  C    0.097647   0.903928   0.107963  -1.091431   0.128255  -0.001029
    31  C   -0.145165   0.350978  -0.778019   0.035342  -0.117781  -0.000522
    32  C    0.026259  -1.245512  -0.361064   0.895912   0.065676   0.000560
    33  C   -0.112381   0.076518  -0.148219  -0.023015  -0.010876  -0.000395
    34  H   -0.001827  -0.012461   0.014313   0.004307  -0.001611  -0.000004
    35  C   -0.019334   0.123613   0.476308  -0.106005   0.023560   0.000073
    36  H   -0.000347  -0.003648   0.009317   0.000177  -0.000059  -0.000000
    37  H    0.000107  -0.001147   0.000270   0.000147  -0.000013   0.000000
    38  H   -0.000031  -0.000449   0.000589   0.000060   0.000001   0.000000
    39  C   -0.015861  -0.135040   0.012619   0.008483   0.080434  -0.000380
    40  H    0.015510  -0.048664   0.045843   0.018262  -0.009881  -0.000003
    41  H   -0.000707   0.007996  -0.000970  -0.006913   0.006403   0.000000
    42  H    0.008612   0.051435   0.037925  -0.094271  -0.018203  -0.000000
    43  C   -0.029678  -0.103863  -0.110773   0.073240  -0.003781  -0.000069
    44  H    0.000000  -0.000035  -0.000014  -0.000008   0.000000   0.000000
    45  N    0.004355  -0.010957  -0.055199   0.010042   0.002140   0.000001
    46  H   -0.000001   0.000191  -0.000307   0.000042   0.000001   0.000000
    47  N    0.322190  -0.100736   0.002437  -0.018770   0.300472  -0.050125
    48  C    0.004931   0.033853   0.195517  -0.066842  -0.005744  -0.000000
    49  H   -0.000000   0.000014   0.000408  -0.000497  -0.000041   0.000000
    50  H   -0.036612   0.016708   0.009893   0.013896  -0.029169  -0.002216
               7          8          9         10         11         12
     1  C   -0.017073   0.002772  -0.001085  -0.124400  -0.096518   0.090613
     2  C    0.317524  -0.000037   0.016870  -1.528066  -1.326140   0.740457
     3  C   -0.042706   0.016615   0.095511   0.889982  -2.654200   1.588161
     4  C   -0.031450   0.223133  -0.156293  -1.057097   1.586468  -1.195496
     5  C    0.005721  -0.010737   0.410757   0.468134   0.456291   0.112504
     6  H   -0.001863   0.000009  -0.000076   0.005418  -0.000053  -0.000135
     7  H    0.383218  -0.000074   0.000009   0.043215  -0.003602   0.001079
     8  H   -0.000074   0.386939  -0.001903   0.029336  -0.017780  -0.006733
     9  H    0.000009  -0.001903   0.366008   0.000663   0.000281   0.000933
    10  P    0.043215   0.029336   0.000663  19.708502  -0.593384  -0.217516
    11  C   -0.003602  -0.017780   0.000281  -0.593384  23.735142  -8.771222
    12  C    0.001079  -0.006733   0.000933  -0.217516  -8.771222  25.137414
    13  C    0.002058   0.009146  -0.001957  -0.227560  -3.587652  -9.413310
    14  C    0.000071   0.000009   0.000025  -0.249642   0.512525  -4.778836
    15  H   -0.000001  -0.000005  -0.000000   0.034847  -0.057944   0.369718
    16  C    0.000056   0.038502  -0.001311   0.780426  -0.753831   1.884273
    17  H   -0.000000   0.000629  -0.000002  -0.011184   0.122383  -0.025758
    18  H    0.000000   0.000000   0.000000   0.001801   0.068484  -0.080753
    19  H    0.000000  -0.000009   0.000000   0.002133   0.030500  -0.002836
    20  C   -0.010844   0.008462  -0.001588  -0.365729  -2.236961   1.371444
    21  C   -0.002862   0.011041  -0.000176  -3.110934  -0.060683  -5.543686
    22  C    0.000940  -0.009646   0.001973   1.182058   1.932637   3.443446
    23  C   -0.000166  -0.001159  -0.000013  -0.291045  -0.053723   0.213459
    24  H   -0.000000  -0.000001  -0.000000   0.043517   0.060853  -0.020428
    25  C   -0.002341  -0.003281   0.000495  -0.138235  -0.471770  -0.253348
    26  H   -0.000062  -0.000426  -0.000012   0.113702   0.009413   0.004616
    27  H   -0.000000  -0.000000  -0.000000   0.003881   0.004735   0.005122
    28  H   -0.000000  -0.000000  -0.000000   0.006348  -0.003330  -0.000392
    29  O    0.003631   0.001767   0.000023   0.000926   0.254413  -0.010105
    30  C   -0.009881   0.005104  -0.000070   0.728736  -0.735022  -1.321680
    31  C    0.026344  -0.000999   0.000262  -0.417454   0.921493  -2.429206
    32  C   -0.022443  -0.000659  -0.000087  -1.534636   1.038599   2.257960
    33  C    0.033168  -0.000275   0.000023   0.616087  -0.062979   0.147655
    34  H   -0.000582  -0.000001   0.000000   0.020085   0.001282   0.001173
    35  C    0.005721   0.000075   0.000001   0.381071  -1.188509   1.371538
    36  H   -0.000002  -0.000000   0.000000   0.069243   0.041595  -0.057249
[...]
 ,0.00001721,-0.00000062,0.00003326,0.00000243,-0.00001277,0.00035821,-
 0.00003233,0.00054794,-0.00010158,-0.00008133,0.00004149,0.00008437,-0
 .00006245,-0.00013031,0.00006293,0.00014616,-0.00012067,0.00004911,-0.
 00000183,-0.00002413,0.00001635,0.00000258,-0.00000062,0.00020501,-0.0
 0012201,0.00037213,-0.00001443,-0.00002676,-0.00006708,-0.12073042,0.8
 0927849,0.09044445,0.06023414,-0.11635476,0.02943499,-0.03517463,0.009
 51485,0.01772006,0.02365204,-0.02223378,-0.03384929,0.01588627,0.01937
 100,0.05135400,0.06920843,-0.10383630,0.01220806,0.00123802,-0.0023478
 9,0.00260873,0.00108449,0.00726361,0.00275964,0.00089117,0.00720506,0.
 00012488,0.01600563,-0.00175917,-0.00048683,0.00101135,-0.00186995,0.0
 0001279,0.00000626,0.00009032,-0.00000594,-0.00004320,-0.00000796,0.00
 005438,-0.00008084,0.00001490,0.00001249,0.00002195,-0.00000412,-0.000
 00740,0.00001883,0.00001719,-0.00003657,-0.00003675,-0.00000219,0.0000
 1230,-0.00002521,0.00000609,0.00000302,-0.00000507,0.00000144,-0.00000
 303,-0.00000620,0.00000093,-0.00031798,0.00010051,0.00010087,-0.000063
 94,-0.00006945,-0.00003269,-0.00000610,-0.00005578,0.00011001,-0.00000
 222,0.00004102,-0.00002033,-0.00000565,-0.00000237,-0.00000032,-0.0000
 3772,-0.00005069,0.00001568,0.00020119,-0.00000285,0.00006261,0.000010
 10,0.00000880,-0.00000959,-0.00000768,-0.00001156,0.00001275,0.0009890
 9,-0.00136479,-0.00075866,0.00002924,0.00000980,0.00003266,0.00003065,
 -0.00000251,0.00008269,-0.00001822,-0.00000727,0.00006746,-0.00003105,
 -0.00003649,0.00002214,0.00003369,-0.00006196,-0.00011381,0.00005231,0
 .00003048,-0.00000883,0.00000028,0.00000181,0.00000905,0.00001082,0.00
 000339,0.00000539,0.00000472,-0.00000008,-0.00000597,0.00039203,0.0004
 5879,0.00036329,-0.00004038,0.00009283,0.00008712,-0.00012457,-0.00002
 269,-0.00000060,-0.00012299,-0.00010243,0.00008362,0.00002102,-0.00002
 599,-0.00005337,0.00000526,0.00000152,-0.00000844,0.00001202,0.0000105
 8,0.00001142,0.00000691,0.00000438,-0.00000233,-0.21062618,-0.14129404
 ,0.24635762,-0.00001846,0.00001595,0.00000863,-0.00000978,-0.00002186,
 0.00000997,-0.00010213,0.00015677,-0.00008196,0.00011867,0.00008030,0.
 00000750,0.00001125,-0.00000155,0.00001149,-0.00000022,0.00000221,-0.0
 0000068,-0.00000055,0.00000263,-0.00000077,-0.00002977,-0.00004287,-0.
 00003665,-0.00000129,-0.00000069,0.00000192,-0.00066951,0.00134939,0.0
 0109166,-0.01615006,0.00548086,0.02344037,-0.00057588,-0.03775346,-0.0
 0160649,0.01981228,0.01861294,-0.02008504,-0.12406414,-0.03113309,0.11
 300119,0.00664748,-0.00207361,0.00193521,-0.09005684,0.00261923,0.0522
 5079,0.00595505,-0.00356536,0.00251951,0.00137391,-0.00311839,0.004194
 92,0.00153160,0.00994841,0.01030926,0.00003453,0.00017338,0.00001713,0
 .00032666,0.00013456,0.00019923,-0.00002811,-0.00003139,-0.00022546,0.
 00004767,-0.00002985,-0.00028519,-0.00000849,0.00006137,0.00010611,0.0
 0010655,-0.00010364,0.00012899,0.00001528,0.00001614,-0.00000196,0.000
 00424,0.00000193,-0.00000281,-0.00000076,0.00000054,-0.00000480,0.0001
 2339,-0.00053307,0.00009042,0.00004071,-0.00024829,-0.00009244,-0.0000
 8251,-0.00000072,0.00007845,-0.00001097,-0.00005215,-0.00009961,-0.000
 03735,-0.00001191,0.00001249,0.00000595,0.00000218,0.00000496,0.000046
 15,0.00001633,0.00001778,0.00002504,0.00005204,-0.00000619,-0.00001635
 ,-0.00000007,-0.00000641,-0.00000683,-0.00000108,0.00000400,-0.0000320
 0,-0.00014717,-0.00011427,-0.00003343,-0.00007713,0.00007766,-0.000005
 38,0.00002579,0.00003761,-0.00011879,-0.00013587,0.00017052,-0.0000101
 8,-0.00003092,-0.00002690,-0.00000290,-0.00000063,0.00000100,-0.000171
 47,0.00015270,0.00014062,-0.00000796,0.00001129,-0.00001061,0.00002202
 ,-0.00000106,-0.00001966,0.25895505,-0.00007430,-0.00002687,0.00004097
 ,0.00019517,-0.00009491,-0.00006856,-0.00027829,-0.00013044,0.00013369
 ,-0.00002166,-0.00005005,0.00004594,-0.00005160,0.00009033,-0.00000636
 ,0.00001940,-0.00000880,-0.00000365,-0.00000762,0.00001076,-0.00000276
 ,-0.00010610,0.00007527,0.00002097,0.00000707,-0.00001549,0.00000102,0
 .00100019,0.00239385,-0.00084182,0.00560095,-0.00330230,-0.01142921,-0
 .01668271,-0.00318694,0.03424079,-0.00229727,-0.04087802,-0.01840181,-
 0.05920555,-0.15884635,0.08724679,-0.00243947,-0.00499824,-0.00075050,
 0.03098552,-0.22113874,-0.14001000,-0.00321934,-0.00442247,0.00063846,
 0.00943193,0.01125598,-0.01792019,-0.00295439,0.01103055,0.00987180,0.
 00010165,-0.00038490,0.00013617,-0.00020872,-0.00001667,-0.00023504,-0
 .00016470,0.00000839,-0.00012413,0.00001114,0.00005643,0.00029623,0.00
 006656,-0.00008135,-0.00003059,0.00007865,0.00000386,0.00005665,-0.000
 00965,-0.00001386,0.00001797,-0.00001373,-0.00001256,-0.00001251,-0.00
 000690,0.00000325,-0.00001865,0.00027368,-0.00062503,0.00037220,0.0001
 6570,-0.00011526,-0.00006653,-0.00007700,0.00002240,0.00010472,-0.0000
 1220,0.00001510,-0.00000753,-0.00000914,-0.00002140,-0.00002868,0.0000
 1280,0.00000640,-0.00000417,-0.00003148,0.00000799,-0.00002177,0.00010
 571,-0.00000257,-0.00001495,-0.00001682,-0.00000648,0.00000034,-0.0000
 1554,-0.00000079,0.00000691,-0.00039113,0.00003138,-0.00015980,0.00006
 948,0.00000479,0.00001774,0.00000818,-0.00000759,0.00004655,0.00000519
 ,0.00003912,-0.00009498,-0.00002466,-0.00001246,0.00001167,-0.00000665
 ,-0.00000583,0.00000515,0.00001820,-0.00007771,-0.00026967,0.00001754,
 -0.00000430,0.00003746,0.00006569,-0.00008730,-0.00000002,0.11128241,0
 .74293966,0.00002689,-0.00004112,-0.00003326,0.00002520,0.00000987,-0.
 00002941,0.00029391,-0.00019197,0.00019891,-0.00006865,-0.00020510,0.0
 0002210,-0.00009479,-0.00000609,-0.00000866,0.00000666,0.00000123,0.00
 000622,0.00000321,-0.00000617,0.00000767,-0.00018832,0.00011580,0.0000
 7632,0.00000423,-0.00000749,0.00000032,0.00044340,-0.00146384,-0.00325
 164,0.02099450,-0.01011948,-0.06425295,0.00997084,0.08105335,0.0264772
 9,-0.02922793,-0.06650126,0.04281160,0.09913427,0.02320314,-0.27402281
 ,0.00178525,-0.00074965,0.00220132,0.06675209,-0.07628483,-0.24515596,
 0.00219171,0.00114694,0.00205481,0.01052659,0.01048147,-0.01381156,0.0
 0406425,-0.01836380,-0.01369475,0.00025118,-0.00067945,0.00006163,-0.0
 0040366,-0.00001420,-0.00031010,-0.00006131,-0.00000234,0.00015853,-0.
 00009228,0.00010465,0.00042268,0.00000224,-0.00007698,-0.00013589,-0.0
 0008318,0.00015503,-0.00021964,-0.00000889,-0.00001209,0.00001025,-0.0
 0001167,-0.00001682,0.00000827,0.00000839,0.00000969,-0.00001465,0.000
 12658,0.00078332,-0.00056620,0.00007600,0.00030145,0.00007416,-0.00000
 198,-0.00002147,-0.00013151,0.00002822,0.00011012,0.00009408,0.0001074
 8,0.00001732,-0.00001247,-0.00000271,0.00001118,-0.00001897,-0.0000904
 2,-0.00002219,-0.00002653,-0.00005055,-0.00003739,0.00008041,0.0000175
 3,-0.00000547,0.00001202,0.00000475,0.00000315,-0.00001304,-0.00000256
 ,0.00029303,0.00017548,0.00005568,0.00010957,-0.00013923,-0.00001390,-
 0.00005493,-0.00004130,0.00019509,0.00013226,-0.00020571,0.00000703,0.
 00007930,0.00005581,0.00000728,-0.00000131,0.00000338,0.00021134,-0.00
 027525,-0.00022687,0.00002389,-0.00000173,0.00001763,0.00000677,-0.000
 06714,0.00002468,-0.20003908,0.03636370,0.60088423,0.00000049,0.000009
 86,-0.00000578,-0.00002855,0.00001632,0.00001735,0.00007172,0.00010977
 ,-0.00004888,0.00000773,-0.00001989,-0.00000209,-0.00000254,-0.0000023
 7,0.00000112,-0.00000293,0.00000093,-0.00000087,-0.00000018,0.00000098
 ,0.00000076,-0.00000301,-0.00000120,0.00000082,0.00000068,0.00000085,0
 .00000124,-0.00079290,0.00030602,-0.00020607,-0.00103038,0.00038415,0.
 00033578,0.00509501,-0.00157165,0.00502119,0.00589314,-0.00023416,0.00
 367723,0.00174843,-0.01398954,0.00024977,-0.00030032,-0.00061963,-0.00
 018848,0.00645152,0.00700488,-0.00009340,-0.00005651,0.00040554,-0.000
 16648,-0.00308997,0.00107154,-0.00190992,-0.00316541,0.00060866,-0.001
 92957,0.00002192,-0.00010127,-0.00005108,0.00004208,0.00000453,0.00003
 302,-0.00001747,0.00003102,-0.00003489,0.00000791,-0.00000082,-0.00003
 050,0.00000484,-0.00000567,0.00001390,0.00000747,-0.00001783,-0.000016
 63,0.00000042,-0.00000143,0.00000226,-0.00000186,-0.00000277,-0.000003
 31,-0.00000136,0.00000196,-0.00000442,0.00003454,-0.00010961,-0.000111
 67,0.00004399,-0.00014803,-0.00005153,-0.00003963,0.00000231,0.0000397
 6,0.00000863,0.00002181,0.00000443,-0.00001211,-0.00000628,-0.00001211
 ,0.00000364,0.00000021,0.00000323,-0.00000068,0.00000567,-0.00001165,0
 .00001615,-0.00000159,0.00000028,-0.00000633,-0.00000155,-0.00000066,-
 0.00000254,0.00000008,0.00000206,0.00000120,0.00001514,-0.00001618,0.0
 0000109,-0.00000679,0.00000135,0.00000169,0.00000481,0.00000046,-0.000
 00369,-0.00000217,0.00002391,-0.00000530,-0.00000743,0.00000110,-0.000
 00095,-0.00000224,0.00000229,-0.00000708,0.00000854,0.00001510,-0.0000
 0151,-0.00000188,-0.00000027,0.00000217,-0.00000068,0.00000004,-0.0629
 4603,-0.07117913,0.01309564,0.05205252,-0.00002204,-0.00000444,0.00001
 241,0.00004794,-0.00003083,-0.00001540,-0.00008951,-0.00004453,0.00002
 255,0.00001622,0.00000550,0.00000010,-0.00001551,0.00001777,0.00000323
 ,0.00000482,-0.00000229,-0.00000095,-0.00000262,0.00000279,-0.00000090
 ,-0.00004386,0.00003002,0.00000224,0.00000158,-0.00000334,-0.00000036,
 0.00027679,0.00043216,-0.00002294,0.00034999,0.00028437,-0.00018710,-0
 .00183735,0.00142599,0.00105921,0.00004503,-0.00025114,-0.00372762,-0.
 00128877,-0.00475258,-0.00174545,0.00001335,-0.00034456,-0.00011321,-0
 .00578786,-0.01320104,0.00412901,-0.00025054,-0.00078709,0.00027467,0.
 00080021,0.00052970,0.00048884,0.00086823,0.00071717,0.00039065,0.0000
 0193,-0.00007101,0.00004049,-0.00003913,-0.00000473,-0.00004819,-0.000
 03717,0.00000068,-0.00004662,0.00000567,0.00001637,0.00006811,0.000012
 40,-0.00000628,0.00000228,0.00002741,-0.00000226,0.00002496,-0.0000001
 9,-0.00000149,0.00000360,-0.00000125,-0.00000089,-0.00000333,-0.000003
 00,-0.00000031,-0.00000405,0.00007307,-0.00017830,0.00018212,0.0000282
 7,-0.00002677,-0.00000871,-0.00001632,0.00000379,0.00002436,-0.0000072
 6,0.00000097,-0.00000300,-0.00000730,-0.00000529,-0.00000493,0.0000032
 8,0.00000147,0.00000073,-0.00000221,-0.00000289,-0.00000151,0.00002483
 ,0.00000315,-0.00001060,-0.00000471,-0.00000239,-0.00000038,-0.0000039
 5,0.00000035,0.00000239,-0.00008905,-0.00001077,-0.00005283,0.00001300
 ,-0.00001207,0.00001142,0.00000518,0.00000481,0.00000997,-0.00001083,0
 .00000709,-0.00001126,-0.00000746,-0.00000405,0.00000035,-0.00000271,-
 0.00000153,0.00000053,-0.00000496,-0.00001287,-0.00006420,0.00000484,-
 0.00000125,0.00001133,0.00002322,-0.00002650,-0.00000232,-0.07108530,-
 0.32943171,0.02074718,0.07801995,0.34573731,0.00000976,0.00000307,-0.0
 0000828,-0.00002813,0.00001943,0.00001022,0.00007028,0.00005942,-0.000
 01392,0.00000048,0.00000004,-0.00000307,-0.00000399,-0.00000816,0.0000
 0362,-0.00000240,0.00000106,0.00000022,0.00000020,-0.00000158,0.000001
 47,-0.00002365,0.00001458,-0.00000252,-0.00000014,0.00000063,0.0000009
 9,-0.00045567,0.00003734,-0.00021683,-0.00011426,-0.00007565,-0.000885
 73,0.00496220,0.00069604,-0.00300214,0.00373548,-0.00345588,-0.0021166
 5,0.00664364,0.02630190,0.00302526,0.00013660,0.00123474,-0.00003506,-
 0.00591460,-0.02400364,0.00668805,-0.00045050,-0.00114846,0.00007627,-
 0.00204915,-0.00012509,0.00030639,-0.00178312,0.00100206,0.00019012,0.
 00005180,0.00002395,-0.00000891,0.00000226,-0.00000717,0.00001463,-0.0
 0001955,-0.00000406,-0.00001139,0.00000698,0.00000016,0.00001130,0.000
 00196,-0.00000490,0.00000136,0.00000691,-0.00000989,0.00001822,0.00000
 133,0.00000140,-0.00000035,-0.00000062,-0.00000106,-0.00000070,0.00000
 123,0.00000157,-0.00000113,-0.00004532,0.00015908,0.00001055,0.0000291
 5,-0.00007611,-0.00000305,-0.00001662,-0.00000340,0.00001561,-0.000004
 20,-0.00000699,-0.00001332,-0.00000506,0.00000023,-0.00000651,0.000000
 40,-0.00000028,0.00000354,-0.00000013,0.00001075,0.00000503,-0.0000318
 0,-0.00000822,0.00001065,-0.00000233,0.00000010,0.00000006,-0.00000037
 ,-0.00000003,-0.00000008,0.00006146,0.00000108,0.00003224,-0.00000379,
 0.00000666,-0.00000667,-0.00000006,-0.00000471,-0.00000302,0.00000947,
 0.00000016,0.00000486,0.00000205,-0.00000192,-0.00000064,0.00000074,0.
 00000047,0.00000158,-0.00000656,0.00000543,-0.00001494,0.00000010,-0.0
 0000142,0.00000334,-0.00000541,-0.00000138,0.00000165,0.01288080,0.020
 80766,-0.05962654,-0.01764831,-0.02143754,0.05554354,-0.01874427,0.019
 93689,0.00150811,-0.00179871,-0.00247450,0.00406867,-0.00081014,-0.001
 37065,0.00046461,0.00314616,-0.00310925,0.00245775,0.01213520,-0.00577
 317,-0.00279741,0.00038238,-0.00052266,-0.00146248,-0.00034268,0.00087
 798,0.00004305,0.00058208,-0.00046426,0.00009500,0.00019444,-0.0009661
 5,-0.00131096,-0.00102179,0.00070959,0.00002165,0.00009527,-0.00002064
 ,-0.00003683,-0.00001742,-0.00001986,0.00006630,-0.00001063,0.00001660
 ,-0.00000830,-0.00000908,-0.00002180,-0.00001034,0.00000072,0.00001305
 ,0.00000348,-0.00000145,-0.00000609,-0.00000382,0.00001069,0.00000523,
 -0.00002551,-0.00000070,-0.00001131,-0.00000208,-0.00000288,-0.0000076
 4,0.00000475,0.00012432,-0.00015741,-0.00006954,0.00002452,0.00003277,
 0.00011874,-0.00000357,0.00008578,0.00006288,0.00002307,-0.00003656,-0
 .00001977,0.00000035,-0.00000163,-0.00000681,-0.00001765,-0.00000586,-
 0.00006222,-0.00002879,-0.00005541,-0.00008803,0.00000236,0.00000205,0
 .00001250,0.00000515,0.00000045,0.00000298,0.00023734,-0.00032607,-0.0
 0063227,0.00000053,-0.00008347,-0.00000890,0.00000657,0.00000458,-0.00
 002200,0.00004123,0.00002715,0.00003929,0.00000177,0.00000237,-0.00000
 375,-0.00001138,-0.00000711,0.00000076,0.00000916,0.00000225,-0.000017
 68,-0.00000814,-0.00000045,0.00000305,0.00000456,0.00000424,0.00000065
 ,0.00000878,0.00000077,-0.00000404,0.00018981,0.00006432,0.00014040,-0
 .00001807,-0.00000048,0.00002713,-0.00000959,-0.00001812,-0.00003411,-
 0.00001552,0.00001690,0.00000486,0.00001511,-0.00000228,-0.00000101,0.
 00000434,0.00000090,-0.00000068,0.00004281,-0.00002124,0.00006603,-0.0
 0000349,-0.00000273,-0.00001475,-0.26750333,0.18759781,0.03726424,-0.0
 0000538,-0.00001705,-0.00000622,0.00000028,-0.00000634,0.00000047,0.27
 309567,-0.00924805,0.01457344,-0.00053136,-0.00361837,0.00209068,0.002
 82705,-0.00127658,-0.00110813,0.00037971,-0.00195150,-0.00322619,0.003
 54338,0.02381719,-0.01882739,-0.00360634,-0.00092563,0.00034406,-0.000
 84658,-0.00058417,0.00064280,0.00017840,0.00097907,-0.00035467,-0.0001
 2932,-0.00054896,0.00057843,-0.00102278,0.00068774,-0.00078775,-0.0003
 0036,-0.00008078,0.00001139,0.00003478,0.00000558,0.00003338,-0.000054
 59,-0.00000943,0.00001218,0.00004814,0.00000633,0.00000887,0.00000698,
 0.00000133,-0.00001095,-0.00000552,0.00001436,0.00001369,-0.00000400,-
 0.00000649,-0.00001487,-0.00000766,0.00000262,0.00000910,0.00000209,0.
 00000419,0.00000558,-0.00000227,-0.00021897,0.00024466,0.00006359,-0.0
 0001956,-0.00003527,-0.00016293,0.00002380,-0.00002450,-0.00006531,-0.
 00003448,0.00004258,0.00002612,0.00000124,0.00000153,0.00000716,0.0000
 1992,-0.00000229,0.00005767,0.00001561,0.00001829,0.00009040,-0.000004
 19,-0.00000404,-0.00001505,-0.00000318,0.00000361,-0.00000757,-0.00017
 616,0.00035510,0.00039604,0.00002467,0.00005144,0.00000029,0.00002084,
 -0.00000413,0.00001468,-0.00002937,-0.00002165,-0.00005307,0.00000505,
 0.00000472,-0.00000269,0.00000765,0.00001877,0.00002348,-0.00001703,-0
 .00000779,0.00001951,0.00000668,0.00000060,-0.00000235,-0.00000734,-0.
 00000428,-0.00000127,-0.00000766,-0.00000074,0.00000446,-0.00014325,-0
 .00008892,-0.00010599,0.00002036,-0.00000499,-0.00005117,0.00000486,0.
 00001938,0.00002591,0.00001605,-0.00000576,-0.00000125,-0.00001693,0.0
 0000653,0.00000989,-0.00000494,-0.00000043,0.00000188,-0.00003866,0.00
 001273,-0.00006382,0.00000369,0.00000335,0.00001392,0.18717244,-0.2436
 3380,-0.01153727,0.00000179,0.00001190,-0.00000321,0.00000009,0.000003
 72,-0.00000144,-0.19389147,0.24904600,0.00980697,-0.01145080,-0.000118
 69,0.00453287,0.00230540,0.00482845,0.00007757,0.00024797,-0.00115942,
 0.00204927,0.00411736,0.00551392,-0.01079703,0.00723173,0.00237039,-0.
 00134923,-0.00098585,-0.00311371,0.00047100,-0.00034169,0.00033694,-0.
 00029280,0.00040456,0.00043330,-0.00140586,-0.00086727,-0.00322682,-0.
 00026162,-0.00018803,-0.00071165,0.00003938,-0.00001015,0.00001690,-0.
 00001078,-0.00000817,-0.00001322,-0.00003023,0.00000036,0.00000593,-0.
 00000313,0.00001038,-0.00000801,0.00000171,0.00000195,0.00000073,0.000
 00777,-0.00001175,0.00000066,0.00000516,-0.00000305,0.00000877,0.00000
 297,-0.00000003,0.00000131,0.00000011,0.00000205,-0.00000120,-0.000164
 17,0.00020166,0.00002645,-0.00001315,-0.00002389,-0.00010688,-0.000015
 22,0.00001055,-0.00002044,-0.00002007,0.00002371,0.00001006,0.00000181
 ,-0.00000066,0.00000317,0.00001723,-0.00000285,0.00002313,0.00000327,0
 .00000073,0.00003274,-0.00000244,-0.00000274,-0.00000891,-0.00000508,0
 .00000235,-0.00000688,0.00013042,-0.00005751,-0.00025160,0.00002866,0.
 00001668,0.00000627,-0.00000773,0.00002792,0.00000976,-0.00001785,-0.0
 0000169,-0.00000030,-0.00000807,-0.00001569,0.00001128,0.00000774,-0.0
 0000984,-0.00001056,0.00001261,0.00000337,0.00000091,0.00000012,-0.000
 00132,0.00000112,-0.00000116,-0.00000116,0.00000232,-0.00000051,-0.000
 00125,0.00000087,0.00009152,-0.00001031,0.00005516,0.00000609,0.000001
 08,-0.00003290,-0.00002063,0.00000140,0.00000001,-0.00001249,-0.000003
 81,0.00001129,-0.00000238,-0.00000585,-0.00000957,0.00000044,-0.000000
 25,-0.00000059,-0.00001100,0.00000529,-0.00002881,-0.00000043,0.000001
 12,0.00000519,0.03698871,-0.01142464,-0.04150507,-0.00000321,0.0000023
 6,0.00000985,0.00000070,0.00000068,0.00000069,-0.03982784,0.01080962,0
 .03660766\\0.00009710,-0.00010107,-0.00001056,0.00016274,0.00017582,-0
 .00002001,0.00012379,-0.00002169,-0.00006827,0.00004998,-0.00008771,0.
 00033439,-0.00007710,0.00007280,0.00002797,0.00000908,0.00000830,-0.00
 005137,0.00005828,-0.00003674,0.00001778,0.00000119,-0.00006357,-0.000
 01246,0.00000526,-0.00002920,-0.00001379,-0.00012329,0.00011202,0.0003
 3024,0.00001407,-0.00012329,-0.00006305,0.00003135,0.00007858,0.000013
 10,-0.00014587,0.00018383,-0.00010119,-0.00000125,-0.00003442,0.000032
 76,-0.00006748,0.00000193,0.00000791,-0.00000067,0.00003442,-0.0000205
 2,0.00006546,0.00001396,-0.00003461,-0.00001343,-0.00000237,0.00001426
 ,0.00001096,0.00000776,0.00001863,-0.00017863,0.00000539,-0.00002812,0
 .00003122,-0.00016934,0.00001882,-0.00007806,0.00000005,-0.00002968,0.
 00002644,0.00000560,-0.00003719,0.00000072,-0.00002696,0.00005566,-0.0
 0000537,0.00004892,-0.00003600,-0.00003595,0.00009243,-0.00008074,0.00
 000115,0.00000254,0.00001277,-0.00001792,0.00000803,0.00002978,0.00004
 067,-0.00014926,-0.00014260,0.00010615,0.00001667,-0.00000572,-0.00011
 802,-0.00000220,-0.00011150,-0.00010064,0.00008764,0.00003167,-0.00001
 830,-0.00003351,-0.00001508,0.00007261,-0.00003822,-0.00002585,0.00002
 677,-0.00003953,-0.00001954,0.00006508,-0.00003458,0.00001253,0.000004
 59,-0.00000928,0.00001286,0.00000636,-0.00000587,0.00001764,0.00002267
 ,-0.00000397,-0.00005794,-0.00002482,-0.00000851,0.00001309,0.00002396
 ,0.00000295,0.00001358,-0.00001338,-0.00005368,0.00000850,0.00001978,-
 0.00003996,0.00001431,-0.00000326,0.00000322,-0.00001257,-0.00004206,0
 .00001551,0.00000772,0.00000554,0.00001305,0.00000717,-0.00001934,0.00
 009765,-0.00007148,0.00000264,0.00000063,0.00001727,-0.00000618,-0.000
 00238,0.00002029,0.00000541,0.00002761,-0.00002089\\\@


 GOD GAVE US TWO ENDS... ONE TO SIT ON...    
 AND THE OTHER TO THINK WITH...              
 YOUR SUCCESS DEPENDS UPON WHICH END YOU     
 USE THE MOST...                             
                                             
 IT'S A CASE OF HEADS YOU WIN TAILS YOU LOSE.
          SOURCE UNKNOWN(IT'S JUST AS WELL.) 
 Job cpu time:       1 days  8 hours 24 minutes 51.3 seconds.
 Elapsed time:       0 days  1 hours 21 minutes 11.5 seconds.
 File lengths (MBytes):  RWF=   2320 Int=      0 D2E=      0 Chk=     56 Scr=     16
 Normal termination of Gaussian 16 at Fri Mar 16 14:46:30 2018.
