Job Start Time: Thu Mar 15 12:34:40 MDT 2018
SLURM Job ID: 695347
SLURM Job Name: Int3_1Ph1Pyr_SMD
 Entering Gaussian System, Link 0=/projects/user/g16/g16
 Initial command:
 /projects/user/g16/l1.exe "/gpfs/summit/scratch/user/695347/Gau-65635.inp" -scrdir="/gpfs/summit/scratch/user/695347/"
 Entering Link 1 = /projects/user/g16/l1.exe PID=     65636.
  
 Copyright (c) 1988,1990,1992,1993,1995,1998,2003,2009,2016,
            Gaussian, Inc.  All Rights Reserved.
  
 This is part of the Gaussian(R) 16 program.  It is based on
 the Gaussian(R) 09 system (copyright 2009, Gaussian, Inc.),
 the Gaussian(R) 03 system (copyright 2003, Gaussian, Inc.),
 the Gaussian(R) 98 system (copyright 1998, Gaussian, Inc.),
 the Gaussian(R) 94 system (copyright 1995, Gaussian, Inc.),
 the Gaussian 92(TM) system (copyright 1992, Gaussian, Inc.),
 the Gaussian 90(TM) system (copyright 1990, Gaussian, Inc.),
 the Gaussian 88(TM) system (copyright 1988, Gaussian, Inc.),
 the Gaussian 86(TM) system (copyright 1986, Carnegie Mellon
 University), and the Gaussian 82(TM) system (copyright 1983,
 Carnegie Mellon University). Gaussian is a federally registered
 trademark of Gaussian, Inc.
  
 This software contains proprietary and confidential information,
 including trade secrets, belonging to Gaussian, Inc.
  
 This software is provided under written license and may be
 used, copied, transmitted, or stored only in accord with that
 written license.
  
 The following legend is applicable only to US Government
 contracts under FAR:
  
                    RESTRICTED RIGHTS LEGEND
  
 Use, reproduction and disclosure by the US Government is
 subject to restrictions as set forth in subparagraphs (a)
 and (c) of the Commercial Computer Software - Restricted
 Rights clause in FAR 52.227-19.
  
 Gaussian, Inc.
 340 Quinnipiac St., Bldg. 40, Wallingford CT 06492
  
  
 ---------------------------------------------------------------
 Warning -- This program may not be used in any manner that
 competes with the business of Gaussian, Inc. or will provide
 assistance to any competitor of Gaussian, Inc.  The licensee
 of this program is prohibited from giving any competitor of
 Gaussian, Inc. access to this program.  By using this program,
 the user acknowledges that Gaussian, Inc. is engaged in the
 business of creating and licensing software in the field of
 computational chemistry and represents and warrants to the
 licensee that it is not a competitor of Gaussian, Inc. and that
 it will not use this program in any manner prohibited above.
 ---------------------------------------------------------------
  

 Cite this work as:
 Gaussian 16, Revision A.03,
 M. J. Frisch, G. W. Trucks, H. B. Schlegel, G. E. Scuseria, 
 M. A. Robb, J. R. Cheeseman, G. Scalmani, V. Barone, 
 G. A. Petersson, H. Nakatsuji, X. Li, M. Caricato, A. V. Marenich, 
 J. Bloino, B. G. Janesko, R. Gomperts, B. Mennucci, H. P. Hratchian, 
 J. V. Ortiz, A. F. Izmaylov, J. L. Sonnenberg, D. Williams-Young, 
 F. Ding, F. Lipparini, F. Egidi, J. Goings, B. Peng, A. Petrone, 
 T. Henderson, D. Ranasinghe, V. G. Zakrzewski, J. Gao, N. Rega, 
 G. Zheng, W. Liang, M. Hada, M. Ehara, K. Toyota, R. Fukuda, 
 J. Hasegawa, M. Ishida, T. Nakajima, Y. Honda, O. Kitao, H. Nakai, 
 T. Vreven, K. Throssell, J. A. Montgomery, Jr., J. E. Peralta, 
 F. Ogliaro, M. J. Bearpark, J. J. Heyd, E. N. Brothers, K. N. Kudin, 
 V. N. Staroverov, T. A. Keith, R. Kobayashi, J. Normand, 
 K. Raghavachari, A. P. Rendell, J. C. Burant, S. S. Iyengar, 
 J. Tomasi, M. Cossi, J. M. Millam, M. Klene, C. Adamo, R. Cammi, 
 J. W. Ochterski, R. L. Martin, K. Morokuma, O. Farkas, 
 J. B. Foresman, and D. J. Fox, Gaussian, Inc., Wallingford CT, 2016.
 
 ******************************************
 Gaussian 16:  ES64L-G16RevA.03 25-Dec-2016
                15-Mar-2018 
 ******************************************
 %mem=98GB
 %nprocshared=24
 Will use up to   24 processors via shared memory.
 %chk=Int3_SNdxklof.chk
 ----------------------------------------------------------------------
 # wb97xd/6-31+g(d) opt=(maxcycles=200) scrf=(solvent=ethanol,smd) freq
 =noraman geom=connectivity
 ----------------------------------------------------------------------
 1/6=200,18=20,19=15,26=3,38=1,57=2/1,3;
 2/9=110,12=2,17=6,18=5,40=1/2;
 3/5=1,6=6,7=11,11=2,25=1,30=1,70=32201,71=1,72=4,74=-58/1,2,3;
 4//1;
 5/5=2,38=5,53=4/2;
 6/7=2,8=2,9=2,10=2,28=1/1;
 7//1,2,3,16;
 1/6=200,18=20,19=15,26=3/3(2);
 2/9=110/2;
 99//99;
 2/9=110/2;
 3/5=1,6=6,7=11,11=2,25=1,30=1,70=32205,71=1,72=4,74=-58/1,2,3;
 4/5=5,16=3,69=1/1;
 5/5=2,38=5,53=4/2;
 7//1,2,3,16;
 1/6=200,18=20,19=15,26=3/3(-5);
 2/9=110/2;
 6/7=2,8=2,9=2,10=2,19=2,28=1/1;
 99/9=1/99;
 -------------------
 Title Card Required
 -------------------
 Symbolic Z-matrix:
 Charge =  2 Multiplicity = 1
 C                     1.12873   3.07342  -2.13083 
 C                     1.04293   1.81297  -1.54559 
 C                     0.35469   1.64478  -0.33995 
 C                    -0.19793   2.75885   0.29807 
 C                    -0.07572   4.02486  -0.26767 
 H                     1.65011   3.19347  -3.07544 
 H                     1.54088   0.97087  -2.01767 
 H                    -0.71488   2.64274   1.24774 
 H                    -0.48711   4.88846   0.24591 
 P                     0.22198   0.00147   0.46274 
 C                    -1.82895   0.30613   0.6407 
 C                    -2.59023   0.00639   1.78415 
 C                    -2.55347   0.71609  -0.49647 
 C                    -3.96587   0.08905   1.7687 
 H                    -2.09989  -0.29616   2.70114 
 C                    -3.92465   0.79179  -0.48566 
 H                    -2.03864   0.98128  -1.41526 
 H                    -4.59406  -0.13582   2.62282 
 H                    -4.52205   1.09753  -1.3363 
 C                     2.05625  -0.41357   0.33517 
 C                     2.51927  -1.69102   0.00036 
 C                     3.00903   0.5722    0.63751 
 C                     3.88509  -1.97503  -0.03523 
 H                     1.82253  -2.48753  -0.24154 
 C                     4.37068   0.29296   0.60705 
 H                     2.69006   1.57958   0.89594 
 C                     4.81366  -0.98542   0.26873 
 H                     4.21858  -2.97287  -0.30436 
 H                     5.08727   1.0744    0.84227 
 H                     5.87658  -1.20509   0.23918 
 C                     0.57324   4.18014  -1.49128 
 H                     0.65909   5.16535  -1.93936 
 O                     0.12382  -0.11142   2.09565 
 C                    -0.39847  -1.41541  -0.54716 
 C                    -0.90471  -2.53328   0.11886 
 C                    -0.41458  -1.42143  -1.94039 
 C                    -1.412    -3.58869  -0.63408 
 H                    -0.90937  -2.59105   1.20427 
 C                    -0.96489  -2.5222   -2.59612 
 H                    -0.01653  -0.59737  -2.52333 
 H                    -1.80146  -4.4761   -0.14108 
 H                    -1.00375  -2.54665  -3.68248 
 N                    -1.45886  -3.59014  -1.96813 
 C                     1.16493  -0.46754   3.01908 
 H                     0.6535   -0.61653   3.97152 
 H                     1.67271  -1.38608   2.72015 
 H                     1.89218   0.34049   3.11291 
 N                    -4.59922   0.47301   0.64204 
 H                    -5.61152   0.52998   0.64146 
 H                    -1.84784  -4.3593   -2.47516 
 
 Add virtual bond connecting atoms C11        and P10        Dist= 3.93D+00.

 GradGradGradGradGradGradGradGradGradGradGradGradGradGradGradGradGradGrad
 Berny optimization.
 Initialization pass.
                           ----------------------------
                           !    Initial Parameters    !
                           ! (Angstroms and Degrees)  !
 --------------------------                            --------------------------
 ! Name  Definition              Value          Derivative Info.                !
 --------------------------------------------------------------------------------
 ! R1    R(1,2)                  1.3923         estimate D2E/DX2                !
 ! R2    R(1,6)                  1.0856         estimate D2E/DX2                !
 ! R3    R(1,31)                 1.3937         estimate D2E/DX2                !
 ! R4    R(2,3)                  1.3984         estimate D2E/DX2                !
 ! R5    R(2,7)                  1.0863         estimate D2E/DX2                !
 ! R6    R(3,4)                  1.3977         estimate D2E/DX2                !
 ! R7    R(3,10)                 1.8337         estimate D2E/DX2                !
 ! R8    R(4,5)                  1.392          estimate D2E/DX2                !
 ! R9    R(4,8)                  1.0875         estimate D2E/DX2                !
 ! R10   R(5,9)                  1.0857         estimate D2E/DX2                !
 ! R11   R(5,31)                 1.3937         estimate D2E/DX2                !
 ! R12   R(10,11)                2.0811         estimate D2E/DX2                !
 ! R13   R(10,20)                1.885          estimate D2E/DX2                !
 ! R14   R(10,33)                1.6398         estimate D2E/DX2                !
 ! R15   R(10,34)                1.8473         estimate D2E/DX2                !
 ! R16   R(11,12)                1.406          estimate D2E/DX2                !
 ! R17   R(11,13)                1.4093         estimate D2E/DX2                !
 ! R18   R(12,14)                1.3782         estimate D2E/DX2                !
 ! R19   R(12,15)                1.083          estimate D2E/DX2                !
 ! R20   R(13,16)                1.3733         estimate D2E/DX2                !
 ! R21   R(13,17)                1.0861         estimate D2E/DX2                !
 ! R22   R(14,18)                1.0838         estimate D2E/DX2                !
 ! R23   R(14,48)                1.3483         estimate D2E/DX2                !
 ! R24   R(16,19)                1.0835         estimate D2E/DX2                !
 ! R25   R(16,48)                1.3522         estimate D2E/DX2                !
 ! R26   R(20,21)                1.3994         estimate D2E/DX2                !
 ! R27   R(20,22)                1.4039         estimate D2E/DX2                !
 ! R28   R(21,23)                1.3955         estimate D2E/DX2                !
 ! R29   R(21,24)                1.0855         estimate D2E/DX2                !
 ! R30   R(22,25)                1.3903         estimate D2E/DX2                !
 ! R31   R(22,26)                1.0878         estimate D2E/DX2                !
 ! R32   R(23,27)                1.3907         estimate D2E/DX2                !
 ! R33   R(23,28)                1.086          estimate D2E/DX2                !
 ! R34   R(25,27)                1.3946         estimate D2E/DX2                !
 ! R35   R(25,29)                1.086          estimate D2E/DX2                !
 ! R36   R(27,30)                1.0858         estimate D2E/DX2                !
 ! R37   R(31,32)                1.0857         estimate D2E/DX2                !
 ! R38   R(33,44)                1.4365         estimate D2E/DX2                !
 ! R39   R(34,35)                1.3962         estimate D2E/DX2                !
 ! R40   R(34,36)                1.3933         estimate D2E/DX2                !
 ! R41   R(35,37)                1.3922         estimate D2E/DX2                !
 ! R42   R(35,38)                1.087          estimate D2E/DX2                !
 ! R43   R(36,39)                1.3945         estimate D2E/DX2                !
 ! R44   R(36,40)                1.085          estimate D2E/DX2                !
 ! R45   R(37,41)                1.0873         estimate D2E/DX2                !
 ! R46   R(37,43)                1.3349         estimate D2E/DX2                !
 ! R47   R(39,42)                1.0873         estimate D2E/DX2                !
 ! R48   R(39,43)                1.3337         estimate D2E/DX2                !
 ! R49   R(43,50)                1.0            estimate D2E/DX2                !
 ! R50   R(44,45)                1.0913         estimate D2E/DX2                !
 ! R51   R(44,46)                1.0913         estimate D2E/DX2                !
 ! R52   R(44,47)                1.0912         estimate D2E/DX2                !
 ! R53   R(48,49)                1.0139         estimate D2E/DX2                !
 ! A1    A(2,1,6)              119.6994         estimate D2E/DX2                !
 ! A2    A(2,1,31)             120.0938         estimate D2E/DX2                !
 ! A3    A(6,1,31)             120.1914         estimate D2E/DX2                !
 ! A4    A(1,2,3)              120.1058         estimate D2E/DX2                !
 ! A5    A(1,2,7)              119.3983         estimate D2E/DX2                !
 ! A6    A(3,2,7)              120.4682         estimate D2E/DX2                !
 ! A7    A(2,3,4)              119.4902         estimate D2E/DX2                !
 ! A8    A(2,3,10)             121.3864         estimate D2E/DX2                !
 ! A9    A(4,3,10)             119.0702         estimate D2E/DX2                !
 ! A10   A(3,4,5)              120.31           estimate D2E/DX2                !
 ! A11   A(3,4,8)              120.0978         estimate D2E/DX2                !
 ! A12   A(5,4,8)              119.587          estimate D2E/DX2                !
 ! A13   A(4,5,9)              119.8604         estimate D2E/DX2                !
 ! A14   A(4,5,31)             119.9341         estimate D2E/DX2                !
 ! A15   A(9,5,31)             120.2055         estimate D2E/DX2                !
 ! A16   A(3,10,11)             88.714          estimate D2E/DX2                !
 ! A17   A(3,10,20)             95.5824         estimate D2E/DX2                !
 ! A18   A(3,10,33)            120.129          estimate D2E/DX2                !
 ! A19   A(3,10,34)            118.1887         estimate D2E/DX2                !
 ! A20   A(11,10,33)            82.2945         estimate D2E/DX2                !
 ! A21   A(11,10,34)            80.0975         estimate D2E/DX2                !
 ! A22   A(20,10,33)            96.3437         estimate D2E/DX2                !
 ! A23   A(20,10,34)            96.9476         estimate D2E/DX2                !
 ! A24   A(33,10,34)           118.1321         estimate D2E/DX2                !
 ! A25   A(10,11,12)           124.886          estimate D2E/DX2                !
 ! A26   A(10,11,13)           118.7008         estimate D2E/DX2                !
 ! A27   A(12,11,13)           116.0958         estimate D2E/DX2                !
 ! A28   A(11,12,14)           121.2339         estimate D2E/DX2                !
 ! A29   A(11,12,15)           120.1994         estimate D2E/DX2                !
 ! A30   A(14,12,15)           118.5667         estimate D2E/DX2                !
 ! A31   A(11,13,16)           121.5327         estimate D2E/DX2                !
 ! A32   A(11,13,17)           120.6603         estimate D2E/DX2                !
 ! A33   A(16,13,17)           117.8068         estimate D2E/DX2                !
 ! A34   A(12,14,18)           123.8648         estimate D2E/DX2                !
 ! A35   A(12,14,48)           119.6906         estimate D2E/DX2                !
 ! A36   A(18,14,48)           116.4443         estimate D2E/DX2                !
 ! A37   A(13,16,19)           124.0483         estimate D2E/DX2                !
 ! A38   A(13,16,48)           119.4506         estimate D2E/DX2                !
 ! A39   A(19,16,48)           116.501          estimate D2E/DX2                !
 ! A40   A(10,20,21)           122.6263         estimate D2E/DX2                !
 ! A41   A(10,20,22)           119.422          estimate D2E/DX2                !
 ! A42   A(21,20,22)           117.9005         estimate D2E/DX2                !
 ! A43   A(20,21,23)           121.0454         estimate D2E/DX2                !
 ! A44   A(20,21,24)           120.7135         estimate D2E/DX2                !
 ! A45   A(23,21,24)           118.2409         estimate D2E/DX2                !
 ! A46   A(20,22,25)           121.2606         estimate D2E/DX2                !
 ! A47   A(20,22,26)           120.1591         estimate D2E/DX2                !
 ! A48   A(25,22,26)           118.5791         estimate D2E/DX2                !
 ! A49   A(21,23,27)           120.2067         estimate D2E/DX2                !
 ! A50   A(21,23,28)           119.5965         estimate D2E/DX2                !
 ! A51   A(27,23,28)           120.1965         estimate D2E/DX2                !
 ! A52   A(22,25,27)           120.0332         estimate D2E/DX2                !
 ! A53   A(22,25,29)           119.7988         estimate D2E/DX2                !
 ! A54   A(27,25,29)           120.1672         estimate D2E/DX2                !
 ! A55   A(23,27,25)           119.5531         estimate D2E/DX2                !
 ! A56   A(23,27,30)           120.2478         estimate D2E/DX2                !
 ! A57   A(25,27,30)           120.1986         estimate D2E/DX2                !
 ! A58   A(1,31,5)             119.9993         estimate D2E/DX2                !
 ! A59   A(1,31,32)            119.9779         estimate D2E/DX2                !
 ! A60   A(5,31,32)            120.0166         estimate D2E/DX2                !
 ! A61   A(10,33,44)           127.8678         estimate D2E/DX2                !
 ! A62   A(10,34,35)           118.3653         estimate D2E/DX2                !
 ! A63   A(10,34,36)           123.6316         estimate D2E/DX2                !
 ! A64   A(35,34,36)           117.9903         estimate D2E/DX2                !
 ! A65   A(34,35,37)           118.7563         estimate D2E/DX2                !
 ! A66   A(34,35,38)           121.3617         estimate D2E/DX2                !
 ! A67   A(37,35,38)           119.882          estimate D2E/DX2                !
 ! A68   A(34,36,39)           118.5661         estimate D2E/DX2                !
 ! A69   A(34,36,40)           121.9841         estimate D2E/DX2                !
 ! A70   A(39,36,40)           119.4494         estimate D2E/DX2                !
 ! A71   A(35,37,41)           120.2666         estimate D2E/DX2                !
 ! A72   A(35,37,43)           123.6502         estimate D2E/DX2                !
 ! A73   A(41,37,43)           116.0831         estimate D2E/DX2                !
 ! A74   A(36,39,42)           120.1104         estimate D2E/DX2                !
 ! A75   A(36,39,43)           123.8365         estimate D2E/DX2                !
 ! A76   A(42,39,43)           116.052          estimate D2E/DX2                !
 ! A77   A(37,43,39)           117.1732         estimate D2E/DX2                !
 ! A78   A(37,43,50)           121.4134         estimate D2E/DX2                !
 ! A79   A(39,43,50)           121.4134         estimate D2E/DX2                !
 ! A80   A(33,44,45)           104.788          estimate D2E/DX2                !
 ! A81   A(33,44,46)           111.704          estimate D2E/DX2                !
 ! A82   A(33,44,47)           110.7779         estimate D2E/DX2                !
 ! A83   A(45,44,46)           110.0124         estimate D2E/DX2                !
 ! A84   A(45,44,47)           109.7801         estimate D2E/DX2                !
 ! A85   A(46,44,47)           109.6779         estimate D2E/DX2                !
 ! A86   A(14,48,16)           121.984          estimate D2E/DX2                !
 ! A87   A(14,48,49)           119.0442         estimate D2E/DX2                !
 ! A88   A(16,48,49)           118.9708         estimate D2E/DX2                !
 ! A89   L(11,10,20,3,-1)      184.2964         estimate D2E/DX2                !
 ! A90   L(11,10,20,3,-2)      180.9891         estimate D2E/DX2                !
 ! D1    D(6,1,2,3)           -178.9583         estimate D2E/DX2                !
 ! D2    D(6,1,2,7)              2.9434         estimate D2E/DX2                !
 ! D3    D(31,1,2,3)             2.4667         estimate D2E/DX2                !
 ! D4    D(31,1,2,7)          -175.6316         estimate D2E/DX2                !
 ! D5    D(2,1,31,5)            -0.3542         estimate D2E/DX2                !
 ! D6    D(2,1,31,32)          178.7384         estimate D2E/DX2                !
 ! D7    D(6,1,31,5)          -178.9222         estimate D2E/DX2                !
 ! D8    D(6,1,31,32)            0.1704         estimate D2E/DX2                !
 ! D9    D(1,2,3,4)             -2.5841         estimate D2E/DX2                !
 ! D10   D(1,2,3,10)          -179.9083         estimate D2E/DX2                !
 ! D11   D(7,2,3,4)            175.4937         estimate D2E/DX2                !
 ! D12   D(7,2,3,10)            -1.8305         estimate D2E/DX2                !
 ! D13   D(2,3,4,5)              0.6039         estimate D2E/DX2                !
 ! D14   D(2,3,4,8)           -178.5599         estimate D2E/DX2                !
 ! D15   D(10,3,4,5)           177.9905         estimate D2E/DX2                !
 ! D16   D(10,3,4,8)            -1.1733         estimate D2E/DX2                !
 ! D17   D(2,3,10,11)         -130.374          estimate D2E/DX2                !
 ! D18   D(2,3,10,20)           48.6369         estimate D2E/DX2                !
 ! D19   D(2,3,10,33)          149.3031         estimate D2E/DX2                !
 ! D20   D(2,3,10,34)          -52.3319         estimate D2E/DX2                !
 ! D21   D(4,3,10,11)           52.2908         estimate D2E/DX2                !
 ! D22   D(4,3,10,20)         -128.6983         estimate D2E/DX2                !
 ! D23   D(4,3,10,33)          -28.0321         estimate D2E/DX2                !
 ! D24   D(4,3,10,34)          130.3329         estimate D2E/DX2                !
 ! D25   D(3,4,5,9)           -178.5399         estimate D2E/DX2                !
 ! D26   D(3,4,5,31)             1.4966         estimate D2E/DX2                !
 ! D27   D(8,4,5,9)              0.6282         estimate D2E/DX2                !
 ! D28   D(8,4,5,31)          -179.3353         estimate D2E/DX2                !
 ! D29   D(4,5,31,1)            -1.6252         estimate D2E/DX2                !
 ! D30   D(4,5,31,32)          179.2825         estimate D2E/DX2                !
 ! D31   D(9,5,31,1)           178.4114         estimate D2E/DX2                !
 ! D32   D(9,5,31,32)           -0.6809         estimate D2E/DX2                !
 ! D33   D(3,10,11,12)        -136.9285         estimate D2E/DX2                !
 ! D34   D(3,10,11,13)          49.8075         estimate D2E/DX2                !
 ! D35   D(33,10,11,12)        -16.2855         estimate D2E/DX2                !
 ! D36   D(33,10,11,13)        170.4505         estimate D2E/DX2                !
 ! D37   D(34,10,11,12)        104.1533         estimate D2E/DX2                !
 ! D38   D(34,10,11,13)        -69.1106         estimate D2E/DX2                !
 ! D39   D(12,11,20,21)         81.7299         estimate D2E/DX2                !
 ! D40   D(12,11,20,22)        -94.2688         estimate D2E/DX2                !
 ! D41   D(13,11,20,21)        -89.3134         estimate D2E/DX2                !
 ! D42   D(13,11,20,22)         94.688          estimate D2E/DX2                !
 ! D43   D(3,10,20,21)        -139.4546         estimate D2E/DX2                !
 ! D44   D(3,10,20,22)          43.2043         estimate D2E/DX2                !
 ! D45   D(33,10,20,21)         99.3262         estimate D2E/DX2                !
 ! D46   D(33,10,20,22)        -78.0149         estimate D2E/DX2                !
 ! D47   D(34,10,20,21)        -20.1109         estimate D2E/DX2                !
 ! D48   D(34,10,20,22)        162.5481         estimate D2E/DX2                !
 ! D49   D(3,10,33,44)        -102.0905         estimate D2E/DX2                !
 ! D50   D(11,10,33,44)        173.9199         estimate D2E/DX2                !
 ! D51   D(20,10,33,44)         -1.8556         estimate D2E/DX2                !
 ! D52   D(34,10,33,44)         99.5324         estimate D2E/DX2                !
 ! D53   D(3,10,34,35)        -159.8563         estimate D2E/DX2                !
 ! D54   D(3,10,34,36)          18.8198         estimate D2E/DX2                !
 ! D55   D(11,10,34,35)        -76.7143         estimate D2E/DX2                !
 ! D56   D(11,10,34,36)        101.9618         estimate D2E/DX2                !
 ! D57   D(20,10,34,35)         99.9782         estimate D2E/DX2                !
 ! D58   D(20,10,34,36)        -81.3456         estimate D2E/DX2                !
 ! D59   D(33,10,34,35)         -1.0547         estimate D2E/DX2                !
 ! D60   D(33,10,34,36)        177.6214         estimate D2E/DX2                !
 ! D61   D(10,11,12,14)       -172.2165         estimate D2E/DX2                !
 ! D62   D(10,11,12,15)          7.7988         estimate D2E/DX2                !
 ! D63   D(13,11,12,14)          1.2051         estimate D2E/DX2                !
 ! D64   D(13,11,12,15)       -178.7796         estimate D2E/DX2                !
 ! D65   D(10,11,13,16)        172.7103         estimate D2E/DX2                !
 ! D66   D(10,11,13,17)         -7.1443         estimate D2E/DX2                !
 ! D67   D(12,11,13,16)         -1.1394         estimate D2E/DX2                !
 ! D68   D(12,11,13,17)        179.006          estimate D2E/DX2                !
 ! D69   D(11,12,14,18)        179.7355         estimate D2E/DX2                !
 ! D70   D(11,12,14,48)         -0.4757         estimate D2E/DX2                !
 ! D71   D(15,12,14,18)         -0.2795         estimate D2E/DX2                !
 ! D72   D(15,12,14,48)        179.5093         estimate D2E/DX2                !
 ! D73   D(11,13,16,19)       -179.7506         estimate D2E/DX2                !
 ! D74   D(11,13,16,48)          0.3379         estimate D2E/DX2                !
 ! D75   D(17,13,16,19)          0.108          estimate D2E/DX2                !
 ! D76   D(17,13,16,48)       -179.8035         estimate D2E/DX2                !
 ! D77   D(12,14,48,16)         -0.4064         estimate D2E/DX2                !
 ! D78   D(12,14,48,49)        179.9676         estimate D2E/DX2                !
 ! D79   D(18,14,48,16)        179.3977         estimate D2E/DX2                !
 ! D80   D(18,14,48,49)         -0.2283         estimate D2E/DX2                !
 ! D81   D(13,16,48,14)          0.4744         estimate D2E/DX2                !
 ! D82   D(13,16,48,49)       -179.8993         estimate D2E/DX2                !
 ! D83   D(19,16,48,14)       -179.4437         estimate D2E/DX2                !
 ! D84   D(19,16,48,49)          0.1826         estimate D2E/DX2                !
 ! D85   D(10,20,21,23)       -177.5427         estimate D2E/DX2                !
 ! D86   D(10,20,21,24)          2.6242         estimate D2E/DX2                !
 ! D87   D(22,20,21,23)         -0.1633         estimate D2E/DX2                !
 ! D88   D(22,20,21,24)       -179.9964         estimate D2E/DX2                !
 ! D89   D(10,20,22,25)        177.4465         estimate D2E/DX2                !
 ! D90   D(10,20,22,26)         -2.9537         estimate D2E/DX2                !
 ! D91   D(21,20,22,25)         -0.0197         estimate D2E/DX2                !
 ! D92   D(21,20,22,26)        179.5801         estimate D2E/DX2                !
 ! D93   D(20,21,23,27)          0.2291         estimate D2E/DX2                !
 ! D94   D(20,21,23,28)       -179.6056         estimate D2E/DX2                !
 ! D95   D(24,21,23,27)       -179.9338         estimate D2E/DX2                !
 ! D96   D(24,21,23,28)          0.2315         estimate D2E/DX2                !
 ! D97   D(20,22,25,27)          0.1379         estimate D2E/DX2                !
 ! D98   D(20,22,25,29)        179.816          estimate D2E/DX2                !
 ! D99   D(26,22,25,27)       -179.4682         estimate D2E/DX2                !
 ! D100  D(26,22,25,29)          0.21           estimate D2E/DX2                !
 ! D101  D(21,23,27,25)         -0.1076         estimate D2E/DX2                !
 ! D102  D(21,23,27,30)       -179.8685         estimate D2E/DX2                !
 ! D103  D(28,23,27,25)        179.7262         estimate D2E/DX2                !
 ! D104  D(28,23,27,30)         -0.0347         estimate D2E/DX2                !
 ! D105  D(22,25,27,23)         -0.0733         estimate D2E/DX2                !
 ! D106  D(22,25,27,30)        179.6877         estimate D2E/DX2                !
 ! D107  D(29,25,27,23)       -179.7502         estimate D2E/DX2                !
 ! D108  D(29,25,27,30)          0.0108         estimate D2E/DX2                !
 ! D109  D(10,33,44,45)       -169.259          estimate D2E/DX2                !
 ! D110  D(10,33,44,46)        -50.1791         estimate D2E/DX2                !
 ! D111  D(10,33,44,47)         72.4133         estimate D2E/DX2                !
 ! D112  D(10,34,35,37)        178.0649         estimate D2E/DX2                !
 ! D113  D(10,34,35,38)         -1.8895         estimate D2E/DX2                !
 ! D114  D(36,34,35,37)         -0.6868         estimate D2E/DX2                !
 ! D115  D(36,34,35,38)        179.3588         estimate D2E/DX2                !
 ! D116  D(10,34,36,39)       -177.0113         estimate D2E/DX2                !
 ! D117  D(10,34,36,40)          2.7763         estimate D2E/DX2                !
 ! D118  D(35,34,36,39)          1.6694         estimate D2E/DX2                !
 ! D119  D(35,34,36,40)       -178.543          estimate D2E/DX2                !
 ! D120  D(34,35,37,41)        179.2716         estimate D2E/DX2                !
 ! D121  D(34,35,37,43)         -0.8354         estimate D2E/DX2                !
 ! D122  D(38,35,37,41)         -0.7733         estimate D2E/DX2                !
 ! D123  D(38,35,37,43)        179.1197         estimate D2E/DX2                !
 ! D124  D(34,36,39,42)        179.0972         estimate D2E/DX2                !
 ! D125  D(34,36,39,43)         -1.2988         estimate D2E/DX2                !
 ! D126  D(40,36,39,42)         -0.6959         estimate D2E/DX2                !
 ! D127  D(40,36,39,43)        178.9081         estimate D2E/DX2                !
 ! D128  D(35,37,43,39)          1.2651         estimate D2E/DX2                !
 ! D129  D(35,37,43,50)       -178.7349         estimate D2E/DX2                !
 ! D130  D(41,37,43,39)       -178.8378         estimate D2E/DX2                !
 ! D131  D(41,37,43,50)          1.1622         estimate D2E/DX2                !
 ! D132  D(36,39,43,37)         -0.1754         estimate D2E/DX2                !
 ! D133  D(36,39,43,50)        179.8246         estimate D2E/DX2                !
 ! D134  D(42,39,43,37)        179.4433         estimate D2E/DX2                !
 ! D135  D(42,39,43,50)         -0.5567         estimate D2E/DX2                !
 --------------------------------------------------------------------------------
 Trust Radius=3.00D-01 FncErr=1.00D-07 GrdErr=1.00D-06 EigMax=2.50D+02 EigMin=1.00D-04
 Number of steps in this run=    200 maximum allowed number of steps=    300.
 GradGradGradGradGradGradGradGradGradGradGradGradGradGradGradGradGradGrad

                          Input orientation:                          
 ---------------------------------------------------------------------
 Center     Atomic      Atomic             Coordinates (Angstroms)
 Number     Number       Type             X           Y           Z
 ---------------------------------------------------------------------
      1          6           0        1.128726    3.073417   -2.130834
      2          6           0        1.042929    1.812970   -1.545589
      3          6           0        0.354685    1.644781   -0.339950
      4          6           0       -0.197927    2.758847    0.298073
      5          6           0       -0.075723    4.024864   -0.267666
      6          1           0        1.650106    3.193473   -3.075438
      7          1           0        1.540882    0.970866   -2.017669
      8          1           0       -0.714875    2.642738    1.247737
      9          1           0       -0.487111    4.888458    0.245914
     10         15           0        0.221983    0.001469    0.462737
     11          6           0       -1.828952    0.306134    0.640703
     12          6           0       -2.590234    0.006392    1.784151
     13          6           0       -2.553471    0.716089   -0.496465
     14          6           0       -3.965870    0.089045    1.768695
     15          1           0       -2.099887   -0.296160    2.701142
     16          6           0       -3.924645    0.791787   -0.485661
     17          1           0       -2.038639    0.981277   -1.415257
     18          1           0       -4.594063   -0.135822    2.622823
     19          1           0       -4.522048    1.097534   -1.336295
     20          6           0        2.056249   -0.413569    0.335171
     21          6           0        2.519273   -1.691018    0.000357
     22          6           0        3.009033    0.572197    0.637509
     23          6           0        3.885085   -1.975027   -0.035227
     24          1           0        1.822530   -2.487528   -0.241543
     25          6           0        4.370679    0.292961    0.607053
     26          1           0        2.690060    1.579581    0.895939
     27          6           0        4.813656   -0.985424    0.268732
     28          1           0        4.218583   -2.972866   -0.304364
     29          1           0        5.087268    1.074400    0.842274
     30          1           0        5.876583   -1.205094    0.239180
     31          6           0        0.573238    4.180142   -1.491276
     32          1           0        0.659093    5.165354   -1.939363
     33          8           0        0.123816   -0.111416    2.095651
     34          6           0       -0.398470   -1.415409   -0.547157
     35          6           0       -0.904709   -2.533279    0.118864
     36          6           0       -0.414578   -1.421428   -1.940392
     37          6           0       -1.411995   -3.588688   -0.634080
     38          1           0       -0.909374   -2.591049    1.204271
     39          6           0       -0.964892   -2.522198   -2.596116
     40          1           0       -0.016532   -0.597374   -2.523329
     41          1           0       -1.801457   -4.476104   -0.141079
     42          1           0       -1.003750   -2.546645   -3.682481
     43          7           0       -1.458863   -3.590135   -1.968132
     44          6           0        1.164926   -0.467540    3.019082
     45          1           0        0.653501   -0.616530    3.971516
     46          1           0        1.672706   -1.386082    2.720146
     47          1           0        1.892181    0.340489    3.112907
     48          7           0       -4.599221    0.473012    0.642044
     49          1           0       -5.611520    0.529976    0.641456
     50          1           0       -1.847839   -4.359301   -2.475163
 ---------------------------------------------------------------------
                    Distance matrix (angstroms):
                    1          2          3          4          5
     1  C    0.000000
     2  C    1.392336   0.000000
     3  C    2.418141   1.398404   0.000000
     4  C    2.785418   2.415263   1.397711   0.000000
     5  C    2.413989   2.788717   2.419767   1.392047   0.000000
     6  H    1.085600   2.148230   3.399920   3.871008   3.399012
     7  H    2.145553   1.086258   2.162398   3.403380   3.873348
     8  H    3.872866   3.403096   2.158848   1.087464   2.148310
     9  H    3.399152   3.874162   3.401955   2.149789   1.085725
    10  P    4.121366   2.826457   1.833682   2.794024   4.099979
    11  C    4.907864   3.911282   2.742613   2.965373   4.210451
    12  C    6.210025   5.248882   3.983550   3.937965   5.165350
    13  C    4.667626   3.903576   3.056851   3.217567   4.139997
    14  C    7.075854   6.248557   5.053107   4.846439   5.896667
    15  H    6.717588   5.688624   4.363533   4.327269   5.619814
    16  C    5.783510   5.181028   4.365947   4.286256   5.031353
    17  H    3.862810   3.194489   2.706385   3.079525   3.799135
    18  H    8.102270   7.276615   6.036446   5.754093   6.788345
    19  H    6.038763   5.614679   5.007465   4.912142   5.429644
    20  C    4.370418   3.085701   2.754617   3.891903   4.960686
    21  C    5.401429   4.104567   3.991091   5.222366   6.283084
    22  C    4.177963   3.189200   3.025132   3.896312   4.717623
    23  C    6.121754   4.970711   5.065530   6.260323   7.193102
    24  H    5.913958   4.560986   4.386369   5.647821   6.783458
    25  C    5.073186   4.244787   4.341940   5.200791   5.870496
    26  H    3.718960   2.954415   2.643038   3.176253   3.870780
    27  C    5.984214   5.034000   5.212571   6.255908   7.021163
    28  H    7.031411   5.876193   6.021099   7.260925   8.210398
    29  H    5.339054   4.754372   4.911245   5.573760   6.049271
    30  H    6.816507   5.971459   6.240876   7.253687   7.939729
    31  C    1.393715   2.413931   2.793094   2.411751   1.393730
    32  H    2.152537   3.397185   3.878817   3.395862   2.152961
    33  O    5.386667   4.219794   3.011591   3.401943   4.768007
    34  C    4.998992   3.673817   3.158313   4.263689   5.457000
    35  C    6.374248   5.045154   4.387798   5.342121   6.621621
    36  C    4.756226   3.569527   3.543278   4.746827   5.707445
    37  C    7.285546   6.002950   5.531444   6.529477   7.738608
    38  H    6.882075   5.546945   4.682384   5.472544   6.828754
    39  C    5.992548   4.891690   4.918870   6.070750   7.005449
    40  H    3.865278   2.808592   3.151540   4.388329   5.143598
    41  H    8.339087   7.043836   6.492590   7.423522   8.675289
    42  H    6.208072   5.268913   5.530453   6.681497   7.463707
    43  N    7.150176   5.969175   5.774450   6.858223   7.924195
    44  C    6.249906   5.104099   4.049875   4.435181   5.702948
    45  H    7.147043   6.040908   4.877659   5.060858   6.328110
    46  H    6.611736   5.369083   4.504164   5.152295   6.423579
    47  H    5.962263   4.958933   3.998411   4.259143   5.373596
    48  N    6.874615   6.197990   5.184452   4.971393   5.822822
    49  H    7.719171   7.121161   6.148297   5.864535   6.609523
    50  H    8.013976   6.878778   6.742348   7.815439   8.849162
                    6          7          8          9         10
     6  H    0.000000
     7  H    2.463897   0.000000
     8  H    4.958456   4.306562   0.000000
     9  H    4.297912   4.958235   2.469572   0.000000
    10  P    4.974646   2.971807   2.910366   4.942923   0.000000
    11  C    5.852373   4.343339   2.658830   4.791043   2.081064
    12  C    7.193996   5.696505   3.279486   5.533884   3.107205
    13  C    5.518930   4.375237   3.183497   4.714831   3.022233
    14  C    8.040043   6.740807   4.166739   6.120048   4.387631
    15  H    7.720678   6.093253   3.559180   5.958981   3.238846
    16  C    6.599461   5.679005   4.090637   5.397643   4.326498
    17  H    4.610515   3.629873   3.406514   4.520265   3.097950
    18  H    9.085375   7.771517   4.965819   6.910871   5.280068
    19  H    6.746337   6.102412   4.853807   5.758056   5.190733
    20  C    4.980759   2.778150   4.225271   5.881168   1.884957
    21  C    5.837313   3.480705   5.549515   7.237966   2.890649
    22  C    4.743811   3.060127   4.304301   5.568346   2.850250
    23  C    6.399329   4.254838   6.642995   8.142639   4.191995
    24  H    6.350942   3.898004   5.914052   7.744496   3.041853
    25  C    5.419892   3.918733   5.638687   6.696801   4.161427
    26  H    4.411121   3.190651   3.584361   4.633100   2.961335
    27  C    6.217291   4.445869   6.684809   7.912088   4.700538
    28  H    7.231851   5.065424   7.634333   9.178604   5.040627
    29  H    5.626102   4.557066   6.024031   6.780589   4.996622
    30  H    6.942420   5.350371   7.698722   8.810677   5.786214
    31  C    2.154699   3.393063   3.394855   2.154967   4.626322
    32  H    2.482154   4.286889   4.290569   2.483121   5.711992
    33  O    6.323924   4.483170   3.001287   5.365957   1.639752
    34  C    5.641867   3.408489   4.448631   6.354176   1.847266
    35  C    7.037495   4.777522   5.301089   7.434562   2.795108
    36  C    5.181560   3.090771   5.174146   6.678312   2.864415
    37  C    7.831628   5.605652   6.546593   8.572736   4.094157
    38  H    7.637247   5.391836   5.237580   7.552468   2.924208
    39  C    6.303718   4.337626   6.443157   7.951304   4.139342
    40  H    4.177682   2.267291   5.020652   6.163157   3.054847
    41  H    8.907646   6.660503   7.333988   9.464264   4.950511
    42  H    6.352984   4.649692   7.163811   8.424961   5.017782
    43  N    7.543816   5.459272   7.052945   8.816623   4.651235
    44  C    7.126120   5.251592   4.042913   6.253511   2.764780
    45  H    8.072726   6.259202   4.462539   6.744331   3.588824
    46  H    7.386584   5.293342   4.909167   7.082124   3.020892
    47  H    6.818631   5.181081   3.946638   5.879175   3.150857
    48  N    7.763676   6.709903   4.490292   6.046696   4.847526
    49  H    8.581418   7.643441   5.367352   6.738871   5.860121
    50  H    8.345080   6.332726   8.010752   9.735343   5.650818
                   11         12         13         14         15
    11  C    0.000000
    12  C    1.406012   0.000000
    13  C    1.409305   2.388772   0.000000
    14  C    2.426090   1.378203   2.742080   0.000000
    15  H    2.163694   1.082982   3.384535   2.121257   0.000000
    16  C    2.428268   2.747643   1.373304   2.361708   3.830024
    17  H    2.174111   3.389818   1.086073   3.827251   4.310492
    18  H    3.430738   2.176907   3.823575   1.083848   2.500551
    19  H    3.433308   3.828796   2.173962   3.311698   4.910208
    20  C    3.963093   4.885255   4.818430   6.210759   4.783834
    21  C    4.827600   5.671877   5.636819   6.953612   5.529603
    22  C    4.845297   5.743406   5.678737   7.082534   5.577965
    23  C    6.189572   7.011841   6.993558   8.315769   6.791627
    24  H    4.681477   5.458531   5.429321   6.647207   5.370926
    25  C    6.199736   7.065550   7.024289   8.419563   6.826456
    26  H    4.701945   5.580802   5.493544   6.876395   5.451674
    27  C    6.777221   7.622190   7.599686   8.971313   7.361303
    28  H    6.943895   7.719965   7.714014   8.980988   7.491387
    29  H    6.961678   7.808445   7.765404   9.153605   7.549107
    30  H    7.862589   8.691468   8.677438  10.044306   8.397112
    31  C    5.032275   6.177068   4.771333   6.925893   6.690235
    32  H    6.038139   7.144058   5.674371   7.804415   7.679479
    33  O    2.470734   2.734406   3.817289   4.107629   2.312056
    34  C    2.533969   3.501477   3.031482   4.511418   3.833925
    35  C    3.031305   3.473342   3.695327   4.355368   3.619573
    36  C    3.412767   4.543608   3.350935   5.352619   5.064616
    37  C    4.119292   4.490066   4.455672   5.081469   4.736839
    38  H    3.091424   3.147737   4.066045   4.104101   2.987383
    39  C    4.384411   5.312461   4.173562   5.905593   5.856996
    40  H    3.756633   5.053994   3.502774   5.872811   5.632601
    41  H    4.845796   4.941806   5.258393   5.401158   5.063518
    42  H    5.244924   6.238509   4.816406   6.740648   6.856883
    43  N    4.703605   5.319270   4.680549   5.812515   5.750070
    44  C    3.901098   3.981318   5.252288   5.310209   3.284731
    45  H    4.255373   3.961618   5.658922   5.166125   3.049202
    46  H    4.410135   4.581237   5.711942   5.905489   3.926926
    47  H    4.467640   4.687137   5.738681   6.015554   4.063432
    48  N    2.775291   2.357577   2.353802   1.348298   3.328390
    49  H    3.789185   3.272317   3.268205   2.042854   4.154079
    50  H    5.610282   6.144281   5.492973   6.502628   6.585346
                   16         17         18         19         20
    16  C    0.000000
    17  H    2.111178   0.000000
    18  H    3.312288   4.907565   0.000000
    19  H    1.083490   2.487382   4.147405   0.000000
    20  C    6.156114   4.666658   7.038263   6.953504   0.000000
    21  C    6.922761   5.469889   7.739219   7.690440   1.399417
    22  C    7.027490   5.464448   7.889856   7.803144   1.403902
    23  C    8.297592   6.762745   9.074352   9.045070   2.433102
    24  H    6.621444   5.321545   7.409978   7.369181   2.165301
    25  C    8.381841   6.755951   9.198575   9.138081   2.435096
    26  H    6.803217   5.297187   7.680051   7.565034   2.165369
    27  C    8.949050   7.325140   9.734924   9.698979   2.816865
    28  H    8.973162   7.484795   9.709787   9.696993   3.410967
    29  H    9.113608   7.475538   9.917820   9.853205   3.414423
    30  H   10.028808   8.376641  10.791641  10.766417   3.902650
    31  C    5.720416   4.130426   7.890143   5.957217   5.161144
    32  H    6.500153   5.005891   8.747094   6.614762   6.184653
    33  O    4.885589   4.265755   4.747303   5.901175   2.631517
    34  C    4.160457   3.031148   5.411942   4.893007   2.794250
    35  C    4.532276   3.998928   5.062504   5.327798   3.647908
    36  C    4.397173   2.947258   6.320111   4.856070   3.506986
    37  C    5.052128   4.678408   5.714478   5.667999   4.800994
    38  H    4.836456   4.571507   4.649448   5.754262   3.780433
    39  C    4.919010   3.849896   6.789919   5.229050   4.708084
    40  H    4.621169   2.794437   6.902876   4.957967   3.535708
    41  H    5.690109   5.609170   5.854558   6.316296   5.622535
    42  H    5.467761   4.319437   7.645866   5.582387   5.482256
    43  N    5.242046   4.641079   6.545122   5.635296   5.267997
    44  C    6.306573   5.659087   5.782129   7.332151   2.828559
    45  H    6.542874   6.230404   5.439392   7.609020   3.902807
    46  H    6.808131   6.039870   6.391011   7.810124   2.604034
    47  H    6.854840   6.030441   6.522148   7.842885   2.882939
    48  N    1.352179   3.323763   2.072243   2.076008   6.721271
    49  H    2.045601   4.147194   2.324720   2.328212   7.731673
    50  H    5.899572   5.448081   7.167216   6.182675   6.221631
                   21         22         23         24         25
    21  C    0.000000
    22  C    2.401660   0.000000
    23  C    1.395482   2.776399   0.000000
    24  H    1.085539   3.397416   2.135265   0.000000
    25  C    2.780640   1.390317   2.406677   3.865786   0.000000
    26  H    3.395299   1.087820   3.863987   4.311363   2.136194
    27  C    2.415384   2.412228   1.390665   3.385784   1.394617
    28  H    2.150266   3.862332   1.085973   2.445520   3.394030
    29  H    3.866647   2.147835   3.393266   4.951818   1.086037
    30  H    3.400689   3.397098   2.152710   4.279144   2.155747
    31  C    6.362589   4.845832   7.139644   6.897854   5.825266
    32  H    7.364280   5.767112   8.063362   7.924821   6.633274
    33  O    3.552973   3.304237   4.707529   3.740857   4.518328
    34  C    2.981435   4.118870   4.350183   2.485092   5.195720
    35  C    3.528045   5.022982   4.824678   2.751330   6.004638
    36  C    3.527983   4.726651   4.735317   3.004548   5.685709
    37  C    4.411182   6.202853   5.569702   3.439301   7.074385
    38  H    3.743673   5.067668   4.990258   3.092635   6.045920
    39  C    4.424018   5.985290   5.511790   3.648964   6.830354
    40  H    3.741037   4.529110   4.828167   3.487317   5.462564
    41  H    5.142511   7.016577   6.213159   4.134950   7.835748
    42  H    5.167890   6.670226   6.126167   4.453247   7.439620
    43  N    4.827749   6.639011   5.907832   3.868384   7.462813
    44  C    3.527585   3.186483   4.358966   3.891590   4.083270
    45  H    4.517271   4.251730   5.323780   4.755747   5.095508
    46  H    2.864771   3.155630   3.582395   3.163421   3.816203
    47  H    3.769381   2.725554   4.386802   4.388037   3.524843
    48  N    7.467780   7.608902   8.856356   7.126318   8.971775
    49  H    8.453024   8.620657   9.844717   8.071562   9.985072
    50  H    5.685033   7.589309   6.671167   4.686598   8.355452
                   26         27         28         29         30
    26  H    0.000000
    27  C    3.388554   0.000000
    28  H    4.949938   2.152319   0.000000
    29  H    2.450448   2.155618   4.295318   0.000000
    30  H    4.282485   1.085791   2.483832   2.486530   0.000000
    31  C    4.116145   6.910995   8.115591   5.955464   7.753755
    32  H    5.002153   7.743910   9.031822   6.639438   8.517679
    33  O    3.299150   5.108436   5.542119   5.254804   6.143040
    34  C    4.537787   5.293092   4.878709   6.182474   6.327626
    35  C    5.517411   5.926045   5.159504   7.031533   6.911185
    36  C    5.166198   5.692518   5.152643   6.651518   6.661534
    37  C    6.773390   6.808141   5.673743   8.134152   7.717997
    38  H    5.517712   6.017170   5.358890   7.037491   6.992960
    39  C    6.509817   6.630282   5.685388   7.834965   7.521931
    40  H    4.874030   5.592576   5.338817   6.338051   6.536787
    41  H    7.610549   7.490829   6.207034   8.901102   8.354424
    42  H    7.185534   7.203590   6.234268   8.407489   8.032320
    43  N    7.220971   7.150704   5.948322   8.515169   8.023055
    44  C    3.320312   4.598463   5.162051   4.743505   5.520104
    45  H    4.292977   5.581539   6.045269   5.684161   6.446497
    46  H    3.627382   4.004438   4.259934   4.608645   4.884724
    47  H    2.662125   4.287469   5.297944   3.987854   5.150009
    48  N    7.377166   9.532505   9.514380   9.707205  10.617006
    49  H    8.371539  10.541331  10.478330  10.714513  11.625352
    50  H    8.199218   7.955346   6.590603   9.414150   8.774017
                   31         32         33         34         35
    31  C    0.000000
    32  H    1.085724   0.000000
    33  O    5.611194   6.664245   0.000000
    34  C    5.757236   6.809047   2.992927   0.000000
    35  C    7.060234   8.121005   3.291044   1.396243   0.000000
    36  C    5.705705   6.673715   4.277341   1.393341   2.391020
    37  C    8.064159   9.089908   4.679911   2.399569   1.392175
    38  H    7.437280   8.514946   2.830304   2.170404   1.086953
    39  C    6.964760   7.884612   5.386078   2.396675   2.715670
    40  H    4.923172   5.831511   4.646593   2.172628   3.393784
    41  H    9.077048  10.111669   5.268789   3.391331   2.155527
    42  H    7.248306   8.079507   6.370915   3.387671   3.802658
    43  N    8.045746   9.008060   5.578592   2.805893   2.404076
    44  C    6.503412   7.521405   1.436475   4.007583   4.118487
    45  H    7.270255   8.268537   2.013598   4.707787   4.576557
    46  H    7.065957   8.103070   2.100911   3.868578   3.837421
    47  H    6.138489   7.094030   2.089532   4.661151   5.004541
    48  N    6.711796   7.505438   4.976104   4.756747   4.791756
    49  H    7.491561   8.213887   5.951483   5.689746   5.640098
    50  H    8.930383   9.863613   6.544028   3.805835   3.309506
                   36         37         38         39         40
    36  C    0.000000
    37  C    2.719983   0.000000
    38  H    3.391422   2.151150   0.000000
    39  C    1.394458   2.277474   3.801416   0.000000
    40  H    1.085044   3.803227   4.320522   2.147005   0.000000
    41  H    3.806837   1.087308   2.481776   3.247275   4.889337
    42  H    2.155948   3.247348   4.887865   1.087335   2.473437
    43  N    2.407196   1.334876   3.371091   1.333739   3.368261
    44  C    5.291608   5.452310   3.479303   6.347298   5.668423
    45  H    6.061296   5.857603   3.741517   7.027415   6.529343
    46  H    5.106723   5.061392   3.227532   6.042377   5.565035
    47  H    5.827634   6.355779   4.481687   6.996484   6.024112
    48  N    5.269641   5.318299   4.829031   5.715357   5.671539
    49  H    6.122265   6.018837   5.671661   6.433412   6.526153
    50  H    3.312298   2.042888   4.188755   2.041856   4.184269
                   41         42         43         44         45
    41  H    0.000000
    42  H    4.111043   0.000000
    43  N    2.059232   2.057910   0.000000
    44  C    5.903781   7.344166   6.442606   0.000000
    45  H    6.151144   8.065699   6.970210   1.091276   0.000000
    46  H    5.459364   7.035905   6.053472   1.091294   1.787992
    47  H    6.887013   7.930905   7.245430   1.091153   1.785336
    48  N    5.738860   6.383358   5.760558   6.305580   6.313761
    49  H    6.339541   7.028056   6.405453   7.250404   7.187090
    50  H    2.337465   2.335771   1.000000   7.376265   7.862869
                   46         47         48         49         50
    46  H    0.000000
    47  H    1.784230   0.000000
    48  N    6.863804   6.947016   0.000000
    49  H    7.813589   7.902500   1.013901   0.000000
    50  H    6.944459   8.203798   6.374820   6.912571   0.000000
 Stoichiometry    C23H23N2OP(2+)
 Framework group  C1[X(C23H23N2OP)]
 Deg. of freedom   144
 Full point group                 C1      NOp   1
 Largest Abelian subgroup         C1      NOp   1
 Largest concise Abelian subgroup C1      NOp   1
                         Standard orientation:                         
 ---------------------------------------------------------------------
 Center     Atomic      Atomic             Coordinates (Angstroms)
 Number     Number       Type             X           Y           Z
 ---------------------------------------------------------------------
      1          6           0        1.198142    3.012673   -2.202835
      2          6           0        1.086008    1.769848   -1.585249
      3          6           0        0.401597    1.648766   -0.371802
      4          6           0       -0.120227    2.791553    0.240843
      5          6           0        0.028560    4.039563   -0.357593
      6          1           0        1.716245    3.096257   -3.153156
      7          1           0        1.560729    0.904365   -2.038610
      8          1           0       -0.633772    2.711935    1.196097
      9          1           0       -0.358847    4.925494    0.136211
     10         15           0        0.234815    0.029932    0.473155
     11          6           0       -1.807099    0.388154    0.655059
     12          6           0       -2.568058    0.135780    1.810100
     13          6           0       -2.528820    0.786506   -0.487997
     14          6           0       -3.941400    0.251021    1.800426
     15          1           0       -2.079270   -0.155178    2.731664
     16          6           0       -3.897702    0.895353   -0.471268
     17          1           0       -2.013637    1.015944   -1.416167
     18          1           0       -4.569357    0.062967    2.663579
     19          1           0       -4.493016    1.193753   -1.325966
     20          6           0        2.057813   -0.432119    0.345680
     21          6           0        2.488099   -1.728373    0.040808
     22          6           0        3.035739    0.537814    0.617395
     23          6           0        3.846494   -2.045902    0.004635
     24          1           0        1.771034   -2.513786   -0.176768
     25          6           0        4.390116    0.225285    0.586251
     26          1           0        2.742533    1.558778    0.851950
     27          6           0        4.800316   -1.071512    0.278012
     28          1           0        4.154380   -3.057946   -0.240950
     29          1           0        5.126619    0.994990    0.797420
     30          1           0        5.857492   -1.317316    0.247968
     31          6           0        0.673278    4.148231   -1.588452
     32          1           0        0.779773    5.119454   -2.061928
     33          8           0        0.144328   -0.039245    2.108946
     34          6           0       -0.425648   -1.396719   -0.496818
     35          6           0       -0.954183   -2.484917    0.200298
     36          6           0       -0.450719   -1.437570   -1.889335
     37          6           0       -1.491262   -3.546539   -0.522650
     38          1           0       -0.953350   -2.515099    1.286832
     39          6           0       -1.031280   -2.541035   -2.513696
     40          1           0       -0.036827   -0.638312   -2.495305
     41          1           0       -1.898654   -4.411601   -0.005023
     42          1           0       -1.077590   -2.591999   -3.598848
     43          7           0       -1.546600   -3.580587   -1.855944
     44          6           0        1.182474   -0.396804    3.035156
     45          1           0        0.673683   -0.509346    3.993983
     46          1           0        1.666292   -1.334537    2.756768
     47          1           0        1.929378    0.395644    3.104239
     48          7           0       -4.572534    0.621478    0.668022
     49          1           0       -5.583170    0.702698    0.671783
     50          1           0       -1.957020   -4.352764   -2.341018
 ---------------------------------------------------------------------
 Rotational constants (GHZ):           0.2321294           0.1799290           0.1402565
 Standard basis: 6-31+G(d) (6D, 7F)
 There are   563 symmetry adapted cartesian basis functions of A   symmetry.
 There are   563 symmetry adapted basis functions of A   symmetry.
   563 basis functions,   980 primitive gaussians,   563 cartesian basis functions
    98 alpha electrons       98 beta electrons
       nuclear repulsion energy      2698.8186296689 Hartrees.
 NAtoms=   50 NActive=   50 NUniq=   50 SFac= 1.00D+00 NAtFMM=   60 NAOKFM=F Big=F
 Integral buffers will be    131072 words long.
 Raffenetti 2 integral format.
 Two-electron integral symmetry is turned on.
 Nuclear repulsion after empirical dispersion term =     2698.7714864472 Hartrees.
 ------------------------------------------------------------------------------
 Polarizable Continuum Model (PCM)
 =================================
 Model                : PCM.
 Atomic radii         : SMD-Coulomb.
 Polarization charges : Total charges.
 Charge compensation  : None.
 Solution method      : On-the-fly selection.
 Cavity type          : VdW (van der Waals Surface) (Alpha=1.000).
 Cavity algorithm     : GePol (No added spheres)
                        Default sphere list used, NSphG=   50.
                        Lebedev-Laikov grids with approx.  5.0 points / Ang**2.
                        Smoothing algorithm: York/Karplus (Gamma=1.0000).
                        Polarization charges: spherical gaussians, with
                                              point-specific exponents (IZeta= 3).
                        Self-potential: point-specific (ISelfS= 7).
                        Self-field    : sphere-specific E.n sum rule (ISelfD= 2).
 1st derivatives      : Analytical E(r).r(x)/FMM algorithm (CHGder, D1EAlg=3).
                        Cavity 1st derivative terms included.
 Solvent              : Ethanol, Eps=  24.852000 Eps(inf)=   1.852593
 ------------------------------------------------------------------------------
 ------------------------------------------------------------------------------
 Atomic radii for non-electrostatic terms: SMD-CDS.
 ------------------------------------------------------------------------------
 Nuclear repulsion after PCM non-electrostatic terms =     2698.7707037809 Hartrees.
 One-electron integrals computed using PRISM.
 NBasis=   563 RedAO= T EigKep=  1.16D-06  NBF=   563
 NBsUse=   560 1.00D-06 EigRej=  9.26D-07 NBFU=   560
 ExpMin= 3.48D-02 ExpMax= 1.94D+04 ExpMxC= 2.91D+03 IAcc=3 IRadAn=         5 AccDes= 0.00D+00
 Harris functional with IExCor= 4639 and IRadAn=       5 diagonalized for initial guess.
 HarFok:  IExCor= 4639 AccDes= 0.00D+00 IRadAn=         5 IDoV= 1 UseB2=F ITyADJ=14
 ICtDFT=  3500011 ScaDFX=  1.000000  1.000000  1.000000  1.000000
 FoFCou: FMM=F IPFlag=           0 FMFlag=      100000 FMFlg1=           0
         NFxFlg=           0 DoJE=T BraDBF=F KetDBF=T FulRan=T
         wScrn=  0.000000 ICntrl=       500 IOpCl=  0 I1Cent=   200000004 NGrid=           0
         NMat0=    1 NMatS0=      1 NMatT0=    0 NMatD0=    1 NMtDS0=    0 NMtDT0=    0
 Petite list used in FoFCou.
 Requested convergence on RMS density matrix=1.00D-08 within 128 cycles.
 Requested convergence on MAX density matrix=1.00D-06.
 Requested convergence on             energy=1.00D-06.
 No special actions if energy rises.
 Inv3:  Mode=1 IEnd=    40384683.
 Iteration    1 A*A^-1 deviation from unit magnitude is 9.77D-15 for    304.
 Iteration    1 A*A^-1 deviation from orthogonality  is 3.62D-15 for   1907   1407.
 Iteration    1 A^-1*A deviation from unit magnitude is 9.99D-15 for    304.
 Iteration    1 A^-1*A deviation from orthogonality  is 3.78D-15 for   3642   2850.
 Error on total polarization charges =  0.05574
 SCF Done:  E(RwB97XD) =  -1415.69105498     A.U. after   16 cycles
            NFock= 16  Conv=0.90D-08     -V/T= 2.0082
 SMD-CDS (non-electrostatic) energy       (kcal/mol) =      -0.49
 (included in total energy above)

 **********************************************************************

            Population analysis using the SCF density.

 **********************************************************************

 Orbital symmetries:
       Occupied  (A) (A) (A) (A) (A) (A) (A) (A) (A) (A) (A) (A)
                 (A) (A) (A) (A) (A) (A) (A) (A) (A) (A) (A) (A)
                 (A) (A) (A) (A) (A) (A) (A) (A) (A) (A) (A) (A)
                 (A) (A) (A) (A) (A) (A) (A) (A) (A) (A) (A) (A)
                 (A) (A) (A) (A) (A) (A) (A) (A) (A) (A) (A) (A)
                 (A) (A) (A) (A) (A) (A) (A) (A) (A) (A) (A) (A)
                 (A) (A) (A) (A) (A) (A) (A) (A) (A) (A) (A) (A)
                 (A) (A) (A) (A) (A) (A) (A) (A) (A) (A) (A) (A)
                 (A) (A)
       Virtual   (A) (A) (A) (A) (A) (A) (A) (A) (A) (A) (A) (A)
                 (A) (A) (A) (A) (A) (A) (A) (A) (A) (A) (A) (A)
                 (A) (A) (A) (A) (A) (A) (A) (A) (A) (A) (A) (A)
                 (A) (A) (A) (A) (A) (A) (A) (A) (A) (A) (A) (A)
                 (A) (A) (A) (A) (A) (A) (A) (A) (A) (A) (A) (A)
                 (A) (A) (A) (A) (A) (A) (A) (A) (A) (A) (A) (A)
                 (A) (A) (A) (A) (A) (A) (A) (A) (A) (A) (A) (A)
                 (A) (A) (A) (A) (A) (A) (A) (A) (A) (A) (A) (A)
                 (A) (A) (A) (A) (A) (A) (A) (A) (A) (A) (A) (A)
                 (A) (A) (A) (A) (A) (A) (A) (A) (A) (A) (A) (A)
                 (A) (A) (A) (A) (A) (A) (A) (A) (A) (A) (A) (A)
                 (A) (A) (A) (A) (A) (A) (A) (A) (A) (A) (A) (A)
                 (A) (A) (A) (A) (A) (A) (A) (A) (A) (A) (A) (A)
                 (A) (A) (A) (A) (A) (A) (A) (A) (A) (A) (A) (A)
                 (A) (A) (A) (A) (A) (A) (A) (A) (A) (A) (A) (A)
                 (A) (A) (A) (A) (A) (A) (A) (A) (A) (A) (A) (A)
                 (A) (A) (A) (A) (A) (A) (A) (A) (A) (A) (A) (A)
                 (A) (A) (A) (A) (A) (A) (A) (A) (A) (A) (A) (A)
                 (A) (A) (A) (A) (A) (A) (A) (A) (A) (A) (A) (A)
                 (A) (A) (A) (A) (A) (A) (A) (A) (A) (A) (A) (A)
                 (A) (A) (A) (A) (A) (A) (A) (A) (A) (A) (A) (A)
                 (A) (A) (A) (A) (A) (A) (A) (A) (A) (A) (A) (A)
                 (A) (A) (A) (A) (A) (A) (A) (A) (A) (A) (A) (A)
                 (A) (A) (A) (A) (A) (A) (A) (A) (A) (A) (A) (A)
                 (A) (A) (A) (A) (A) (A) (A) (A) (A) (A) (A) (A)
                 (A) (A) (A) (A) (A) (A) (A) (A) (A) (A) (A) (A)
                 (A) (A) (A) (A) (A) (A) (A) (A) (A) (A) (A) (A)
                 (A) (A) (A) (A) (A) (A) (A) (A) (A) (A) (A) (A)
                 (A) (A) (A) (A) (A) (A) (A) (A) (A) (A) (A) (A)
                 (A) (A) (A) (A) (A) (A) (A) (A) (A) (A) (A) (A)
                 (A) (A) (A) (A) (A) (A) (A) (A) (A) (A) (A) (A)
                 (A) (A) (A) (A) (A) (A) (A) (A) (A) (A) (A) (A)
                 (A) (A) (A) (A) (A) (A) (A) (A) (A) (A) (A) (A)
                 (A) (A) (A) (A) (A) (A) (A) (A) (A) (A) (A) (A)
                 (A) (A) (A) (A) (A) (A) (A) (A) (A) (A) (A) (A)
                 (A) (A) (A) (A) (A) (A) (A) (A) (A) (A) (A) (A)
                 (A) (A) (A) (A) (A) (A) (A) (A) (A) (A) (A) (A)
                 (A) (A) (A) (A) (A) (A) (A) (A) (A) (A) (A) (A)
                 (A) (A) (A) (A) (A) (A)
 The electronic state is 1-A.
 Alpha  occ. eigenvalues --  -77.38274 -19.31756 -14.58578 -14.56938 -10.40244
 Alpha  occ. eigenvalues --  -10.40166 -10.38838 -10.38766 -10.37723 -10.35914
 Alpha  occ. eigenvalues --  -10.35862 -10.34896 -10.34289 -10.33754 -10.33495
 Alpha  occ. eigenvalues --  -10.33087 -10.32444 -10.32425 -10.31960 -10.31746
 Alpha  occ. eigenvalues --  -10.31735 -10.31647 -10.31496 -10.31401 -10.31373
 Alpha  occ. eigenvalues --  -10.31240 -10.31199  -6.79080  -4.94132  -4.93942
 Alpha  occ. eigenvalues --   -4.93742  -1.16071  -1.15793  -1.13421  -0.98683
 Alpha  occ. eigenvalues --   -0.97494  -0.96697  -0.94316  -0.92179  -0.91186
 Alpha  occ. eigenvalues --   -0.88923  -0.86379  -0.85756  -0.85343  -0.83602
 Alpha  occ. eigenvalues --   -0.80039  -0.79433  -0.77197  -0.76655  -0.74421
 Alpha  occ. eigenvalues --   -0.72051  -0.71546  -0.70887  -0.70265  -0.70004
 Alpha  occ. eigenvalues --   -0.68013  -0.64176  -0.62474  -0.62401  -0.61813
 Alpha  occ. eigenvalues --   -0.61063  -0.59514  -0.58616  -0.57966  -0.57456
 Alpha  occ. eigenvalues --   -0.56983  -0.56131  -0.55797  -0.55487  -0.55212
 Alpha  occ. eigenvalues --   -0.54967  -0.54609  -0.54158  -0.53479  -0.53124
 Alpha  occ. eigenvalues --   -0.51963  -0.51364  -0.50228  -0.49899  -0.49331
 Alpha  occ. eigenvalues --   -0.47595  -0.47054  -0.46458  -0.45099  -0.44641
 Alpha  occ. eigenvalues --   -0.43917  -0.43854  -0.42966  -0.40793  -0.40244
 Alpha  occ. eigenvalues --   -0.39293  -0.38738  -0.37700  -0.35288  -0.34672
 Alpha  occ. eigenvalues --   -0.34246  -0.33862  -0.33127
 Alpha virt. eigenvalues --   -0.04074  -0.00605   0.00888   0.02218   0.02625
 Alpha virt. eigenvalues --    0.03180   0.04140   0.04646   0.05527   0.05762
 Alpha virt. eigenvalues --    0.05922   0.06479   0.07545   0.07948   0.08299
 Alpha virt. eigenvalues --    0.08615   0.08711   0.09235   0.09569   0.09786
 Alpha virt. eigenvalues --    0.09908   0.10317   0.10420   0.10761   0.11081
 Alpha virt. eigenvalues --    0.11726   0.11800   0.12393   0.12802   0.12994
 Alpha virt. eigenvalues --    0.13237   0.13744   0.13824   0.14038   0.14301
 Alpha virt. eigenvalues --    0.15088   0.15438   0.15731   0.16135   0.16356
 Alpha virt. eigenvalues --    0.16465   0.16665   0.17035   0.17282   0.17624
 Alpha virt. eigenvalues --    0.18065   0.18136   0.18440   0.18653   0.19195
 Alpha virt. eigenvalues --    0.19251   0.19408   0.19734   0.19950   0.20181
 Alpha virt. eigenvalues --    0.20258   0.20595   0.20839   0.21055   0.21279
 Alpha virt. eigenvalues --    0.21686   0.22279   0.22317   0.22652   0.22667
 Alpha virt. eigenvalues --    0.23039   0.23176   0.23405   0.23556   0.23774
 Alpha virt. eigenvalues --    0.24273   0.24462   0.24615   0.24768   0.25377
 Alpha virt. eigenvalues --    0.25479   0.25602   0.25940   0.25994   0.26656
 Alpha virt. eigenvalues --    0.26746   0.27076   0.27190   0.27474   0.28051
 Alpha virt. eigenvalues --    0.28085   0.28251   0.28675   0.29043   0.29210
 Alpha virt. eigenvalues --    0.29504   0.29645   0.30063   0.30096   0.30477
 Alpha virt. eigenvalues --    0.30749   0.30869   0.30966   0.31208   0.31716
 Alpha virt. eigenvalues --    0.31794   0.32242   0.32569   0.32627   0.32742
 Alpha virt. eigenvalues --    0.33263   0.33331   0.33531   0.33761   0.34021
 Alpha virt. eigenvalues --    0.34479   0.34857   0.35296   0.35353   0.35616
 Alpha virt. eigenvalues --    0.35789   0.36341   0.36473   0.36770   0.36921
 Alpha virt. eigenvalues --    0.37309   0.37323   0.37507   0.37865   0.38105
 Alpha virt. eigenvalues --    0.38357   0.38666   0.39034   0.39077   0.39512
 Alpha virt. eigenvalues --    0.40044   0.40205   0.40670   0.41062   0.41113
 Alpha virt. eigenvalues --    0.41476   0.41958   0.42100   0.42827   0.43081
 Alpha virt. eigenvalues --    0.43536   0.43973   0.44333   0.44753   0.45410
 Alpha virt. eigenvalues --    0.45905   0.46050   0.47238   0.47380   0.48315
 Alpha virt. eigenvalues --    0.48459   0.48675   0.49802   0.50443   0.51246
 Alpha virt. eigenvalues --    0.52289   0.52730   0.53842   0.55156   0.56440
 Alpha virt. eigenvalues --    0.60010   0.61392   0.62215   0.63120   0.63598
 Alpha virt. eigenvalues --    0.64985   0.65337   0.67354   0.68928   0.70552
 Alpha virt. eigenvalues --    0.71864   0.73439   0.73565   0.75400   0.76539
 Alpha virt. eigenvalues --    0.77129   0.77898   0.78002   0.78590   0.79027
 Alpha virt. eigenvalues --    0.79432   0.79959   0.80478   0.81290   0.81454
 Alpha virt. eigenvalues --    0.82206   0.82650   0.82864   0.83705   0.84059
 Alpha virt. eigenvalues --    0.84459   0.84935   0.85245   0.85481   0.86592
 Alpha virt. eigenvalues --    0.86953   0.87561   0.88134   0.88497   0.88910
 Alpha virt. eigenvalues --    0.90178   0.90264   0.90921   0.91368   0.91713
 Alpha virt. eigenvalues --    0.92878   0.93874   0.95314   0.95519   0.96238
 Alpha virt. eigenvalues --    0.96587   0.97006   0.97190   0.97593   0.98144
 Alpha virt. eigenvalues --    0.99253   0.99760   1.00053   1.00242   1.00702
 Alpha virt. eigenvalues --    1.00903   1.01048   1.01545   1.01926   1.02458
 Alpha virt. eigenvalues --    1.02934   1.03305   1.03678   1.04420   1.04829
 Alpha virt. eigenvalues --    1.05090   1.05262   1.05980   1.06252   1.07676
 Alpha virt. eigenvalues --    1.08895   1.09165   1.10520   1.10952   1.11692
 Alpha virt. eigenvalues --    1.12159   1.12967   1.13319   1.13804   1.14842
 Alpha virt. eigenvalues --    1.15562   1.15954   1.16478   1.17074   1.17656
 Alpha virt. eigenvalues --    1.17963   1.18471   1.20370   1.20808   1.20859
 Alpha virt. eigenvalues --    1.21649   1.22303   1.23057   1.23343   1.24530
 Alpha virt. eigenvalues --    1.25677   1.25853   1.26860   1.27286   1.27891
 Alpha virt. eigenvalues --    1.28509   1.29550   1.30364   1.30538   1.31322
 Alpha virt. eigenvalues --    1.31593   1.32457   1.33300   1.34649   1.35286
 Alpha virt. eigenvalues --    1.36138   1.36766   1.37899   1.38077   1.38880
 Alpha virt. eigenvalues --    1.39833   1.40832   1.44542   1.46091   1.46581
 Alpha virt. eigenvalues --    1.47041   1.48080   1.48434   1.48659   1.49742
 Alpha virt. eigenvalues --    1.50509   1.50889   1.51423   1.52002   1.52337
 Alpha virt. eigenvalues --    1.52850   1.53080   1.53720   1.54230   1.54848
 Alpha virt. eigenvalues --    1.55103   1.55532   1.56150   1.56858   1.57263
 Alpha virt. eigenvalues --    1.57849   1.58098   1.58929   1.59018   1.59680
 Alpha virt. eigenvalues --    1.61677   1.62511   1.63263   1.64279   1.66101
 Alpha virt. eigenvalues --    1.67033   1.68592   1.69230   1.70520   1.73786
 Alpha virt. eigenvalues --    1.75635   1.76637   1.78853   1.80314   1.83589
 Alpha virt. eigenvalues --    1.86058   1.86647   1.88597   1.89261   1.91779
 Alpha virt. eigenvalues --    1.94000   1.95658   1.96869   1.97767   1.98361
 Alpha virt. eigenvalues --    1.98712   2.00321   2.01205   2.03113   2.05607
 Alpha virt. eigenvalues --    2.06438   2.07171   2.07750   2.08002   2.09235
 Alpha virt. eigenvalues --    2.10546   2.11046   2.12285   2.13481   2.14051
 Alpha virt. eigenvalues --    2.15129   2.17013   2.17423   2.19463   2.20569
 Alpha virt. eigenvalues --    2.21006   2.21500   2.21968   2.22687   2.23197
 Alpha virt. eigenvalues --    2.23548   2.24385   2.24848   2.25069   2.25645
 Alpha virt. eigenvalues --    2.26123   2.26239   2.26828   2.27168   2.27307
 Alpha virt. eigenvalues --    2.28169   2.28642   2.29426   2.30184   2.31419
 Alpha virt. eigenvalues --    2.31753   2.32610   2.34075   2.34515   2.35705
 Alpha virt. eigenvalues --    2.36193   2.37104   2.38344   2.38765   2.39510
 Alpha virt. eigenvalues --    2.39933   2.40624   2.41504   2.42749   2.43753
 Alpha virt. eigenvalues --    2.45297   2.46070   2.49009   2.65727   2.66174
 Alpha virt. eigenvalues --    2.67234   2.68218   2.68845   2.70446   2.71582
 Alpha virt. eigenvalues --    2.71636   2.71882   2.72515   2.73378   2.73665
 Alpha virt. eigenvalues --    2.74471   2.75945   2.77367   2.77703   2.77762
 Alpha virt. eigenvalues --    2.80354   2.80470   2.81108   2.81554   2.85202
 Alpha virt. eigenvalues --    2.86445   2.87606   2.87920   2.88321   2.89481
 Alpha virt. eigenvalues --    2.91265   2.92495   2.92991   2.95467   2.97170
 Alpha virt. eigenvalues --    2.97910   3.01841   3.11343   3.14510   3.15637
 Alpha virt. eigenvalues --    3.16787   3.43736   3.47499   3.47911   3.48853
 Alpha virt. eigenvalues --    3.74753   4.29635   4.33973   4.37394   4.38281
 Alpha virt. eigenvalues --    4.39086   4.40340   4.42323   4.43388   4.45757
 Alpha virt. eigenvalues --    4.46200   4.47546   4.48940   4.49270   4.51087
 Alpha virt. eigenvalues --    4.54185   4.55175   4.57458   4.58961   4.63436
 Alpha virt. eigenvalues --    4.65178   4.69929   4.76712   4.79756   4.81989
 Alpha virt. eigenvalues --    4.84546   4.97948
          Condensed to atoms (all electrons):
               1          2          3          4          5          6
     1  C   13.347389  -7.884313   0.747316   1.602111  -0.161258   0.359857
     2  C   -7.884313  24.839663  -4.042211  -8.684151   0.099442  -0.103918
     3  C    0.747316  -4.042211  22.313973  -5.316842  -2.195881   0.051191
     4  C    1.602111  -8.684151  -5.316842  22.090626  -4.017872   0.003794
     5  C   -0.161258   0.099442  -2.195881  -4.017872  11.636550   0.003752
     6  H    0.359857  -0.103918   0.051191   0.003794   0.003752   0.438894
     7  H   -0.115001   0.359758  -0.034815   0.006299  -0.014365  -0.003185
     8  H    0.008481   0.043588  -0.030611   0.259315  -0.074700   0.000013
     9  H   -0.012225   0.010828   0.037610  -0.045646   0.311098  -0.000107
    10  P   -1.536757   2.287373   0.154781  -2.717561   0.562799   0.001081
    11  C    0.160039   0.065231  -2.791513   0.999814  -0.603355  -0.000039
    12  C   -0.046916   1.979273   2.534576  -3.381048  -0.378455  -0.000147
    13  C   -0.053194  -2.744886  -1.690916   3.841078   0.342047   0.000581
    14  C   -0.014571  -0.090255  -0.144731   0.099944   0.156864   0.000012
    15  H    0.000341   0.000787   0.013002  -0.011625   0.002489  -0.000000
    16  C    0.291017  -0.409327  -0.322499   0.391312   0.040783   0.000115
    17  H    0.004160  -0.026851   0.116606  -0.041664  -0.015236  -0.000005
    18  H    0.000008  -0.000167   0.000359   0.000118  -0.000230  -0.000000
    19  H    0.001016   0.003012   0.005028  -0.007839   0.000465  -0.000000
    20  C   -1.101288   0.575022  -0.935524   0.346075  -0.134060   0.005558
    21  C    0.947285  -5.256760   3.153346   2.355331  -0.188199   0.003469
    22  C   -0.029887   3.909705  -1.860460  -2.350829   0.060020  -0.004456
    23  C   -0.066405   0.572206  -0.336179  -0.229802  -0.059967  -0.000047
    24  H    0.002654   0.004328  -0.004946  -0.002504   0.000232  -0.000000
    25  C    0.123396   1.332801  -1.293210  -0.490946   0.128050  -0.004447
    26  H   -0.022716   0.010347   0.121686  -0.062100  -0.013571  -0.000011
    27  C    0.093310  -0.330677   0.218866   0.116714   0.014505  -0.000150
    28  H   -0.000283  -0.000307   0.000234  -0.000151   0.000010  -0.000000
    29  H   -0.001266  -0.003976   0.006459   0.002402  -0.000529  -0.000000
    30  H    0.000328   0.000405  -0.000810   0.000030  -0.000003   0.000000
    31  C   -0.008733   0.766435  -1.625368  -0.149980   0.596296  -0.004636
    32  H    0.035419  -0.020213  -0.001514  -0.020966   0.022369  -0.002862
    33  O    0.059235   0.225475   0.642015  -0.542729  -0.114101   0.000008
    34  C    0.024221  -2.392336  -1.071489   2.227931   0.671689   0.001333
    35  C   -0.006262  -1.336730  -1.084264   1.638307   0.191207   0.000091
    36  C   -0.107380   2.277417   0.891636  -2.034288  -0.338240  -0.001035
    37  C   -0.025269  -0.098222  -0.223447   0.074552   0.003769   0.000024
    38  H   -0.000127   0.001039   0.006026  -0.003044  -0.000263  -0.000000
    39  C    0.008377  -0.027481   0.436073  -0.155490  -0.069707  -0.000197
    40  H    0.014010  -0.010471   0.018781  -0.002225  -0.003212  -0.000007
    41  H    0.000020   0.000258  -0.000191  -0.000191  -0.000009   0.000000
    42  H   -0.000842  -0.002006   0.001705   0.000671   0.000006   0.000000
    43  N   -0.004382  -0.013650  -0.014578   0.020057   0.003679   0.000000
    44  C   -0.036044   0.017213  -0.331888   0.056318   0.063708   0.000028
    45  H    0.000350   0.001510   0.010624  -0.008546  -0.001018   0.000000
    46  H   -0.000138   0.001872  -0.014439   0.002408  -0.000127   0.000000
    47  H   -0.001593  -0.001042   0.010758   0.008326   0.005100  -0.000000
    48  N   -0.001833   0.009777  -0.027983   0.014983  -0.025140  -0.000000
    49  H   -0.000043   0.000023  -0.000629   0.000833   0.000137   0.000000
    50  H    0.000001   0.000147  -0.000112  -0.000006   0.000002   0.000000
               7          8          9         10         11         12
     1  C   -0.115001   0.008481  -0.012225  -1.536757   0.160039  -0.046916
     2  C    0.359758   0.043588   0.010828   2.287373   0.065231   1.979273
     3  C   -0.034815  -0.030611   0.037610   0.154781  -2.791513   2.534576
     4  C    0.006299   0.259315  -0.045646  -2.717561   0.999814  -3.381048
     5  C   -0.014365  -0.074700   0.311098   0.562799  -0.603355  -0.378455
     6  H   -0.003185   0.000013  -0.000107   0.001081  -0.000039  -0.000147
     7  H    0.448437  -0.000126   0.000013   0.035252   0.009992  -0.000919
     8  H   -0.000126   0.443976  -0.002984   0.066490   0.050198  -0.012791
     9  H    0.000013  -0.002984   0.439091   0.012075   0.002702   0.001590
    10  P    0.035252   0.066490   0.012075  31.610242  -3.670684  -0.950573
    11  C    0.009992   0.050198   0.002702  -3.670684  23.091138  -5.998329
    12  C   -0.000919  -0.012791   0.001590  -0.950573  -5.998329  24.675711
    13  C   -0.000575  -0.030616  -0.001703   1.145693  -4.834224 -11.288971
    14  C    0.000033   0.003502   0.000071  -0.486896   0.798884  -2.496366
    15  H    0.000000  -0.000017  -0.000000   0.020842  -0.230811   0.526619
    16  C   -0.000738  -0.001223  -0.002573  -1.250220   1.008597   0.569463
    17  H    0.000042  -0.000059  -0.000003   0.047278  -0.024805  -0.006486
    18  H   -0.000000  -0.000002  -0.000000   0.004622   0.084454  -0.124473
    19  H   -0.000000  -0.000003  -0.000000  -0.000237   0.087670   0.039708
    20  C    0.087025  -0.012647  -0.000761   1.474059  -0.124611  -0.439888
    21  C   -0.026298  -0.007821  -0.000259  -5.217045   0.499108  -1.483395
    22  C   -0.011045   0.018209   0.000053   1.337024   0.168117   1.844993
    23  C    0.007526  -0.000145   0.000035   0.261525   0.257543   0.186118
    24  H   -0.000017   0.000000  -0.000000   0.078948  -0.007750   0.001486
    25  C   -0.019592   0.005383  -0.000221   0.119404   0.186744   0.178433
    26  H   -0.000081   0.000015  -0.000004   0.035462  -0.000792   0.002635
    27  C   -0.005352  -0.000061  -0.000036  -0.506318   0.023536  -0.010178
    28  H   -0.000001  -0.000000  -0.000000   0.014453  -0.000407   0.000135
    29  H   -0.000008   0.000000  -0.000000   0.000542  -0.000238  -0.000038
    30  H    0.000000   0.000000   0.000000  -0.005375   0.000013  -0.000003
    31  C    0.004763  -0.001220  -0.000591   0.079493  -0.149988  -0.095125
    32  H   -0.000115  -0.000115  -0.002873  -0.003401  -0.000267   0.000026
    33  O    0.000604   0.005203  -0.000050  -0.527383  -0.376023   0.254369
    34  C   -0.003038   0.003394  -0.000500  -2.648855  -3.676855  -1.803938
    35  C    0.001227  -0.006175   0.000120  -0.597737   3.480578   1.226000
[...]
 42,0.00024932,0.00006077,0.00026198,0.00002511,-0.00001438,0.00000781,
 0.00001661,-0.00001178,-0.00000376,-0.00001063,-0.00001216,0.00000604,
 0.00000225,0.00000805,-0.00001312,-0.00001217,0.00000173,-0.00000058,-
 0.00000127,0.01368129,0.01348009,0.00497461,0.00013008,-0.00011393,0.0
 0004098,-0.00000452,0.00002691,0.00006124,0.00002057,0.00005084,0.0000
 1784,-0.00001198,-0.00001215,-0.00001979,0.00001367,-0.00000521,0.0000
 0281,-0.00002412,-0.00003509,0.00000421,-0.00000101,-0.00000245,-0.000
 00137,0.00000498,0.00000337,0.00000512,0.00000302,0.00000384,0.0000009
 5,0.00001644,0.00003155,0.00000842,-0.13996444,-0.19818975,-0.02584941
 ,-0.00129445,-0.00149410,-0.00089909,-0.01953158,-0.01605879,-0.001282
 27,0.14661138,0.20181112,0.00000048,0.00000271,-0.00002736,-0.00000868
 ,0.00005174,0.00000618,0.00022495,-0.00000062,0.00001415,0.00004289,0.
 00000010,-0.00001079,-0.00001344,0.00000341,-0.00000445,0.00000096,0.0
 0000775,-0.00000591,0.00000448,-0.00000096,-0.00000038,0.00000547,-0.0
 0002748,0.00000917,-0.00000155,0.00000649,-0.00000228,-0.00237890,-0.0
 0197913,0.00447549,-0.00010460,0.00049499,-0.00090379,-0.00013135,0.00
 001444,0.00001157,-0.00038573,0.00006088,0.00013156,0.00012554,-0.0000
 3092,0.00002177,0.00009673,0.00001820,-0.00011267,-0.00000289,-0.00000
 115,-0.00013485,0.00001775,0.00000956,-0.00000773,-0.00001655,0.000011
 91,-0.00000095,-0.00004056,-0.00000271,0.00000711,-0.00004534,-0.00022
 628,-0.00146878,0.00007973,0.00004504,0.00012401,0.00071252,-0.0000489
 7,-0.00148053,0.00001940,0.00003290,0.00001092,-0.00000516,0.00003990,
 -0.00000275,0.00015160,0.00003574,0.00006068,0.00002499,0.00028615,-0.
 00019394,-0.00001976,0.00002810,-0.00000947,0.00000173,0.00000610,0.00
 000968,-0.00001254,-0.00001206,0.00001196,-0.00001295,0.00001448,-0.00
 000143,0.00000638,0.00000844,-0.00000472,0.00000112,0.00000225,-0.0000
 0065,-0.02363421,-0.01135524,-0.01246491,0.00000865,0.00028940,-0.0001
 4608,0.00001278,-0.00001283,0.00002148,-0.00005394,-0.00013481,-0.0000
 5914,0.00001418,0.00004146,0.00004241,0.00002844,0.00004997,-0.0000106
 2,0.00003208,0.00006262,-0.00002851,0.00000254,0.00000110,-0.00000064,
 -0.00000147,-0.00000484,-0.00000589,-0.00000912,-0.00001124,-0.0000026
 6,-0.00002328,-0.00005840,-0.00004328,-0.01636164,-0.02061090,-0.05452
 356,0.01890547,0.01998547,0.00624764,-0.00740957,-0.00889350,-0.000096
 05,0.03026294,0.02175281,0.06059992,0.00003889,-0.00035906,0.00021059,
 0.00018525,-0.00027737,-0.00060281,-0.00149620,-0.00020116,0.00081979,
 -0.00041191,-0.00044738,0.00004285,-0.00012104,0.00024433,-0.00012637,
 0.00000088,-0.00006744,0.00007759,-0.00004236,0.00006427,-0.00000998,-
 0.00002456,0.00023794,0.00037385,-0.00000299,-0.00008413,-0.00001857,0
 .00808934,-0.00102345,-0.00006459,0.00514638,-0.00173590,0.00068901,-0
 .03662707,0.01450048,-0.03468227,-0.04127241,-0.00192576,0.03541762,-0
 .20556269,0.04584785,-0.11454848,-0.00591357,0.00157189,0.00196440,-0.
 20451568,-0.01103811,0.12217435,-0.00643877,0.00241265,-0.00084141,0.0
 1423181,-0.00550782,0.01671886,0.01389416,0.00237755,-0.01635211,-0.00
 028945,-0.00016414,-0.00025777,-0.00009044,-0.00010139,-0.00002264,-0.
 00017701,0.00021043,0.00005683,-0.00004503,0.00002650,0.00002191,0.000
 04264,-0.00002138,-0.00000795,-0.00002334,-0.00007234,-0.00000449,0.00
 003407,0.00000024,-0.00000143,-0.00007031,0.00003080,0.00000670,-0.000
 03676,0.00002379,0.00000489,-0.00005075,-0.00000509,-0.00000705,-0.000
 02237,0.00000350,0.00000033,-0.00014005,-0.00005040,0.00034569,-0.0000
 0128,-0.00004012,0.00004649,-0.00295498,0.00070558,-0.00169203,-0.0018
 9608,0.00003671,0.00042289,0.00012154,0.00106097,0.00062292,0.00019087
 ,0.00050318,0.00002096,-0.00020365,-0.00074378,-0.00099323,0.00000881,
 -0.00007540,0.00006152,0.00011429,-0.00036367,-0.00007557,-0.00009293,
 0.00001436,-0.00004171,-0.00002712,0.00004366,0.00003700,0.00000667,0.
 00006396,0.00001966,0.00020693,0.00048528,0.00084968,0.00060862,-0.000
 33587,0.00062944,-0.00006200,0.00006585,-0.00017495,-0.00014978,0.0001
 0457,-0.00009468,-0.00018983,0.00003749,-0.00014270,0.90672400,0.00001
 298,-0.00001056,0.00000550,-0.00005378,0.00004084,0.00000334,0.0000751
 5,0.00007317,0.00008778,0.00011861,0.00004048,0.00006935,0.00001885,-0
 .00001185,-0.00008210,0.00000821,0.00000828,-0.00000261,-0.00000006,-0
 .00000480,0.00000082,0.00002629,-0.00005461,-0.00010559,0.00000766,0.0
 0001429,-0.00000173,-0.00133204,-0.00050014,0.00048099,-0.00140107,-0.
 01391116,0.01704055,0.02826202,0.00686739,-0.00060657,-0.01556030,0.01
 480780,-0.00983659,0.02848889,-0.08726406,0.07304079,0.00168655,0.0082
 6873,0.00122120,0.00660913,-0.07569621,0.04157004,0.00200753,0.0080323
 3,0.00169704,0.00368911,0.00094109,0.00416168,-0.00697383,0.00097771,0
 .00872404,0.00008715,0.00007350,-0.00001997,0.00000572,0.00004271,0.00
 000049,0.00003604,-0.00004210,-0.00001907,0.00001062,-0.00001654,0.000
 01327,-0.00001467,-0.00000593,0.00000091,0.00001116,0.00001392,0.00001
 954,-0.00000680,-0.00000168,-0.00000093,0.00000369,0.00000118,-0.00000
 880,0.00000388,-0.00000341,-0.00000068,0.00000921,0.00000104,0.0000010
 2,0.00000283,-0.00000199,-0.00000106,-0.00002346,0.00005134,-0.0000026
 6,0.00000070,0.00000296,-0.00000888,0.00061413,-0.00019579,0.00015777,
 0.00027793,0.00018959,-0.00016188,-0.00024174,-0.00008727,-0.00001821,
 -0.00018248,0.00012417,0.00004362,0.00002230,0.00006440,0.00016688,-0.
 00002056,0.00001230,-0.00002471,-0.00016500,-0.00019490,-0.00005724,0.
 00006672,-0.00001614,-0.00000270,0.00000235,0.00000032,-0.00000180,-0.
 00000891,-0.00000810,-0.00000169,0.00005285,0.00010493,-0.00017873,-0.
 00008439,0.00006586,-0.00021011,0.00000624,-0.00000530,0.00002872,0.00
 003758,-0.00002716,0.00003450,0.00004040,-0.00000686,0.00003666,-0.099
 77001,0.17624490,-0.00013001,0.00053698,-0.00006612,-0.00006552,-0.000
 38492,0.00071782,0.00082137,0.00049110,-0.00022691,0.00092241,0.000419
 97,-0.00015758,-0.00005289,-0.00042907,0.00055225,-0.00001074,0.000004
 45,-0.00002787,0.00001289,-0.00001712,-0.00000722,-0.00002672,0.000144
 64,-0.00011350,-0.00000415,0.00003387,0.00000957,0.00025406,-0.0000542
 5,-0.00237441,-0.00105533,0.01740313,-0.08140423,-0.09199840,0.0061564
 1,0.03357281,0.09236761,-0.01688433,0.02916952,-0.04139616,0.06283010,
 -0.30680084,0.00117234,0.00131902,0.00241644,0.05031158,0.05167441,-0.
 30641570,-0.00039426,0.00164315,0.00277108,-0.02212234,0.00941738,-0.0
 2439141,0.02211975,0.00337483,-0.02438275,-0.00000681,0.00004578,0.000
 14408,0.00000786,-0.00002386,-0.00002157,0.00002075,-0.00002860,0.0000
 0965,0.00000978,-0.00000177,-0.00000020,0.00000496,0.00001353,0.000013
 41,0.00000780,0.00001917,0.00000543,0.00000422,-0.00000682,-0.00000283
 ,-0.00000083,0.00000094,-0.00001259,0.00000200,-0.00000151,-0.00000049
 ,0.00000588,-0.00000134,0.00000287,0.00000243,-0.00000077,0.00000186,0
 .00020235,-0.00016658,-0.00047915,-0.00000128,0.00001654,-0.00001507,-
 0.00077379,0.00002433,0.00021757,0.00050748,-0.00022670,0.00042050,0.0
 0009147,-0.00010531,-0.00002075,0.00021729,-0.00058887,-0.00043768,-0.
 00011868,0.00017927,-0.00004416,0.00010289,-0.00008392,0.00008870,0.00
 034538,0.00096312,0.00022928,-0.00003513,0.00002244,0.00001802,-0.0000
 1239,-0.00000542,0.00000028,0.00003336,-0.00001518,-0.00000266,-0.0003
 0621,-0.00062369,0.00019290,0.00004509,0.00001556,0.00038471,0.0000070
 1,0.00000234,-0.00000342,-0.00007291,0.00004885,-0.00007129,-0.0000492
 0,0.00000745,-0.00005219,-0.02020777,-0.14646778,0.74708029,-0.0000049
 1,0.00006317,-0.00004649,-0.00004500,0.00005968,0.00009265,0.00030273,
 0.00003346,-0.00015775,0.00006231,0.00007691,-0.00000445,0.00001227,-0
 .00005206,0.00002803,0.00000129,0.00001342,-0.00001456,0.00000829,-0.0
 0001308,0.00000096,-0.00000168,-0.00004189,-0.00005373,-0.00000363,0.0
 0001217,0.00000229,-0.00168759,0.00013257,-0.00005618,0.00054607,-0.00
 032167,-0.00007886,0.00310657,0.00111396,-0.00214923,0.00289179,-0.000
 04189,0.00260099,-0.00974700,0.00163356,-0.00109587,-0.00010465,0.0000
 1462,0.00031335,-0.01039609,0.00113187,0.00122248,-0.00012714,0.000154
 27,-0.00027668,0.00103030,-0.00075761,0.00018507,0.00100392,-0.0005741
 6,-0.00045413,0.00006747,0.00003483,0.00007499,0.00001399,0.00001983,0
 .00000549,0.00003241,-0.00004240,-0.00000911,0.00000866,-0.00000334,-0
 .00000766,-0.00001056,0.00000404,0.00000202,0.00000654,0.00001444,-0.0
 0000292,-0.00000665,0.00000019,0.00000054,0.00001536,-0.00000638,0.000
 00036,0.00000713,-0.00000481,-0.00000110,0.00001008,0.00000119,0.00000
 149,0.00000459,-0.00000086,-0.00000008,0.00003249,0.00000868,-0.000053
 70,0.00000023,0.00000772,-0.00000844,0.00046439,-0.00015823,0.00046162
 ,0.00035311,0.00002113,-0.00008499,-0.00004832,-0.00019421,-0.00009535
 ,-0.00005294,-0.00011560,-0.00003517,0.00002302,0.00013203,0.00017985,
 -0.00000088,0.00001188,-0.00001311,-0.00002057,0.00008226,0.00000719,0
 .00002045,-0.00000251,0.00000387,0.00000480,-0.00000621,-0.00000699,-0
 .00000173,-0.00001223,-0.00000308,-0.00003443,-0.00009305,-0.00014779,
 -0.00011415,0.00006297,-0.00007997,0.00002016,-0.00001261,0.00003153,0
 .00002561,-0.00001943,0.00001431,0.00003436,-0.00000610,0.00002630,-0.
 44060437,0.05353092,0.00918911,0.45288569,-0.00001252,0.00000081,0.000
 01581,-0.00000529,-0.00006526,0.00001146,-0.00006802,0.00007442,0.0001
 1224,-0.00002095,0.00000756,-0.00001440,0.00002102,0.00000777,0.000016
 78,0.00000337,-0.00000512,0.00000476,-0.00000078,0.00000132,-0.0000035
 7,0.00000637,0.00003340,0.00000979,-0.00000574,-0.00000800,-0.00000040
 ,0.00015735,-0.00080679,-0.00016499,-0.00031757,-0.00151673,0.00020836
 ,0.00124577,0.00648557,0.00300998,-0.00031358,0.00640935,0.00244469,0.
 00901549,-0.00103723,-0.00133156,0.00035071,0.00051578,0.00001741,-0.0
 0653087,0.00093169,-0.00130152,-0.00025495,0.00050859,0.00011705,-0.00
 062821,-0.00363356,-0.00100915,-0.00062994,-0.00343581,-0.00089981,0.0
 0000013,0.00007568,0.00001401,-0.00001658,-0.00000308,0.00000885,0.000
 01454,0.00000037,0.00000411,-0.00000199,0.00000390,-0.00000493,-0.0000
 0104,0.00000028,-0.00000416,-0.00000121,0.00000113,-0.00000441,0.00000
 163,0.00000021,-0.00000043,0.00000084,-0.00000161,0.00000316,-0.000000
 30,0.00000032,-0.00000026,0.00000038,-0.00000054,0.00000013,-0.0000003
 1,0.00000004,-0.00000055,0.00000021,-0.00000342,0.00000808,-0.00000339
 ,-0.00000202,0.00000056,-0.00007310,-0.00003696,-0.00011200,0.00013202
 ,0.00008341,-0.00007185,-0.00002538,-0.00005959,0.00001409,-0.00001912
 ,0.00003347,-0.00000259,-0.00000493,0.00002595,0.00005357,0.00001233,0
 .00000607,0.00000481,-0.00005643,-0.00004553,-0.00002090,0.00002332,-0
 .00000609,-0.00000052,0.00001089,-0.00000604,-0.00000136,0.00000121,-0
 .00000259,-0.00000171,0.00001975,0.00002230,-0.00005574,0.00002854,0.0
 0001152,-0.00001566,-0.00000754,0.00000809,-0.00000616,0.00000110,0.00
 000188,-0.00000307,-0.00000368,-0.00000108,-0.00000065,0.05386646,-0.0
 3900578,0.00927086,-0.05591994,0.03443594,-0.00000160,0.00001425,0.000
 00649,-0.00001090,-0.00002962,0.00003837,0.00001172,0.00004983,0.00002
 349,0.00002703,-0.00000843,-0.00001311,0.00000805,-0.00000779,0.000018
 51,0.00000171,-0.00000102,-0.00000038,-0.00000137,-0.00000132,-0.00000
 158,0.00000239,0.00001215,-0.00000031,-0.00000088,0.00000030,0.0000004
 8,-0.00000256,-0.00018595,-0.00018217,-0.00013220,0.00021831,-0.002364
 04,-0.00279164,0.00311927,-0.00424791,0.00346066,0.00228560,-0.0043384
 7,-0.03262723,0.00315458,0.00592566,-0.00117347,0.00021720,0.00032011,
 0.03242506,-0.00572835,0.00474580,0.00131823,-0.00012448,0.00022740,-0
 .00018977,-0.00096963,0.00018105,-0.00008736,-0.00093165,0.00016982,-0
 .00000630,0.00002235,0.00002568,-0.00000379,-0.00000533,-0.00000084,0.
 00000336,0.00000228,0.00000446,-0.00000281,0.00000303,-0.00000209,0.00
 000030,0.00000034,0.00000116,0.00000054,-0.00000010,-0.00000569,0.0000
 0139,-0.00000145,0.00000014,0.00000010,-0.00000017,0.00000176,-0.00000
 048,0.00000013,0.00000015,-0.00000020,-0.00000032,0.00000029,-0.000000
 07,-0.00000014,0.00000035,-0.00000133,-0.00000135,-0.00001324,0.000000
 45,0.00000136,-0.00000014,-0.00017852,-0.00001814,0.00011051,0.0000412
 0,0.00002106,0.00000277,-0.00000074,-0.00000387,-0.00000263,0.00000022
 ,-0.00000565,-0.00001809,-0.00000503,0.00000676,0.00000987,0.00000444,
 -0.00000442,0.00000608,0.00000602,0.00003063,0.00000402,0.00000352,-0.
 00000146,0.00000588,0.00000205,-0.00000141,0.00000073,0.00000117,-0.00
 000169,-0.00000048,-0.00001082,-0.00002218,-0.00000177,0.00002641,-0.0
 0001364,0.00006126,0.00000820,0.00000227,-0.00000592,-0.00000665,0.000
 00475,-0.00000675,-0.00000744,0.00000080,-0.00000540,0.00940601,0.0092
 1675,-0.07054255,-0.00952289,-0.01031389,0.06985895,0.00000833,-0.0000
 0015,0.00000906,-0.00001366,-0.00000867,-0.00000514,0.00000600,0.00002
 652,0.00005379,0.00000512,0.00001298,-0.00004066,0.00000610,0.00000842
 ,0.00000586,0.00000184,0.00000252,-0.00000181,0.00000338,-0.00000619,-
 0.00000258,0.00000080,-0.00000755,-0.00000070,0.00000110,0.00000552,0.
 ,-0.00103983,-0.00002867,-0.00031120,0.00016959,0.00028513,0.00030998,
 -0.00011000,0.00000299,-0.00001155,-0.00011030,0.00000690,-0.00003476,
 0.00000464,-0.00005668,0.00001848,0.00001019,0.00002311,0.00000564,0.0
 0009987,-0.00002954,-0.00006668,0.00001620,0.00000123,0.00000441,-0.00
 001085,0.00000649,-0.00000033,-0.00000636,0.00001453,0.00000500,-0.000
 02678,-0.00011841,-0.00003598,0.00001616,-0.00006284,-0.00003371,-0.00
 003443,0.00001331,0.00000596,0.00000376,0.00001919,0.00002449,0.000004
 66,0.00002762,-0.00003409,0.00000141,-0.00000410,-0.00000635,0.0000005
 2,0.00000386,-0.00000039,0.00000506,-0.00000027,0.00000615,-0.00000596
 ,-0.00000079,-0.00000033,-0.00000032,0.00000269,0.00000082,0.00000341,
 0.00000141,0.00000042,-0.00000823,0.00000885,-0.00000611,0.00000068,0.
 00000223,-0.00000075,0.00007599,0.00000078,0.00012796,-0.00093303,0.00
 043591,0.00021804,0.00669687,-0.00128917,0.00115684,0.00601934,-0.0031
 3271,0.00165321,0.00156184,0.00347252,0.00045678,0.00043721,-0.0000039
 2,0.00017717,-0.00266688,-0.00785691,-0.00521593,0.00032411,-0.0003299
 4,-0.00021661,-0.00328663,0.00160683,0.00015723,-0.00330164,0.00171924
 ,-0.00008205,-0.07081375,-0.10875773,-0.05636594,-0.00002414,0.0000058
 7,-0.00003008,0.00000344,-0.00000177,0.00000765,0.00000451,-0.00000700
 ,0.00000149,0.00000846,-0.00000192,0.00000579,-0.00008835,0.00000573,0
 .00005240,0.00001622,0.00000992,0.00000582,0.06696431,0.,0.00000304,-0
 .00001446,-0.00003584,0.00002367,0.00002353,0.00000960,0.00000789,0.00
 008946,0.00004855,0.00001643,-0.00005399,-0.00000762,0.00001784,0.0000
 0092,0.00000068,0.00000518,-0.00000655,0.00000017,-0.00001665,0.000002
 89,0.00000078,-0.00001119,0.00000203,-0.00000204,0.00001119,-0.0000034
 7,-0.00006974,-0.00104090,-0.00079249,0.00013658,0.00023709,0.00013151
 ,-0.00013023,0.00003465,-0.00003074,-0.00014547,0.00003340,0.00000677,
 0.00006808,-0.00005182,0.00002150,0.00000561,0.00000518,0.00000198,0.0
 0013833,-0.00001094,-0.00006332,0.00000806,-0.00002025,0.00000834,-0.0
 0001100,0.00000523,-0.00000086,-0.00000557,-0.00000029,0.00000023,0.00
 011935,0.00032757,0.00020410,0.00003904,-0.00003281,-0.00001343,0.0001
 1277,-0.00011554,-0.00004131,-0.00000331,0.00003834,0.00001067,-0.0000
 7953,0.00005628,0.00000533,0.00003828,0.00003976,0.00001282,-0.0000071
 5,0.00000782,0.00000479,0.00003916,0.00000574,0.00000242,0.00001200,-0
 .00000878,-0.00000254,0.00002352,0.00000147,0.00000079,0.00001177,0.00
 000273,0.00000055,-0.00000127,0.00001455,-0.00000057,0.00000181,0.0000
 0424,-0.00000154,0.00007487,0.00002302,0.00030018,0.00026179,-0.000391
 78,0.00127849,-0.00135994,0.00401025,0.00219976,-0.00298047,-0.0001690
 3,0.00381823,0.00296747,0.00759189,0.00033926,-0.00002347,0.00045607,0
 .00031511,-0.00717395,-0.01863614,-0.01257959,-0.00031052,-0.00031015,
 -0.00065138,0.00162070,0.00021984,0.00057765,0.00169570,0.00039565,0.0
 0005683,-0.10890487,-0.31447606,-0.14934809,-0.00009219,0.00004350,-0.
 00009450,0.00000725,-0.00000626,0.00001774,0.00000964,-0.00001256,0.00
 000261,0.00002057,-0.00000438,0.00001186,-0.00012912,0.00000712,0.0000
 3819,0.00002852,-0.00000398,-0.00000058,0.11397266,0.32167290,0.000002
 17,0.00000031,0.00000847,-0.00001306,-0.00004463,-0.00000421,-0.000010
 82,0.00000811,0.00004159,0.00002469,0.00000158,-0.00003908,0.00000246,
 0.00001704,0.00000289,0.00000285,0.00000416,-0.00000366,-0.00002421,-0
 .00000896,0.00000880,-0.00000103,-0.00000669,0.00000189,-0.00000085,0.
 00000703,-0.00000119,-0.00017616,-0.00052096,-0.00058009,0.00005358,0.
 00017474,0.00013290,-0.00006504,0.00001081,-0.00003351,-0.00011288,0.0
 0002635,-0.00000962,-0.00000279,-0.00002936,0.00000334,0.00000391,0.00
 000806,0.00000534,0.00009977,0.00000101,-0.00004552,0.00001249,-0.0000
 2908,0.00000984,-0.00000794,0.00000172,-0.00000149,-0.00000590,0.00000
 476,0.00000387,0.00007040,0.00018073,0.00008799,0.00002619,-0.00002307
 ,0.00001430,0.00005188,-0.00007098,-0.00000518,-0.00000784,0.00001395,
 0.00001250,-0.00003342,0.00003384,-0.00002030,0.00002794,0.00001947,0.
 00000213,-0.00000388,0.00000531,0.00000266,0.00002143,0.00001034,0.000
 00256,0.00000501,-0.00000614,0.00000144,0.00001330,0.00000193,-0.00000
 099,0.00000687,0.00000118,0.00000039,-0.00000900,0.00001414,-0.0000023
 8,0.00000022,0.00000425,-0.00000057,0.00003273,-0.00001703,0.00019614,
 0.00052171,0.00113428,-0.00167935,0.00059746,0.00104002,-0.00545396,0.
 00214883,0.00502714,-0.00053556,-0.01160027,-0.02992276,-0.01358946,-0
 .00041583,-0.00113892,-0.00024596,0.00659845,0.01756565,0.01676659,0.0
 0035916,0.00084052,0.00064784,0.00001376,0.00019069,0.00066301,0.00011
 219,0.00049444,0.00050344,-0.05627906,-0.14924008,-0.16611471,-0.00003
 955,0.00001795,-0.00004320,0.00000427,-0.00000226,0.00000929,0.0000073
 3,-0.00000512,0.00000305,0.00001070,-0.00000281,0.00000667,-0.00007127
 ,-0.00000118,0.00005607,0.00001580,-0.00000432,0.00000230,0.05803329,0
 .15421284,0.16921266\\0.00000365,-0.00000535,-0.00000620,0.00000129,0.
 00000065,0.00000290,-0.00000260,-0.00001151,-0.00001343,0.00000639,0.0
 0000067,-0.00000201,0.00000699,0.00000087,-0.00000885,0.00000410,-0.00
 000836,-0.00000707,0.00000575,-0.00000122,-0.00000028,0.00000542,0.000
 00581,-0.00000672,0.00000601,0.00000054,-0.00000909,0.00002894,-0.0000
 1968,0.00002524,-0.00000875,0.00000075,-0.00000862,-0.00000644,0.00000
 565,0.00000512,0.00000674,-0.00000319,0.00000612,0.00000843,0.00001223
 ,0.00000641,-0.00000045,0.00000909,0.00000105,-0.00000969,0.00000663,0
 .00000856,0.00000582,0.00000122,-0.00000134,-0.00000031,0.00001089,-0.
 00000018,0.00000226,0.00000429,-0.00000206,-0.00001732,0.00001011,-0.0
 0000175,-0.00001203,-0.00000175,-0.00000010,0.00000881,0.00000255,-0.0
 0000392,0.00000448,-0.00000669,0.00000448,-0.00000476,-0.00000471,0.00
 000683,-0.00000484,-0.00000347,-0.00000136,0.00000059,-0.00000394,-0.0
 0000352,-0.00000402,-0.00001181,0.00000147,-0.00000510,-0.00000685,0.0
 0000472,0.00000296,-0.00000635,-0.00000237,-0.00000112,-0.00000667,-0.
 00000131,0.00000427,-0.00000327,-0.00000843,0.00000782,-0.00000482,-0.
 00001046,0.00000662,0.00003087,-0.00000081,-0.00000381,-0.00000530,-0.
 00002075,-0.00001280,-0.00000064,-0.00000424,0.00000341,0.00000914,0.0
 0001753,-0.00000925,-0.00000861,0.00002633,-0.00000001,0.00000811,0.00
 000556,-0.00000912,-0.00002168,-0.00000870,-0.00000068,-0.00000906,0.0
 0000188,-0.00000424,0.00000254,0.00000229,-0.00000692,-0.00000901,0.00
 000992,0.00000685,0.00002107,0.00000600,-0.00000372,-0.00000391,-0.000
 00290,0.00000091,0.00000399,0.00000228,-0.00000321,0.00000333,0.000004
 41,0.00000222,0.00000537,-0.00000162,0.00000403,0.00001099,-0.00001488
 ,0.00000128,0.00000807,0.,-0.00001484,-0.00000757,0.00000388\\\@


 REPARTEE - WHAT YOU THINK OF AFTER YOU BECOME A DEPARTEE.
 Job cpu time:       1 days  8 hours  2 minutes 42.5 seconds.
 Elapsed time:       0 days  1 hours 20 minutes 19.3 seconds.
 File lengths (MBytes):  RWF=   2320 Int=      0 D2E=      0 Chk=     56 Scr=     16
 Normal termination of Gaussian 16 at Thu Mar 15 15:35:48 2018.
