Job Start Time: Wed Mar 14 08:23:24 MDT 2018
SLURM Job ID: 689057
SLURM Job Name: Int3_2Pyrax_SMD
 Entering Gaussian System, Link 0=/projects/user/g16/g16
 Initial command:
 /projects/user/g16/l1.exe "/gpfs/summit/scratch/user/689057/Gau-72778.inp" -scrdir="/gpfs/summit/scratch/user/689057/"
 Entering Link 1 = /projects/user/g16/l1.exe PID=     72780.
  
 Copyright (c) 1988,1990,1992,1993,1995,1998,2003,2009,2016,
            Gaussian, Inc.  All Rights Reserved.
  
 This is part of the Gaussian(R) 16 program.  It is based on
 the Gaussian(R) 09 system (copyright 2009, Gaussian, Inc.),
 the Gaussian(R) 03 system (copyright 2003, Gaussian, Inc.),
 the Gaussian(R) 98 system (copyright 1998, Gaussian, Inc.),
 the Gaussian(R) 94 system (copyright 1995, Gaussian, Inc.),
 the Gaussian 92(TM) system (copyright 1992, Gaussian, Inc.),
 the Gaussian 90(TM) system (copyright 1990, Gaussian, Inc.),
 the Gaussian 88(TM) system (copyright 1988, Gaussian, Inc.),
 the Gaussian 86(TM) system (copyright 1986, Carnegie Mellon
 University), and the Gaussian 82(TM) system (copyright 1983,
 Carnegie Mellon University). Gaussian is a federally registered
 trademark of Gaussian, Inc.
  
 This software contains proprietary and confidential information,
 including trade secrets, belonging to Gaussian, Inc.
  
 This software is provided under written license and may be
 used, copied, transmitted, or stored only in accord with that
 written license.
  
 The following legend is applicable only to US Government
 contracts under FAR:
  
                    RESTRICTED RIGHTS LEGEND
  
 Use, reproduction and disclosure by the US Government is
 subject to restrictions as set forth in subparagraphs (a)
 and (c) of the Commercial Computer Software - Restricted
 Rights clause in FAR 52.227-19.
  
 Gaussian, Inc.
 340 Quinnipiac St., Bldg. 40, Wallingford CT 06492
  
  
 ---------------------------------------------------------------
 Warning -- This program may not be used in any manner that
 competes with the business of Gaussian, Inc. or will provide
 assistance to any competitor of Gaussian, Inc.  The licensee
 of this program is prohibited from giving any competitor of
 Gaussian, Inc. access to this program.  By using this program,
 the user acknowledges that Gaussian, Inc. is engaged in the
 business of creating and licensing software in the field of
 computational chemistry and represents and warrants to the
 licensee that it is not a competitor of Gaussian, Inc. and that
 it will not use this program in any manner prohibited above.
 ---------------------------------------------------------------
  

 Cite this work as:
 Gaussian 16, Revision A.03,
 M. J. Frisch, G. W. Trucks, H. B. Schlegel, G. E. Scuseria, 
 M. A. Robb, J. R. Cheeseman, G. Scalmani, V. Barone, 
 G. A. Petersson, H. Nakatsuji, X. Li, M. Caricato, A. V. Marenich, 
 J. Bloino, B. G. Janesko, R. Gomperts, B. Mennucci, H. P. Hratchian, 
 J. V. Ortiz, A. F. Izmaylov, J. L. Sonnenberg, D. Williams-Young, 
 F. Ding, F. Lipparini, F. Egidi, J. Goings, B. Peng, A. Petrone, 
 T. Henderson, D. Ranasinghe, V. G. Zakrzewski, J. Gao, N. Rega, 
 G. Zheng, W. Liang, M. Hada, M. Ehara, K. Toyota, R. Fukuda, 
 J. Hasegawa, M. Ishida, T. Nakajima, Y. Honda, O. Kitao, H. Nakai, 
 T. Vreven, K. Throssell, J. A. Montgomery, Jr., J. E. Peralta, 
 F. Ogliaro, M. J. Bearpark, J. J. Heyd, E. N. Brothers, K. N. Kudin, 
 V. N. Staroverov, T. A. Keith, R. Kobayashi, J. Normand, 
 K. Raghavachari, A. P. Rendell, J. C. Burant, S. S. Iyengar, 
 J. Tomasi, M. Cossi, J. M. Millam, M. Klene, C. Adamo, R. Cammi, 
 J. W. Ochterski, R. L. Martin, K. Morokuma, O. Farkas, 
 J. B. Foresman, and D. J. Fox, Gaussian, Inc., Wallingford CT, 2016.
 
 ******************************************
 Gaussian 16:  ES64L-G16RevA.03 25-Dec-2016
                14-Mar-2018 
 ******************************************
 %mem=98GB
 %nprocshared=24
 Will use up to   24 processors via shared memory.
 %chk=Int3_sdcx.chk
 ----------------------------------------------------------------------
 # wb97xd/6-31+g(d) opt=(maxcycles=200) scrf=(solvent=ethanol,smd) freq
 =noraman geom=connectivity
 ----------------------------------------------------------------------
 1/6=200,18=20,19=15,26=3,38=1,57=2/1,3;
 2/9=110,12=2,17=6,18=5,40=1/2;
 3/5=1,6=6,7=11,11=2,25=1,30=1,70=32201,71=1,72=4,74=-58/1,2,3;
 4//1;
 5/5=2,38=5,53=4/2;
 6/7=2,8=2,9=2,10=2,28=1/1;
 7//1,2,3,16;
 1/6=200,18=20,19=15,26=3/3(2);
 2/9=110/2;
 99//99;
 2/9=110/2;
 3/5=1,6=6,7=11,11=2,25=1,30=1,70=32205,71=1,72=4,74=-58/1,2,3;
 4/5=5,16=3,69=1/1;
 5/5=2,38=5,53=4/2;
 7//1,2,3,16;
 1/6=200,18=20,19=15,26=3/3(-5);
 2/9=110/2;
 6/7=2,8=2,9=2,10=2,19=2,28=1/1;
 99/9=1/99;
 ------------------------
 Int1_Pyrax_wB97XD/631g+d
 ------------------------
 Symbolic Z-matrix:
 Charge =  2 Multiplicity = 1
 C                    -1.08566   2.97756  -2.18862 
 C                    -0.95151   1.7347   -1.57736 
 C                    -0.18279   1.60172  -0.414 
 C                     0.40589   2.73707   0.15374 
 C                     0.2351    3.98667  -0.43747 
 H                    -1.65949   3.06811  -3.1056 
 H                    -1.45867   0.8779   -2.0126 
 H                     0.99111   2.65707   1.0667 
 H                     0.67895   4.865     0.02038 
 P                     0.01626  -0.00491   0.44788 
 C                    -1.97461  -0.22173   0.45874 
 C                    -2.77512   0.84595   0.90536 
 C                    -2.64367  -1.37207   0.01808 
 C                    -4.14897   0.75362   0.90707 
 H                    -2.32705   1.77485   1.24634 
 C                    -4.02492  -1.43382   0.02389 
 H                    -2.09946  -2.23888  -0.34129 
 H                    -4.80928   1.54547   1.24078 
 H                    -4.5899   -2.29629  -0.31061 
 C                     1.97711   0.25124   0.55922 
 C                     2.74846   0.10927   1.72131 
 C                     2.67162   0.50932  -0.63651 
 C                     4.12495   0.21733   1.67288 
 H                     2.27894  -0.08239   2.67714 
 C                     4.04351   0.60907  -0.65423 
 H                     2.14261   0.64065  -1.57518 
 H                     4.76619   0.1185    2.54107 
 H                     4.62422   0.8057   -1.54754 
 C                    -0.49704   4.10522  -1.61672 
 H                    -0.61571   5.07623  -2.08705 
 O                     0.06942  -0.13558   2.07457 
 C                     0.30092  -1.52554  -0.52032 
 C                     0.20403  -1.58519  -1.91384 
 C                     0.63855  -2.67601   0.20268 
 C                     0.44001  -2.78886  -2.57502 
 H                    -0.04413  -0.70381  -2.49699 
 C                     0.86104  -3.87901  -0.46352 
 H                     0.73593  -2.64073   1.28543 
 H                     0.37076  -2.82862  -3.65769 
 H                     1.11697  -4.76896   0.10294 
 C                    -0.88238  -0.68921   2.99351 
 H                    -0.31429  -0.90272   3.89965 
 H                    -1.6677    0.03341   3.2235 
 H                    -1.31822  -1.61685   2.61412 
 C                     0.76182  -3.93663  -1.85243 
 H                     0.93957  -4.87308  -2.37154 
 N                     4.73285   0.46021   0.49724 
 N                    -4.73494  -0.37953   0.46496 
 H                     5.74572   0.53649   0.47523 
 H                    -5.74973  -0.43744   0.46416 
 
 Add virtual bond connecting atoms C20        and P10        Dist= 3.74D+00.
 Add virtual bond connecting atoms C11        and P10        Dist= 3.78D+00.

 GradGradGradGradGradGradGradGradGradGradGradGradGradGradGradGradGradGrad
 Berny optimization.
 Initialization pass.
                           ----------------------------
                           !    Initial Parameters    !
                           ! (Angstroms and Degrees)  !
 --------------------------                            --------------------------
 ! Name  Definition              Value          Derivative Info.                !
 --------------------------------------------------------------------------------
 ! R1    R(1,2)                  1.3915         estimate D2E/DX2                !
 ! R2    R(1,6)                  1.0855         estimate D2E/DX2                !
 ! R3    R(1,29)                 1.3947         estimate D2E/DX2                !
 ! R4    R(2,3)                  1.4007         estimate D2E/DX2                !
 ! R5    R(2,7)                  1.0866         estimate D2E/DX2                !
 ! R6    R(3,4)                  1.3992         estimate D2E/DX2                !
 ! R7    R(3,10)                 1.834          estimate D2E/DX2                !
 ! R8    R(4,5)                  1.3929         estimate D2E/DX2                !
 ! R9    R(4,8)                  1.0874         estimate D2E/DX2                !
 ! R10   R(5,9)                  1.0854         estimate D2E/DX2                !
 ! R11   R(5,29)                 1.3931         estimate D2E/DX2                !
 ! R12   R(10,11)                2.0027         estimate D2E/DX2                !
 ! R13   R(10,20)                1.9806         estimate D2E/DX2                !
 ! R14   R(10,31)                1.6328         estimate D2E/DX2                !
 ! R15   R(10,32)                1.825          estimate D2E/DX2                !
 ! R16   R(11,12)                1.4072         estimate D2E/DX2                !
 ! R17   R(11,13)                1.4018         estimate D2E/DX2                !
 ! R18   R(12,14)                1.377          estimate D2E/DX2                !
 ! R19   R(12,15)                1.0862         estimate D2E/DX2                !
 ! R20   R(13,16)                1.3827         estimate D2E/DX2                !
 ! R21   R(13,17)                1.0847         estimate D2E/DX2                !
 ! R22   R(14,18)                1.0837         estimate D2E/DX2                !
 ! R23   R(14,48)                1.3501         estimate D2E/DX2                !
 ! R24   R(16,19)                1.084          estimate D2E/DX2                !
 ! R25   R(16,48)                1.3454         estimate D2E/DX2                !
 ! R26   R(20,21)                1.402          estimate D2E/DX2                !
 ! R27   R(20,22)                1.4067         estimate D2E/DX2                !
 ! R28   R(21,23)                1.3816         estimate D2E/DX2                !
 ! R29   R(21,24)                1.082          estimate D2E/DX2                !
 ! R30   R(22,25)                1.3756         estimate D2E/DX2                !
 ! R31   R(22,26)                1.0854         estimate D2E/DX2                !
 ! R32   R(23,27)                1.0838         estimate D2E/DX2                !
 ! R33   R(23,47)                1.3456         estimate D2E/DX2                !
 ! R34   R(25,28)                1.0835         estimate D2E/DX2                !
 ! R35   R(25,47)                1.3503         estimate D2E/DX2                !
 ! R36   R(29,30)                1.0854         estimate D2E/DX2                !
 ! R37   R(31,41)                1.4342         estimate D2E/DX2                !
 ! R38   R(32,33)                1.3982         estimate D2E/DX2                !
 ! R39   R(32,34)                1.4001         estimate D2E/DX2                !
 ! R40   R(33,35)                1.3934         estimate D2E/DX2                !
 ! R41   R(33,36)                1.0856         estimate D2E/DX2                !
 ! R42   R(34,37)                1.393          estimate D2E/DX2                !
 ! R43   R(34,38)                1.0877         estimate D2E/DX2                !
 ! R44   R(35,39)                1.0856         estimate D2E/DX2                !
 ! R45   R(35,45)                1.3939         estimate D2E/DX2                !
 ! R46   R(37,40)                1.0855         estimate D2E/DX2                !
 ! R47   R(37,45)                1.3936         estimate D2E/DX2                !
 ! R48   R(41,42)                1.0906         estimate D2E/DX2                !
 ! R49   R(41,43)                1.0917         estimate D2E/DX2                !
 ! R50   R(41,44)                1.0929         estimate D2E/DX2                !
 ! R51   R(45,46)                1.0854         estimate D2E/DX2                !
 ! R52   R(47,49)                1.016          estimate D2E/DX2                !
 ! R53   R(48,50)                1.0164         estimate D2E/DX2                !
 ! A1    A(2,1,6)              119.7711         estimate D2E/DX2                !
 ! A2    A(2,1,29)             120.0891         estimate D2E/DX2                !
 ! A3    A(6,1,29)             120.1361         estimate D2E/DX2                !
 ! A4    A(1,2,3)              120.168          estimate D2E/DX2                !
 ! A5    A(1,2,7)              118.902          estimate D2E/DX2                !
 ! A6    A(3,2,7)              120.9278         estimate D2E/DX2                !
 ! A7    A(2,3,4)              119.3963         estimate D2E/DX2                !
 ! A8    A(2,3,10)             122.2103         estimate D2E/DX2                !
 ! A9    A(4,3,10)             118.3238         estimate D2E/DX2                !
 ! A10   A(3,4,5)              120.2727         estimate D2E/DX2                !
 ! A11   A(3,4,8)              120.4906         estimate D2E/DX2                !
 ! A12   A(5,4,8)              119.2325         estimate D2E/DX2                !
 ! A13   A(4,5,9)              119.788          estimate D2E/DX2                !
 ! A14   A(4,5,29)             120.0047         estimate D2E/DX2                !
 ! A15   A(9,5,29)             120.2063         estimate D2E/DX2                !
 ! A16   A(3,10,11)             89.3981         estimate D2E/DX2                !
 ! A17   A(3,10,20)             91.1788         estimate D2E/DX2                !
 ! A18   A(3,10,31)            122.8071         estimate D2E/DX2                !
 ! A19   A(3,10,32)            119.836          estimate D2E/DX2                !
 ! A20   A(11,10,31)            91.0484         estimate D2E/DX2                !
 ! A21   A(11,10,32)            93.8835         estimate D2E/DX2                !
 ! A22   A(20,10,31)            85.5329         estimate D2E/DX2                !
 ! A23   A(20,10,32)            89.0354         estimate D2E/DX2                !
 ! A24   A(31,10,32)           117.1787         estimate D2E/DX2                !
 ! A25   A(10,11,12)           119.0188         estimate D2E/DX2                !
 ! A26   A(10,11,13)           124.1666         estimate D2E/DX2                !
 ! A27   A(12,11,13)           116.7996         estimate D2E/DX2                !
 ! A28   A(11,12,14)           121.1382         estimate D2E/DX2                !
 ! A29   A(11,12,15)           120.9175         estimate D2E/DX2                !
 ! A30   A(14,12,15)           117.9386         estimate D2E/DX2                !
 ! A31   A(11,13,16)           120.8054         estimate D2E/DX2                !
 ! A32   A(11,13,17)           121.3615         estimate D2E/DX2                !
 ! A33   A(16,13,17)           117.8327         estimate D2E/DX2                !
 ! A34   A(12,14,18)           124.0089         estimate D2E/DX2                !
 ! A35   A(12,14,48)           119.2684         estimate D2E/DX2                !
 ! A36   A(18,14,48)           116.7219         estimate D2E/DX2                !
 ! A37   A(13,16,19)           123.7061         estimate D2E/DX2                !
 ! A38   A(13,16,48)           119.5757         estimate D2E/DX2                !
 ! A39   A(19,16,48)           116.7182         estimate D2E/DX2                !
 ! A40   A(10,20,21)           125.3229         estimate D2E/DX2                !
 ! A41   A(10,20,22)           117.6931         estimate D2E/DX2                !
 ! A42   A(21,20,22)           116.8415         estimate D2E/DX2                !
 ! A43   A(20,21,23)           120.7426         estimate D2E/DX2                !
 ! A44   A(20,21,24)           120.7574         estimate D2E/DX2                !
 ! A45   A(23,21,24)           118.4992         estimate D2E/DX2                !
 ! A46   A(20,22,25)           121.107          estimate D2E/DX2                !
 ! A47   A(20,22,26)           121.1089         estimate D2E/DX2                !
 ! A48   A(25,22,26)           117.7835         estimate D2E/DX2                !
 ! A49   A(21,23,27)           123.6592         estimate D2E/DX2                !
 ! A50   A(21,23,47)           119.6595         estimate D2E/DX2                !
 ! A51   A(27,23,47)           116.6812         estimate D2E/DX2                !
 ! A52   A(22,25,28)           123.9381         estimate D2E/DX2                !
 ! A53   A(22,25,47)           119.3508         estimate D2E/DX2                !
 ! A54   A(28,25,47)           116.7109         estimate D2E/DX2                !
 ! A55   A(1,29,5)             120.0072         estimate D2E/DX2                !
 ! A56   A(1,29,30)            119.9656         estimate D2E/DX2                !
 ! A57   A(5,29,30)            120.0257         estimate D2E/DX2                !
 ! A58   A(10,31,41)           130.363          estimate D2E/DX2                !
 ! A59   A(10,32,33)           123.6064         estimate D2E/DX2                !
 ! A60   A(10,32,34)           116.6353         estimate D2E/DX2                !
 ! A61   A(33,32,34)           119.7577         estimate D2E/DX2                !
 ! A62   A(32,33,35)           119.8706         estimate D2E/DX2                !
 ! A63   A(32,33,36)           121.1051         estimate D2E/DX2                !
 ! A64   A(35,33,36)           119.0218         estimate D2E/DX2                !
 ! A65   A(32,34,37)           120.0774         estimate D2E/DX2                !
 ! A66   A(32,34,38)           120.5963         estimate D2E/DX2                !
 ! A67   A(37,34,38)           119.3252         estimate D2E/DX2                !
 ! A68   A(33,35,39)           119.6071         estimate D2E/DX2                !
 ! A69   A(33,35,45)           120.2906         estimate D2E/DX2                !
 ! A70   A(39,35,45)           120.1023         estimate D2E/DX2                !
 ! A71   A(34,37,40)           119.7417         estimate D2E/DX2                !
 ! A72   A(34,37,45)           120.0625         estimate D2E/DX2                !
 ! A73   A(40,37,45)           120.195          estimate D2E/DX2                !
 ! A74   A(31,41,42)           105.2032         estimate D2E/DX2                !
 ! A75   A(31,41,43)           110.9079         estimate D2E/DX2                !
 ! A76   A(31,41,44)           111.7086         estimate D2E/DX2                !
 ! A77   A(42,41,43)           109.2239         estimate D2E/DX2                !
 ! A78   A(42,41,44)           109.2683         estimate D2E/DX2                !
 ! A79   A(43,41,44)           110.3713         estimate D2E/DX2                !
 ! A80   A(35,45,37)           119.9347         estimate D2E/DX2                !
 ! A81   A(35,45,46)           120.02           estimate D2E/DX2                !
 ! A82   A(37,45,46)           120.0446         estimate D2E/DX2                !
 ! A83   A(23,47,25)           122.2978         estimate D2E/DX2                !
 ! A84   A(23,47,49)           118.8724         estimate D2E/DX2                !
 ! A85   A(25,47,49)           118.8296         estimate D2E/DX2                !
 ! A86   A(14,48,16)           122.4111         estimate D2E/DX2                !
 ! A87   A(14,48,50)           118.7752         estimate D2E/DX2                !
 ! A88   A(16,48,50)           118.8136         estimate D2E/DX2                !
 ! A89   L(11,10,20,3,-1)      180.5769         estimate D2E/DX2                !
 ! A90   L(11,10,20,3,-2)      176.3039         estimate D2E/DX2                !
 ! D1    D(6,1,2,3)            178.258          estimate D2E/DX2                !
 ! D2    D(6,1,2,7)             -2.2824         estimate D2E/DX2                !
 ! D3    D(29,1,2,3)            -2.4478         estimate D2E/DX2                !
 ! D4    D(29,1,2,7)           177.0118         estimate D2E/DX2                !
 ! D5    D(2,1,29,5)             0.4955         estimate D2E/DX2                !
 ! D6    D(2,1,29,30)         -179.0639         estimate D2E/DX2                !
 ! D7    D(6,1,29,5)           179.7871         estimate D2E/DX2                !
 ! D8    D(6,1,29,30)            0.2278         estimate D2E/DX2                !
 ! D9    D(1,2,3,4)              2.379          estimate D2E/DX2                !
 ! D10   D(1,2,3,10)           179.2936         estimate D2E/DX2                !
 ! D11   D(7,2,3,4)           -177.0695         estimate D2E/DX2                !
 ! D12   D(7,2,3,10)            -0.155          estimate D2E/DX2                !
 ! D13   D(2,3,4,5)             -0.3726         estimate D2E/DX2                !
 ! D14   D(2,3,4,8)            178.881          estimate D2E/DX2                !
 ! D15   D(10,3,4,5)          -177.4071         estimate D2E/DX2                !
 ! D16   D(10,3,4,8)             1.8465         estimate D2E/DX2                !
 ! D17   D(2,3,10,11)          -51.6291         estimate D2E/DX2                !
 ! D18   D(2,3,10,20)          132.0669         estimate D2E/DX2                !
 ! D19   D(2,3,10,31)         -142.4885         estimate D2E/DX2                !
 ! D20   D(2,3,10,32)           42.503          estimate D2E/DX2                !
 ! D21   D(4,3,10,11)          125.3171         estimate D2E/DX2                !
 ! D22   D(4,3,10,20)          -50.9868         estimate D2E/DX2                !
 ! D23   D(4,3,10,31)           34.4578         estimate D2E/DX2                !
 ! D24   D(4,3,10,32)         -140.5507         estimate D2E/DX2                !
 ! D25   D(3,4,5,9)            178.7968         estimate D2E/DX2                !
 ! D26   D(3,4,5,29)            -1.5674         estimate D2E/DX2                !
 ! D27   D(8,4,5,9)             -0.4661         estimate D2E/DX2                !
 ! D28   D(8,4,5,29)           179.1697         estimate D2E/DX2                !
 ! D29   D(4,5,29,1)             1.5108         estimate D2E/DX2                !
 ! D30   D(4,5,29,30)         -178.9301         estimate D2E/DX2                !
 ! D31   D(9,5,29,1)          -178.8549         estimate D2E/DX2                !
 ! D32   D(9,5,29,30)            0.7042         estimate D2E/DX2                !
 ! D33   D(3,10,11,12)         -49.1322         estimate D2E/DX2                !
 ! D34   D(3,10,11,13)         129.4072         estimate D2E/DX2                !
 ! D35   D(31,10,11,12)         73.6701         estimate D2E/DX2                !
 ! D36   D(31,10,11,13)       -107.7906         estimate D2E/DX2                !
 ! D37   D(32,10,11,12)       -168.9985         estimate D2E/DX2                !
 ! D38   D(32,10,11,13)          9.5409         estimate D2E/DX2                !
 ! D39   D(12,11,20,21)         79.6521         estimate D2E/DX2                !
 ! D40   D(12,11,20,22)       -103.7077         estimate D2E/DX2                !
 ! D41   D(13,11,20,21)       -100.0729         estimate D2E/DX2                !
 ! D42   D(13,11,20,22)         76.5673         estimate D2E/DX2                !
 ! D43   D(3,10,20,21)         130.1565         estimate D2E/DX2                !
 ! D44   D(3,10,20,22)         -54.3342         estimate D2E/DX2                !
 ! D45   D(31,10,20,21)          7.3386         estimate D2E/DX2                !
 ! D46   D(31,10,20,22)       -177.1521         estimate D2E/DX2                !
 ! D47   D(32,10,20,21)       -110.0188         estimate D2E/DX2                !
 ! D48   D(32,10,20,22)         65.4905         estimate D2E/DX2                !
 ! D49   D(3,10,31,41)         109.7438         estimate D2E/DX2                !
 ! D50   D(11,10,31,41)         19.7841         estimate D2E/DX2                !
 ! D51   D(20,10,31,41)       -161.7352         estimate D2E/DX2                !
 ! D52   D(32,10,31,41)        -75.1232         estimate D2E/DX2                !
 ! D53   D(3,10,32,33)          -8.8359         estimate D2E/DX2                !
 ! D54   D(3,10,32,34)         170.8869         estimate D2E/DX2                !
 ! D55   D(11,10,32,33)         82.6997         estimate D2E/DX2                !
 ! D56   D(11,10,32,34)        -97.5775         estimate D2E/DX2                !
 ! D57   D(20,10,32,33)        -99.6416         estimate D2E/DX2                !
 ! D58   D(20,10,32,34)         80.0813         estimate D2E/DX2                !
 ! D59   D(31,10,32,33)        175.8795         estimate D2E/DX2                !
 ! D60   D(31,10,32,34)         -4.3976         estimate D2E/DX2                !
 ! D61   D(10,11,12,14)        178.7424         estimate D2E/DX2                !
 ! D62   D(10,11,12,15)         -0.3666         estimate D2E/DX2                !
 ! D63   D(13,11,12,14)          0.0964         estimate D2E/DX2                !
 ! D64   D(13,11,12,15)       -179.0126         estimate D2E/DX2                !
 ! D65   D(10,11,13,16)       -178.2936         estimate D2E/DX2                !
 ! D66   D(10,11,13,17)          1.455          estimate D2E/DX2                !
 ! D67   D(12,11,13,16)          0.2754         estimate D2E/DX2                !
 ! D68   D(12,11,13,17)       -179.976          estimate D2E/DX2                !
 ! D69   D(11,12,14,18)        179.9632         estimate D2E/DX2                !
 ! D70   D(11,12,14,48)         -0.3719         estimate D2E/DX2                !
 ! D71   D(15,12,14,18)         -0.902          estimate D2E/DX2                !
 ! D72   D(15,12,14,48)        178.7628         estimate D2E/DX2                !
 ! D73   D(11,13,16,19)        179.6748         estimate D2E/DX2                !
 ! D74   D(11,13,16,48)         -0.3743         estimate D2E/DX2                !
 ! D75   D(17,13,16,19)         -0.0825         estimate D2E/DX2                !
 ! D76   D(17,13,16,48)        179.8684         estimate D2E/DX2                !
 ! D77   D(12,14,48,16)          0.2802         estimate D2E/DX2                !
 ! D78   D(12,14,48,50)       -179.629          estimate D2E/DX2                !
 ! D79   D(18,14,48,16)        179.9692         estimate D2E/DX2                !
 ! D80   D(18,14,48,50)          0.06           estimate D2E/DX2                !
 ! D81   D(13,16,48,14)          0.0905         estimate D2E/DX2                !
 ! D82   D(13,16,48,50)        179.9997         estimate D2E/DX2                !
 ! D83   D(19,16,48,14)       -179.9552         estimate D2E/DX2                !
 ! D84   D(19,16,48,50)         -0.046          estimate D2E/DX2                !
 ! D85   D(10,20,21,23)        175.3607         estimate D2E/DX2                !
 ! D86   D(10,20,21,24)         -4.9529         estimate D2E/DX2                !
 ! D87   D(22,20,21,23)         -0.183          estimate D2E/DX2                !
 ! D88   D(22,20,21,24)        179.5034         estimate D2E/DX2                !
 ! D89   D(10,20,22,25)       -175.5814         estimate D2E/DX2                !
 ! D90   D(10,20,22,26)          4.6856         estimate D2E/DX2                !
 ! D91   D(21,20,22,25)          0.3128         estimate D2E/DX2                !
 ! D92   D(21,20,22,26)       -179.4202         estimate D2E/DX2                !
 ! D93   D(20,21,23,27)        179.8421         estimate D2E/DX2                !
 ! D94   D(20,21,23,47)         -0.0686         estimate D2E/DX2                !
 ! D95   D(24,21,23,27)          0.1488         estimate D2E/DX2                !
 ! D96   D(24,21,23,47)       -179.762          estimate D2E/DX2                !
 ! D97   D(20,22,25,28)        179.9665         estimate D2E/DX2                !
 ! D98   D(20,22,25,47)         -0.1906         estimate D2E/DX2                !
 ! D99   D(26,22,25,28)         -0.2919         estimate D2E/DX2                !
 ! D100  D(26,22,25,47)        179.551          estimate D2E/DX2                !
 ! D101  D(21,23,47,25)          0.2072         estimate D2E/DX2                !
 ! D102  D(21,23,47,49)       -179.9413         estimate D2E/DX2                !
 ! D103  D(27,23,47,25)       -179.7096         estimate D2E/DX2                !
 ! D104  D(27,23,47,49)          0.1419         estimate D2E/DX2                !
 ! D105  D(22,25,47,23)         -0.0781         estimate D2E/DX2                !
 ! D106  D(22,25,47,49)       -179.9296         estimate D2E/DX2                !
 ! D107  D(28,25,47,23)        179.776          estimate D2E/DX2                !
 ! D108  D(28,25,47,49)         -0.0756         estimate D2E/DX2                !
 ! D109  D(10,31,41,42)        159.9095         estimate D2E/DX2                !
 ! D110  D(10,31,41,43)        -82.1168         estimate D2E/DX2                !
 ! D111  D(10,31,41,44)         41.4684         estimate D2E/DX2                !
 ! D112  D(10,32,33,35)        179.8956         estimate D2E/DX2                !
 ! D113  D(10,32,33,36)          0.4816         estimate D2E/DX2                !
 ! D114  D(34,32,33,35)          0.1811         estimate D2E/DX2                !
 ! D115  D(34,32,33,36)       -179.233          estimate D2E/DX2                !
 ! D116  D(10,32,34,37)        179.4892         estimate D2E/DX2                !
 ! D117  D(10,32,34,38)         -0.8848         estimate D2E/DX2                !
 ! D118  D(33,32,34,37)         -0.7767         estimate D2E/DX2                !
 ! D119  D(33,32,34,38)        178.8493         estimate D2E/DX2                !
 ! D120  D(32,33,35,39)       -179.5522         estimate D2E/DX2                !
 ! D121  D(32,33,35,45)          0.516          estimate D2E/DX2                !
 ! D122  D(36,33,35,39)         -0.1259         estimate D2E/DX2                !
 ! D123  D(36,33,35,45)        179.9423         estimate D2E/DX2                !
 ! D124  D(32,34,37,40)       -179.6519         estimate D2E/DX2                !
 ! D125  D(32,34,37,45)          0.6767         estimate D2E/DX2                !
 ! D126  D(38,34,37,40)          0.7174         estimate D2E/DX2                !
 ! D127  D(38,34,37,45)       -178.9541         estimate D2E/DX2                !
 ! D128  D(33,35,45,37)         -0.6187         estimate D2E/DX2                !
 ! D129  D(33,35,45,46)        179.6743         estimate D2E/DX2                !
 ! D130  D(39,35,45,37)        179.4498         estimate D2E/DX2                !
 ! D131  D(39,35,45,46)         -0.2572         estimate D2E/DX2                !
 ! D132  D(34,37,45,35)          0.0204         estimate D2E/DX2                !
 ! D133  D(34,37,45,46)        179.7273         estimate D2E/DX2                !
 ! D134  D(40,37,45,35)       -179.6495         estimate D2E/DX2                !
 ! D135  D(40,37,45,46)          0.0574         estimate D2E/DX2                !
 --------------------------------------------------------------------------------
 Trust Radius=3.00D-01 FncErr=1.00D-07 GrdErr=1.00D-06 EigMax=2.50D+02 EigMin=1.00D-04
 Number of steps in this run=    200 maximum allowed number of steps=    300.
 GradGradGradGradGradGradGradGradGradGradGradGradGradGradGradGradGradGrad

                          Input orientation:                          
 ---------------------------------------------------------------------
 Center     Atomic      Atomic             Coordinates (Angstroms)
 Number     Number       Type             X           Y           Z
 ---------------------------------------------------------------------
      1          6           0       -1.085657    2.977564   -2.188619
      2          6           0       -0.951511    1.734700   -1.577359
      3          6           0       -0.182793    1.601718   -0.414000
      4          6           0        0.405893    2.737067    0.153742
      5          6           0        0.235100    3.986669   -0.437465
      6          1           0       -1.659485    3.068108   -3.105599
      7          1           0       -1.458672    0.877904   -2.012604
      8          1           0        0.991110    2.657067    1.066704
      9          1           0        0.678945    4.865001    0.020378
     10         15           0        0.016259   -0.004911    0.447876
     11          6           0       -1.974605   -0.221725    0.458740
     12          6           0       -2.775116    0.845950    0.905356
     13          6           0       -2.643665   -1.372071    0.018082
     14          6           0       -4.148973    0.753617    0.907065
     15          1           0       -2.327048    1.774852    1.246335
     16          6           0       -4.024924   -1.433819    0.023892
     17          1           0       -2.099459   -2.238880   -0.341294
     18          1           0       -4.809280    1.545469    1.240784
     19          1           0       -4.589901   -2.296292   -0.310610
     20          6           0        1.977107    0.251244    0.559219
     21          6           0        2.748461    0.109265    1.721307
     22          6           0        2.671619    0.509324   -0.636510
     23          6           0        4.124948    0.217327    1.672879
     24          1           0        2.278941   -0.082391    2.677136
     25          6           0        4.043512    0.609069   -0.654227
     26          1           0        2.142609    0.640653   -1.575177
     27          1           0        4.766191    0.118495    2.541066
     28          1           0        4.624219    0.805699   -1.547537
     29          6           0       -0.497039    4.105220   -1.616720
     30          1           0       -0.615713    5.076227   -2.087052
     31          8           0        0.069418   -0.135579    2.074573
     32          6           0        0.300919   -1.525544   -0.520320
     33          6           0        0.204029   -1.585190   -1.913835
     34          6           0        0.638550   -2.676005    0.202677
     35          6           0        0.440008   -2.788858   -2.575024
     36          1           0       -0.044129   -0.703812   -2.496993
     37          6           0        0.861042   -3.879013   -0.463520
     38          1           0        0.735934   -2.640732    1.285427
     39          1           0        0.370761   -2.828616   -3.657688
     40          1           0        1.116971   -4.768961    0.102941
     41          6           0       -0.882384   -0.689214    2.993509
     42          1           0       -0.314293   -0.902724    3.899645
     43          1           0       -1.667697    0.033405    3.223498
     44          1           0       -1.318215   -1.616848    2.614116
     45          6           0        0.761819   -3.936633   -1.852431
     46          1           0        0.939570   -4.873077   -2.371542
     47          7           0        4.732846    0.460205    0.497236
     48          7           0       -4.734935   -0.379531    0.464955
     49          1           0        5.745715    0.536490    0.475228
     50          1           0       -5.749733   -0.437442    0.464158
 ---------------------------------------------------------------------
                    Distance matrix (angstroms):
                    1          2          3          4          5
     1  C    0.000000
     2  C    1.391526   0.000000
     3  C    2.420204   1.400720   0.000000
     4  C    2.787331   2.417436   1.399250   0.000000
     5  C    2.414380   2.789044   2.421400   1.392911   0.000000
     6  H    1.085509   2.148190   3.402297   3.872813   3.398845
     7  H    2.139788   1.086623   2.169633   3.409713   3.874835
     8  H    3.874636   3.408168   2.164323   1.087372   2.145208
     9  H    3.399398   3.874266   3.402983   2.149522   1.085397
    10  P    4.130434   2.839789   1.834042   2.785098   4.094439
    11  C    4.246668   3.003335   2.701335   3.809757   4.836999
    12  C    4.119555   3.206132   3.005333   3.776250   4.552877
    13  C    5.120180   3.880830   3.884071   5.118908   6.100074
    14  C    4.890103   4.166371   4.265568   5.024776   5.610747
    15  H    3.845319   3.141172   2.717447   3.096544   3.780465
    16  C    5.744110   4.695677   4.916117   6.086484   6.909584
    17  H    5.625984   4.316825   4.292911   5.593022   6.649577
    18  H    5.260900   4.781226   4.913843   5.458901   5.849936
    19  H    6.604559   5.575969   5.884537   7.106918   7.922899
    20  C    4.935986   3.916939   2.726922   2.968576   4.240444
    21  C    6.181838   5.216611   3.921633   3.853599   5.100151
    22  C    4.755878   3.938758   3.064393   3.274271   4.250667
    23  C    7.048438   6.215859   4.982794   4.742176   5.813124
    24  H    6.660286   5.642550   4.295518   4.221986   5.516817
    25  C    5.854272   5.202833   4.347955   4.291091   5.095014
    26  H    4.032266   3.281847   2.771186   3.224949   4.016068
    27  H    8.049119   7.229499   5.951874   5.618579   6.660721
    28  H    6.142529   5.652672   5.002591   4.941539   5.533100
    29  C    1.394686   2.414013   2.795140   2.412813   1.393099
    30  H    2.153033   3.396815   3.880559   3.396543   2.152245
    31  O    5.403764   4.228102   3.045457   3.472017   4.830188
    32  C    4.998379   3.648987   3.166236   4.316854   5.513229
    33  C    4.749476   3.531311   3.543377   4.795574   5.764221
    34  C    6.376051   5.015091   4.399296   5.418291   6.705504
    35  C    5.977339   4.836759   4.933058   6.163049   7.107666
    36  H    3.838281   2.759603   3.110234   4.366757   5.130325
    37  C    7.333366   6.003312   5.579467   6.660382   7.890592
    38  H    6.852185   5.494308   4.661598   5.505485   6.865977
    39  H    6.163687   5.186523   5.518677   6.745744   7.538989
    40  H    8.373259   7.028487   6.522436   7.539806   8.816507
    41  C    6.351459   5.174261   4.165203   4.632854   5.906288
    42  H    7.260757   6.112252   4.989695   5.272432   6.558850
    43  H    6.188526   5.143496   4.230359   4.586171   5.714156
    44  H    6.650486   5.379201   4.562657   5.289855   6.566912
    45  C    7.164657   5.930867   5.799544   6.977799   8.065871
    46  H    8.109721   6.918788   6.856722   8.035929   9.095715
    47  N    6.885194   6.183866   5.128051   4.901491   5.791315
    48  N    5.623946   4.791171   5.041816   6.019813   6.676774
    49  H    7.728038   7.106452   6.088731   5.784427   6.565335
    50  H    6.360275   5.648799   5.993343   6.932936   7.496927
                    6          7          8          9         10
     6  H    0.000000
     7  H    2.456004   0.000000
     8  H    4.960113   4.318448   0.000000
     9  H    4.297536   4.959775   2.463172   0.000000
    10  P    4.987860   3.001457   2.901622   4.933351   0.000000
    11  C    4.860742   2.753709   4.177622   5.753979   2.002665
    12  C    4.719150   3.201334   4.182181   5.372755   2.953816
    13  C    5.517353   3.254271   5.526767   7.066881   3.021431
    14  C    5.258887   3.972107   5.483526   6.403006   4.258565
    15  H    4.588843   3.489882   3.438131   4.481962   3.048964
    16  C    5.971295   4.009617   6.556173   7.861395   4.307285
    17  H    5.999923   3.594194   5.958555   7.636456   3.176424
    18  H    5.579488   4.717706   5.908509   6.529112   5.130127
    19  H    6.721316   4.772515   7.588178   8.896876   5.200234
    20  C    5.881362   4.337229   2.649097   4.823104   1.980641
    21  C    7.175219   5.677400   3.163555   5.458304   3.016553
    22  C    5.603770   4.369072   3.215252   4.834684   2.913978
    23  C    8.026236   6.722794   4.017551   6.017190   4.293175
    24  H    7.673126   6.073350   3.428794   5.839096   3.177315
    25  C    6.676846   5.673754   4.058701   5.467025   4.220233
    26  H    4.763470   3.635499   3.517302   4.746917   3.005139
    27  H    9.048445   7.749938   4.782189   6.751945   5.192160
    28  H    6.857914   6.101071   4.843687   5.873796   5.086458
    29  C    2.154911   3.390727   3.393007   2.154134   4.628089
    30  H    2.481822   4.282761   4.287236   2.482341   5.713424
    31  O    6.331421   4.479645   3.108728   5.440316   1.632802
    32  C    5.623921   3.331611   4.526505   6.424510   1.825037
    33  C    5.152297   2.973409   5.244030   6.750681   2.847844
    34  C    7.015732   4.683597   5.414102   7.543317   2.753563
    35  C    6.244472   4.167307   6.574496   8.085466   4.131325
    36  H    4.148151   2.176555   5.006712   6.153996   3.027270
    37  C    7.848320   5.514435   6.714078   8.759286   4.068534
    38  H    7.590125   5.298500   5.308449   7.611808   2.857792
    39  H    6.260835   4.448755   7.266184   8.533164   4.995462
    40  H    8.911963   6.557176   7.489364   9.644268   4.901706
    41  C    7.205586   5.277228   4.291871   6.490498   2.784973
    42  H    8.163975   6.279724   4.733048   7.021530   3.581905
    43  H    7.019043   5.307884   4.313307   6.253881   3.246730
    44  H    7.401379   5.258332   5.098413   7.261576   3.011936
    45  C    7.516618   5.304338   7.214624   8.999058   4.615811
    46  H    8.387869   6.241329   8.278119  10.030921   5.700935
    47  N    7.787392   6.693927   4.376195   6.005309   4.739722
    48  N    5.838961   4.295735   6.509272   7.550686   4.765971
    49  H    8.606300   7.629486   5.239557   6.679450   5.755044
    50  H    6.462366   5.126177   7.441640   8.345103   5.782215
                   11         12         13         14         15
    11  C    0.000000
    12  C    1.407201   0.000000
    13  C    1.401826   2.392520   0.000000
    14  C    2.424905   1.376957   2.752234   0.000000
    15  H    2.175050   1.086228   3.392930   2.115995   0.000000
    16  C    2.421172   2.745241   1.382651   2.362257   3.830499
    17  H    2.173605   3.395118   1.084744   3.835876   4.322315
    18  H    3.430736   2.177076   3.833657   1.083699   2.492814
    19  H    3.425712   3.826970   2.179463   3.313472   4.911089
    20  C    3.981184   4.801782   4.927425   6.156479   4.617278
    21  C    4.900100   5.631908   5.845541   6.975154   5.362888
    22  C    4.829224   5.670766   5.676300   6.997341   5.489384
    23  C    6.234697   6.971022   7.146934   8.326575   6.651021
    24  H    4.799307   5.435487   5.741593   6.719385   5.168334
    25  C    6.176297   6.998721   7.006800   8.341183   6.749461
    26  H    4.672469   5.511734   5.431202   6.764487   5.406031
    27  H    7.063297   7.750874   7.968262   9.085895   7.398235
    28  H    6.973179   7.795413   7.746998   9.110251   7.554144
    29  C    5.021274   4.708858   6.105841   5.562316   4.120271
    30  H    6.032905   5.613624   7.079882   6.335110   4.993918
    31  O    2.606984   3.228288   3.622000   4.466382   3.174709
    32  C    2.799377   4.137454   2.997333   5.199379   4.573827
    33  C    3.497799   4.767975   3.447765   5.690002   5.261455
    34  C    3.594112   4.954901   3.536560   5.931176   5.449231
    35  C    4.650188   5.971758   4.270893   6.762604   6.564056
    36  H    3.563075   4.629906   3.678282   5.528242   5.036665
    37  C    4.718815   6.117250   4.335859   6.959886   6.712206
    38  H    3.725859   4.962749   3.825879   5.960460   5.374083
    39  H    5.407550   6.649838   4.971878   7.355091   7.247036
    40  H    5.510153   6.878912   5.068377   7.673047   7.482654
    41  C    2.799383   3.209291   3.524425   4.135893   3.348327
    42  H    3.880750   4.251973   4.551131   5.138460   4.273248
    43  H    2.793416   2.694511   3.633534   3.470057   2.715981
    44  H    2.650068   3.332836   2.925086   4.067717   3.793705
    45  C    5.160433   6.556554   4.655440   7.330016   7.194756
    46  H    6.175596   7.565991   5.550398   8.264516   8.243469
    47  N    6.742137   7.528934   7.615756   8.896109   7.220218
    48  N    2.764844   2.353008   2.357592   1.350125   3.324130
    49  H    7.757480   8.537291   8.615874   9.906487   8.203514
    50  H    3.781290   3.269571   3.274168   2.043825   4.149797
                   16         17         18         19         20
    16  C    0.000000
    17  H    2.118702   0.000000
    18  H    3.312431   4.916035   0.000000
    19  H    1.083951   2.491293   4.148985   0.000000
    20  C    6.257027   4.861073   6.942233   7.097333   0.000000
    21  C    7.151299   5.768053   7.707985   7.985421   1.401996
    22  C    7.003972   5.513888   7.782138   7.791493   1.406670
    23  C    8.477373   6.988068   9.042737   9.284455   2.419630
    24  H    6.971713   5.738619   7.413225   7.810824   2.165176
    25  C    8.350623   6.778262   9.101639   9.115647   2.422916
    26  H    6.700666   5.273454   7.554938   7.453286   2.175931
    27  H    9.275211   7.810401   9.768144  10.074706   3.424081
    28  H    9.071522   7.478792   9.864730   9.800630   3.428271
    29  C    6.768939   6.666488   5.771748   7.709526   5.070428
    30  H    7.645881   7.665505   6.413014   8.561773   6.083250
    31  O    4.759659   3.868374   5.227124   5.662776   2.466821
    32  C    4.360906   2.510520   6.216650   4.955618   2.670578
    33  C    4.654218   2.864656   6.699695   5.104680   3.554194
    34  C    4.829387   2.825540   6.969746   5.267290   3.238463
    35  C    5.340984   3.426502   7.803961   5.538066   4.629079
    36  H    4.768071   3.350799   6.460411   5.289641   3.786550
    37  C    5.485363   3.386671   8.030081   5.678131   4.398934
    38  H    5.070885   3.293503   6.948070   5.570502   3.229770
    39  H    5.900978   4.177110   8.364238   6.007867   5.463350
    40  H    6.129315   4.116318   8.734252   6.233258   5.113754
    41  C    4.387325   3.873454   4.846273   5.219730   3.871294
    42  H    5.391874   4.791419   5.767850   6.160284   4.211959
    43  H    4.236360   4.249405   4.010865   5.143606   4.520004
    44  H    3.750871   3.119570   4.906508   4.440675   4.309468
    45  C    5.718179   3.654150   8.405865   5.805931   4.983101
    46  H    6.497138   4.505175   9.343228   6.439123   5.993706
    47  N    8.972732   7.393821   9.632384   9.755229   2.764345
    48  N    1.345428   3.324598   2.076791   2.072802   6.742275
    49  H    9.977535   8.361587  10.630712  10.745564   3.780321
    50  H    2.039992   4.149510   2.327990   2.323962   7.758053
                   21         22         23         24         25
    21  C    0.000000
    22  C    2.392750   0.000000
    23  C    1.381571   2.744213   0.000000
    24  H    1.082031   3.388890   2.122759   0.000000
    25  C    2.751386   1.375628   2.361253   3.832728   0.000000
    26  H    3.393558   1.085447   3.828673   4.315501   2.112482
    27  H    2.177917   3.825829   1.083840   2.499056   3.312525
    28  H    3.832601   2.174961   3.311576   4.912931   1.083461
    29  C    6.135418   4.892001   6.877495   6.609035   5.810858
    30  H    7.105771   5.810957   7.760145   7.595252   6.611873
    31  O    2.713304   3.812784   4.090626   2.290830   4.877937
    32  C    3.699723   3.126405   4.740350   4.027280   4.310627
    33  C    4.749691   3.479590   5.611345   5.257440   4.598153
    34  C    3.809946   3.870908   4.763175   3.942165   4.808301
    35  C    5.673318   4.428987   6.376567   6.188039   5.312307
    36  H    5.123837   3.508331   5.968043   5.705649   4.672071
    37  C    4.923635   4.750328   5.656614   5.127231   5.505212
    38  H    3.435512   4.166962   4.450173   3.295881   5.026285
    39  H    6.574054   5.056017   7.196293   7.163302   5.858972
    40  H    5.392398   5.551938   6.031227   5.471800   6.169372
    41  C    3.929262   5.219623   5.257305   3.234548   6.265458
    42  H    3.892267   5.611261   5.091155   2.982002   6.481800
    43  H    4.665274   5.827163   5.999415   3.985959   6.927196
    44  H    4.507153   5.568299   5.820494   3.911274   6.662199
    45  C    5.752186   4.989222   6.402642   6.137900   5.733115
    46  H    6.696808   5.914437   7.239902   7.087576   6.529744
    47  N    2.357815   2.352966   1.345610   3.326864   1.350263
    48  N    7.603851   7.540579   8.961744   7.360468   8.904551
    49  H    3.273953   3.269062   2.040372   4.153304   2.044121
    50  H    8.608055   8.545584   9.969907   8.335643   9.912296
                   26         27         28         29         30
    26  H    0.000000
    27  H    4.909103   0.000000
    28  H    2.487246   4.148383   0.000000
    29  C    4.355765   7.802740   6.092529   0.000000
    30  H    5.248302   8.658145   6.781252   1.085426   0.000000
    31  O    4.268645   4.726716   5.895074   5.650743   6.704584
    32  C    3.032648   5.658056   5.018047   5.791747   6.846769
    33  C    2.971053   6.600152   5.038711   5.741127   6.713900
    34  C    4.052552   5.505880   5.574143   7.112298   8.180045
    35  C    3.957283   7.303625   5.611078   7.023156   7.950612
    36  H    2.727481   7.014086   4.997356   4.909867   5.822681
    37  C    4.827585   6.344903   6.105991   8.180601   9.220249
    38  H    4.574853   5.043108   5.917967   7.446512   8.529479
    39  H    4.417253   8.150449   5.979372   7.279884   8.119518
    40  H    5.756035   6.568751   6.789823   9.182230  10.233572
    41  C    5.638441   5.723941   7.292362   6.662530   7.689182
    42  H    6.196132   5.357233   7.548470   7.452730   8.466360
    43  H    6.157472   6.470539   7.933941   6.432560   7.398558
    44  H    5.884198   6.327460   7.648569   7.163544   8.209247
    45  C    4.789050   7.195962   6.123790   8.143199   9.120542
    46  H    5.699361   7.980760   6.819393   9.123783  10.074150
    47  N    3.322166   2.072467   2.076599   6.716148   7.522851
    48  N    7.245932   9.738052   9.646173   6.511999   7.296987
    49  H    4.146973   2.324193   2.328477   7.488929   8.224491
    50  H    8.222545  10.733465  10.640075   7.249595   7.954079
                   31         32         33         34         35
    31  O    0.000000
    32  C    2.952806   0.000000
    33  C    4.245809   1.398152   0.000000
    34  C    3.206504   1.400100   2.420394   0.000000
    35  C    5.366188   2.416013   1.393439   2.787073   0.000000
    36  H    4.608145   2.168303   1.085579   3.412303   2.141937
    37  C    4.591501   2.419872   2.792258   1.393036   2.413329
    38  H    2.709758   2.166473   3.410626   1.087693   3.874609
    39  H    6.340510   3.397934   2.148239   3.872650   1.085605
    40  H    5.143241   3.402080   3.877789   2.149255   3.398615
    41  C    1.434183   3.800875   5.105398   3.748243   6.096375
    42  H    2.016590   4.505827   5.876306   4.209514   6.785854
    43  H    2.089534   4.507987   5.702227   4.667444   6.784574
    44  H    2.100188   3.529110   4.777088   3.281125   5.602868
    45  C    5.508974   2.792901   2.417475   2.414093   1.393948
    46  H    6.555074   3.878257   3.400105   3.397697   2.152890
    47  N    4.958882   4.961915   5.523322   5.165834   6.198681
    48  N    5.072691   5.257750   5.612987   5.849523   6.467331
    49  H    5.935481   5.906683   6.396830   6.039664   6.965092
    50  H    6.045418   6.226038   6.513022   6.774193   7.285512
                   36         37         38         39         40
    36  H    0.000000
    37  C    3.877660   0.000000
    38  H    4.320516   2.146580   0.000000
    39  H    2.456448   3.398002   4.960145   0.000000
    40  H    4.963189   1.085535   2.464309   4.296987   0.000000
    41  C    5.554142   5.016513   3.056946   7.098298   5.384899
    42  H    6.405430   5.410815   3.310254   7.828898   5.604575
    43  H    5.991951   5.941013   4.084675   7.726396   6.368279
    44  H    5.346061   4.397544   2.652033   6.607310   4.708710
    45  C    3.393544   1.393642   3.395023   2.153969   2.154619
    46  H    4.285577   2.152877   4.289319   2.481438   2.483018
    47  N    5.756721   5.894296   5.119801   6.863492   6.369788
    48  N    5.557154   6.665088   5.976338   7.004451   7.324135
    49  H    6.625311   6.651161   5.987409   7.569350   7.050651
    50  H    6.433761   7.510482   6.898757   7.756789   8.126756
                   41         42         43         44         45
    41  C    0.000000
    42  H    1.090594   0.000000
    43  H    1.091691   1.779105   0.000000
    44  H    1.092883   1.780567   1.793549   0.000000
    45  C    6.060715   6.591585   6.886857   5.445915   0.000000
    46  H    7.043295   7.527527   7.885168   6.368470   1.085357
    47  N    6.251668   6.237594   6.970051   6.738744   6.373553
    48  N    4.618619   5.622535   4.145844   4.221827   6.945326
    49  H    7.195539   7.107859   7.922421   7.688356   7.089855
    50  H    5.491092   6.446942   4.949613   5.064748   7.746692
                   46         47         48         49         50
    46  H    0.000000
    47  N    7.145819   0.000000
    48  N    7.774167   9.505003   0.000000
    49  H    7.776024   1.015976  10.520610   0.000000
    50  H    8.512510  10.520995   1.016449  11.536637   0.000000
 Stoichiometry    C23H23N2OP(2+)
 Framework group  C1[X(C23H23N2OP)]
 Deg. of freedom   144
 Full point group                 C1      NOp   1
 Largest Abelian subgroup         C1      NOp   1
 Largest concise Abelian subgroup C1      NOp   1
                         Standard orientation:                         
 ---------------------------------------------------------------------
 Center     Atomic      Atomic             Coordinates (Angstroms)
 Number     Number       Type             X           Y           Z
 ---------------------------------------------------------------------
      1          6           0       -1.085657    2.977564   -2.188619
      2          6           0       -0.951511    1.734700   -1.577359
      3          6           0       -0.182793    1.601718   -0.414000
      4          6           0        0.405893    2.737067    0.153742
      5          6           0        0.235100    3.986669   -0.437465
      6          1           0       -1.659485    3.068108   -3.105599
      7          1           0       -1.458672    0.877904   -2.012604
      8          1           0        0.991110    2.657067    1.066704
      9          1           0        0.678945    4.865001    0.020378
     10         15           0        0.016259   -0.004911    0.447876
     11          6           0       -1.974605   -0.221725    0.458740
     12          6           0       -2.775116    0.845950    0.905356
     13          6           0       -2.643665   -1.372071    0.018082
     14          6           0       -4.148973    0.753617    0.907065
     15          1           0       -2.327048    1.774852    1.246335
     16          6           0       -4.024924   -1.433819    0.023892
     17          1           0       -2.099459   -2.238880   -0.341294
     18          1           0       -4.809280    1.545469    1.240784
     19          1           0       -4.589901   -2.296292   -0.310610
     20          6           0        1.977107    0.251244    0.559219
     21          6           0        2.748461    0.109265    1.721307
     22          6           0        2.671619    0.509324   -0.636510
     23          6           0        4.124948    0.217327    1.672879
     24          1           0        2.278941   -0.082391    2.677136
     25          6           0        4.043512    0.609069   -0.654227
     26          1           0        2.142609    0.640653   -1.575177
     27          1           0        4.766191    0.118495    2.541066
     28          1           0        4.624219    0.805699   -1.547537
     29          6           0       -0.497039    4.105220   -1.616720
     30          1           0       -0.615713    5.076227   -2.087052
     31          8           0        0.069418   -0.135579    2.074573
     32          6           0        0.300919   -1.525544   -0.520320
     33          6           0        0.204029   -1.585190   -1.913835
     34          6           0        0.638550   -2.676005    0.202677
     35          6           0        0.440008   -2.788858   -2.575024
     36          1           0       -0.044129   -0.703812   -2.496993
     37          6           0        0.861042   -3.879013   -0.463520
     38          1           0        0.735934   -2.640732    1.285427
     39          1           0        0.370761   -2.828616   -3.657688
     40          1           0        1.116971   -4.768961    0.102941
     41          6           0       -0.882384   -0.689214    2.993509
     42          1           0       -0.314293   -0.902724    3.899645
     43          1           0       -1.667697    0.033405    3.223498
     44          1           0       -1.318215   -1.616848    2.614116
     45          6           0        0.761819   -3.936633   -1.852431
     46          1           0        0.939570   -4.873077   -2.371542
     47          7           0        4.732846    0.460205    0.497236
     48          7           0       -4.734935   -0.379531    0.464955
     49          1           0        5.745715    0.536490    0.475228
     50          1           0       -5.749733   -0.437442    0.464158
 ---------------------------------------------------------------------
 Rotational constants (GHZ):           0.2313988           0.1792110           0.1394602
 Standard basis: 6-31+G(d) (6D, 7F)
 There are   563 symmetry adapted cartesian basis functions of A   symmetry.
 There are   563 symmetry adapted basis functions of A   symmetry.
   563 basis functions,   980 primitive gaussians,   563 cartesian basis functions
    98 alpha electrons       98 beta electrons
       nuclear repulsion energy      2694.8637314868 Hartrees.
 NAtoms=   50 NActive=   50 NUniq=   50 SFac= 1.00D+00 NAtFMM=   60 NAOKFM=F Big=F
 Integral buffers will be    131072 words long.
 Raffenetti 2 integral format.
 Two-electron integral symmetry is turned on.
 Nuclear repulsion after empirical dispersion term =     2694.8166006721 Hartrees.
 ------------------------------------------------------------------------------
 Polarizable Continuum Model (PCM)
 =================================
 Model                : PCM.
 Atomic radii         : SMD-Coulomb.
 Polarization charges : Total charges.
 Charge compensation  : None.
 Solution method      : On-the-fly selection.
 Cavity type          : VdW (van der Waals Surface) (Alpha=1.000).
 Cavity algorithm     : GePol (No added spheres)
                        Default sphere list used, NSphG=   50.
                        Lebedev-Laikov grids with approx.  5.0 points / Ang**2.
                        Smoothing algorithm: York/Karplus (Gamma=1.0000).
                        Polarization charges: spherical gaussians, with
                                              point-specific exponents (IZeta= 3).
                        Self-potential: point-specific (ISelfS= 7).
                        Self-field    : sphere-specific E.n sum rule (ISelfD= 2).
 1st derivatives      : Analytical E(r).r(x)/FMM algorithm (CHGder, D1EAlg=3).
                        Cavity 1st derivative terms included.
 Solvent              : Ethanol, Eps=  24.852000 Eps(inf)=   1.852593
 ------------------------------------------------------------------------------
 ------------------------------------------------------------------------------
 Atomic radii for non-electrostatic terms: SMD-CDS.
 ------------------------------------------------------------------------------
 Nuclear repulsion after PCM non-electrostatic terms =     2694.8158168202 Hartrees.
 One-electron integrals computed using PRISM.
 NBasis=   563 RedAO= T EigKep=  1.20D-06  NBF=   563
 NBsUse=   561 1.00D-06 EigRej=  7.38D-07 NBFU=   561
 ExpMin= 3.48D-02 ExpMax= 1.94D+04 ExpMxC= 2.91D+03 IAcc=3 IRadAn=         5 AccDes= 0.00D+00
 Harris functional with IExCor= 4639 and IRadAn=       5 diagonalized for initial guess.
 HarFok:  IExCor= 4639 AccDes= 0.00D+00 IRadAn=         5 IDoV= 1 UseB2=F ITyADJ=14
 ICtDFT=  3500011 ScaDFX=  1.000000  1.000000  1.000000  1.000000
 FoFCou: FMM=F IPFlag=           0 FMFlag=      100000 FMFlg1=           0
         NFxFlg=           0 DoJE=T BraDBF=F KetDBF=T FulRan=T
         wScrn=  0.000000 ICntrl=       500 IOpCl=  0 I1Cent=   200000004 NGrid=           0
         NMat0=    1 NMatS0=      1 NMatT0=    0 NMatD0=    1 NMtDS0=    0 NMtDT0=    0
 Petite list used in FoFCou.
 Requested convergence on RMS density matrix=1.00D-08 within 128 cycles.
 Requested convergence on MAX density matrix=1.00D-06.
 Requested convergence on             energy=1.00D-06.
 No special actions if energy rises.
 Inv3:  Mode=1 IEnd=    40362672.
 Iteration    1 A*A^-1 deviation from unit magnitude is 9.33D-15 for   1915.
 Iteration    1 A*A^-1 deviation from orthogonality  is 3.67D-15 for   2291   1012.
 Iteration    1 A^-1*A deviation from unit magnitude is 9.33D-15 for   1915.
 Iteration    1 A^-1*A deviation from orthogonality  is 9.37D-14 for   2627   2599.
 Error on total polarization charges =  0.05508
 SCF Done:  E(RwB97XD) =  -1415.70555855     A.U. after   16 cycles
            NFock= 16  Conv=0.54D-08     -V/T= 2.0082
 SMD-CDS (non-electrostatic) energy       (kcal/mol) =      -0.49
 (included in total energy above)

 **********************************************************************

            Population analysis using the SCF density.

 **********************************************************************

 Orbital symmetries:
       Occupied  (A) (A) (A) (A) (A) (A) (A) (A) (A) (A) (A) (A)
                 (A) (A) (A) (A) (A) (A) (A) (A) (A) (A) (A) (A)
                 (A) (A) (A) (A) (A) (A) (A) (A) (A) (A) (A) (A)
                 (A) (A) (A) (A) (A) (A) (A) (A) (A) (A) (A) (A)
                 (A) (A) (A) (A) (A) (A) (A) (A) (A) (A) (A) (A)
                 (A) (A) (A) (A) (A) (A) (A) (A) (A) (A) (A) (A)
                 (A) (A) (A) (A) (A) (A) (A) (A) (A) (A) (A) (A)
                 (A) (A) (A) (A) (A) (A) (A) (A) (A) (A) (A) (A)
                 (A) (A)
       Virtual   (A) (A) (A) (A) (A) (A) (A) (A) (A) (A) (A) (A)
                 (A) (A) (A) (A) (A) (A) (A) (A) (A) (A) (A) (A)
                 (A) (A) (A) (A) (A) (A) (A) (A) (A) (A) (A) (A)
                 (A) (A) (A) (A) (A) (A) (A) (A) (A) (A) (A) (A)
                 (A) (A) (A) (A) (A) (A) (A) (A) (A) (A) (A) (A)
                 (A) (A) (A) (A) (A) (A) (A) (A) (A) (A) (A) (A)
                 (A) (A) (A) (A) (A) (A) (A) (A) (A) (A) (A) (A)
                 (A) (A) (A) (A) (A) (A) (A) (A) (A) (A) (A) (A)
                 (A) (A) (A) (A) (A) (A) (A) (A) (A) (A) (A) (A)
                 (A) (A) (A) (A) (A) (A) (A) (A) (A) (A) (A) (A)
                 (A) (A) (A) (A) (A) (A) (A) (A) (A) (A) (A) (A)
                 (A) (A) (A) (A) (A) (A) (A) (A) (A) (A) (A) (A)
                 (A) (A) (A) (A) (A) (A) (A) (A) (A) (A) (A) (A)
                 (A) (A) (A) (A) (A) (A) (A) (A) (A) (A) (A) (A)
                 (A) (A) (A) (A) (A) (A) (A) (A) (A) (A) (A) (A)
                 (A) (A) (A) (A) (A) (A) (A) (A) (A) (A) (A) (A)
                 (A) (A) (A) (A) (A) (A) (A) (A) (A) (A) (A) (A)
                 (A) (A) (A) (A) (A) (A) (A) (A) (A) (A) (A) (A)
                 (A) (A) (A) (A) (A) (A) (A) (A) (A) (A) (A) (A)
                 (A) (A) (A) (A) (A) (A) (A) (A) (A) (A) (A) (A)
                 (A) (A) (A) (A) (A) (A) (A) (A) (A) (A) (A) (A)
                 (A) (A) (A) (A) (A) (A) (A) (A) (A) (A) (A) (A)
                 (A) (A) (A) (A) (A) (A) (A) (A) (A) (A) (A) (A)
                 (A) (A) (A) (A) (A) (A) (A) (A) (A) (A) (A) (A)
                 (A) (A) (A) (A) (A) (A) (A) (A) (A) (A) (A) (A)
                 (A) (A) (A) (A) (A) (A) (A) (A) (A) (A) (A) (A)
                 (A) (A) (A) (A) (A) (A) (A) (A) (A) (A) (A) (A)
                 (A) (A) (A) (A) (A) (A) (A) (A) (A) (A) (A) (A)
                 (A) (A) (A) (A) (A) (A) (A) (A) (A) (A) (A) (A)
                 (A) (A) (A) (A) (A) (A) (A) (A) (A) (A) (A) (A)
                 (A) (A) (A) (A) (A) (A) (A) (A) (A) (A) (A) (A)
                 (A) (A) (A) (A) (A) (A) (A) (A) (A) (A) (A) (A)
                 (A) (A) (A) (A) (A) (A) (A) (A) (A) (A) (A) (A)
                 (A) (A) (A) (A) (A) (A) (A) (A) (A) (A) (A) (A)
                 (A) (A) (A) (A) (A) (A) (A) (A) (A) (A) (A) (A)
                 (A) (A) (A) (A) (A) (A) (A) (A) (A) (A) (A) (A)
                 (A) (A) (A) (A) (A) (A) (A) (A) (A) (A) (A) (A)
                 (A) (A) (A) (A) (A) (A) (A) (A) (A) (A) (A) (A)
                 (A) (A) (A) (A) (A) (A) (A)
 The electronic state is 1-A.
 Alpha  occ. eigenvalues --  -77.38076 -19.31670 -14.57405 -14.57121 -10.39269
 Alpha  occ. eigenvalues --  -10.39068 -10.38989 -10.38857 -10.35326 -10.34970
 Alpha  occ. eigenvalues --  -10.34833 -10.34282 -10.34206 -10.34017 -10.33775
 Alpha  occ. eigenvalues --  -10.33287 -10.33287 -10.32596 -10.32557 -10.32451
 Alpha  occ. eigenvalues --  -10.32417 -10.32028 -10.31884 -10.31855 -10.31848
 Alpha  occ. eigenvalues --  -10.31835 -10.31799  -6.78875  -4.93907  -4.93685
 Alpha  occ. eigenvalues --   -4.93610  -1.16278  -1.13871  -1.13635  -0.98483
 Alpha  occ. eigenvalues --   -0.97633  -0.95044  -0.94926  -0.91592  -0.91360
 Alpha  occ. eigenvalues --   -0.89129  -0.86649  -0.86514  -0.86199  -0.83127
 Alpha  occ. eigenvalues --   -0.78574  -0.77770  -0.77740  -0.77130  -0.73857
 Alpha  occ. eigenvalues --   -0.71895  -0.71641  -0.70908  -0.70374  -0.70168
 Alpha  occ. eigenvalues --   -0.67920  -0.63157  -0.62740  -0.61768  -0.61465
 Alpha  occ. eigenvalues --   -0.61102  -0.58961  -0.58458  -0.58431  -0.56716
 Alpha  occ. eigenvalues --   -0.56171  -0.55931  -0.55603  -0.55429  -0.55356
 Alpha  occ. eigenvalues --   -0.55218  -0.55120  -0.54685  -0.53669  -0.53257
 Alpha  occ. eigenvalues --   -0.52288  -0.51714  -0.51092  -0.48476  -0.48203
 Alpha  occ. eigenvalues --   -0.47678  -0.47409  -0.46962  -0.45774  -0.44462
 Alpha  occ. eigenvalues --   -0.44144  -0.43463  -0.41586  -0.40951  -0.40831
 Alpha  occ. eigenvalues --   -0.39850  -0.38148  -0.37940  -0.35462  -0.34682
 Alpha  occ. eigenvalues --   -0.34577  -0.34144  -0.33987
 Alpha virt. eigenvalues --   -0.02134  -0.01973   0.01660   0.01952   0.02195
 Alpha virt. eigenvalues --    0.03703   0.04516   0.04810   0.04992   0.05394
 Alpha virt. eigenvalues --    0.06166   0.06719   0.06953   0.08237   0.08408
 Alpha virt. eigenvalues --    0.08551   0.08712   0.08825   0.09503   0.09818
 Alpha virt. eigenvalues --    0.09951   0.10355   0.10481   0.10795   0.11122
 Alpha virt. eigenvalues --    0.11608   0.11772   0.12272   0.12662   0.12806
 Alpha virt. eigenvalues --    0.13439   0.13558   0.13840   0.14361   0.14643
 Alpha virt. eigenvalues --    0.14926   0.15499   0.15646   0.15992   0.16335
 Alpha virt. eigenvalues --    0.16614   0.16727   0.17212   0.17429   0.17502
 Alpha virt. eigenvalues --    0.17723   0.18149   0.18155   0.18783   0.18893
 Alpha virt. eigenvalues --    0.19204   0.19397   0.19589   0.19807   0.20060
 Alpha virt. eigenvalues --    0.20682   0.20906   0.20988   0.21111   0.21396
 Alpha virt. eigenvalues --    0.21850   0.22108   0.22544   0.22598   0.22667
 Alpha virt. eigenvalues --    0.22900   0.23234   0.23610   0.23726   0.24078
 Alpha virt. eigenvalues --    0.24343   0.24382   0.24751   0.24957   0.25451
 Alpha virt. eigenvalues --    0.25627   0.25742   0.25772   0.26223   0.26339
 Alpha virt. eigenvalues --    0.26547   0.26976   0.27046   0.27126   0.27451
 Alpha virt. eigenvalues --    0.27638   0.27933   0.28206   0.28497   0.28786
 Alpha virt. eigenvalues --    0.29179   0.29369   0.29863   0.30012   0.30386
 Alpha virt. eigenvalues --    0.30630   0.30847   0.31184   0.31414   0.31484
 Alpha virt. eigenvalues --    0.31603   0.31925   0.32126   0.32479   0.32815
 Alpha virt. eigenvalues --    0.33257   0.33399   0.33734   0.33942   0.34329
 Alpha virt. eigenvalues --    0.34620   0.34680   0.35057   0.35209   0.35329
 Alpha virt. eigenvalues --    0.35636   0.35823   0.36061   0.36614   0.36711
 Alpha virt. eigenvalues --    0.36791   0.37232   0.37404   0.37598   0.38037
 Alpha virt. eigenvalues --    0.38261   0.38651   0.38823   0.39088   0.39158
 Alpha virt. eigenvalues --    0.39414   0.39877   0.40058   0.40306   0.40814
 Alpha virt. eigenvalues --    0.41184   0.41404   0.41888   0.42070   0.42588
 Alpha virt. eigenvalues --    0.43575   0.44013   0.44582   0.44738   0.45192
 Alpha virt. eigenvalues --    0.45480   0.46169   0.46740   0.47402   0.47995
 Alpha virt. eigenvalues --    0.48202   0.48718   0.49372   0.49650   0.50550
 Alpha virt. eigenvalues --    0.52231   0.52498   0.53555   0.53723   0.55661
 Alpha virt. eigenvalues --    0.56980   0.57910   0.60499   0.62095   0.64187
 Alpha virt. eigenvalues --    0.65161   0.65794   0.65936   0.66512   0.68606
 Alpha virt. eigenvalues --    0.70929   0.72532   0.73401   0.73561   0.75604
 Alpha virt. eigenvalues --    0.76512   0.77162   0.77494   0.78009   0.78500
 Alpha virt. eigenvalues --    0.79010   0.79150   0.79775   0.80221   0.80788
 Alpha virt. eigenvalues --    0.81804   0.82025   0.82707   0.82774   0.83300
 Alpha virt. eigenvalues --    0.83886   0.83960   0.84514   0.84941   0.85457
 Alpha virt. eigenvalues --    0.86158   0.86583   0.87160   0.87503   0.88247
 Alpha virt. eigenvalues --    0.88960   0.89466   0.90371   0.90749   0.92047
 Alpha virt. eigenvalues --    0.92502   0.93189   0.93323   0.95055   0.95314
 Alpha virt. eigenvalues --    0.96125   0.96378   0.96992   0.97773   0.98287
 Alpha virt. eigenvalues --    0.98566   0.99035   0.99369   1.00191   1.00886
 Alpha virt. eigenvalues --    1.01223   1.01312   1.01612   1.01686   1.01881
 Alpha virt. eigenvalues --    1.02339   1.02707   1.03369   1.03956   1.04456
 Alpha virt. eigenvalues --    1.04694   1.05129   1.05534   1.06355   1.07147
 Alpha virt. eigenvalues --    1.07699   1.08589   1.09583   1.10719   1.11212
 Alpha virt. eigenvalues --    1.11633   1.12644   1.13068   1.13507   1.14288
 Alpha virt. eigenvalues --    1.15270   1.15798   1.16419   1.16680   1.17332
 Alpha virt. eigenvalues --    1.17486   1.18645   1.18866   1.19796   1.20837
 Alpha virt. eigenvalues --    1.21795   1.22322   1.22685   1.23350   1.23981
 Alpha virt. eigenvalues --    1.24578   1.26257   1.26408   1.27828   1.28017
 Alpha virt. eigenvalues --    1.28550   1.29447   1.29695   1.30052   1.30838
 Alpha virt. eigenvalues --    1.31195   1.31779   1.32818   1.33916   1.34782
 Alpha virt. eigenvalues --    1.35178   1.35700   1.36864   1.37550   1.38324
 Alpha virt. eigenvalues --    1.39658   1.40608   1.41781   1.44597   1.44969
 Alpha virt. eigenvalues --    1.46478   1.47014   1.48551   1.48883   1.49781
 Alpha virt. eigenvalues --    1.50330   1.50553   1.51533   1.51631   1.52135
 Alpha virt. eigenvalues --    1.52407   1.53134   1.53814   1.54057   1.54498
 Alpha virt. eigenvalues --    1.54834   1.55119   1.55780   1.56608   1.56763
 Alpha virt. eigenvalues --    1.57506   1.58038   1.58340   1.59124   1.59850
 Alpha virt. eigenvalues --    1.60555   1.60993   1.61623   1.63904   1.64598
 Alpha virt. eigenvalues --    1.66908   1.67324   1.68037   1.69267   1.71233
 Alpha virt. eigenvalues --    1.72824   1.74209   1.77260   1.79732   1.80433
 Alpha virt. eigenvalues --    1.81383   1.85441   1.86792   1.88005   1.89256
 Alpha virt. eigenvalues --    1.90340   1.91596   1.94323   1.96692   1.97907
 Alpha virt. eigenvalues --    1.99072   1.99364   1.99865   2.00688   2.01510
 Alpha virt. eigenvalues --    2.04785   2.05661   2.07006   2.07162   2.07866
 Alpha virt. eigenvalues --    2.09162   2.10083   2.11527   2.11943   2.12594
 Alpha virt. eigenvalues --    2.13720   2.15470   2.16189   2.19685   2.20049
 Alpha virt. eigenvalues --    2.20660   2.21326   2.21466   2.22101   2.22827
 Alpha virt. eigenvalues --    2.22873   2.23068   2.23677   2.24351   2.24827
 Alpha virt. eigenvalues --    2.25033   2.25235   2.26100   2.26224   2.27022
 Alpha virt. eigenvalues --    2.27291   2.27739   2.28667   2.29828   2.30424
 Alpha virt. eigenvalues --    2.31726   2.32163   2.32518   2.34385   2.35956
 Alpha virt. eigenvalues --    2.36697   2.37056   2.37196   2.37318   2.38396
 Alpha virt. eigenvalues --    2.39352   2.40065   2.40581   2.41529   2.42500
 Alpha virt. eigenvalues --    2.43729   2.45464   2.46279   2.49522   2.65520
 Alpha virt. eigenvalues --    2.65828   2.67311   2.69760   2.70978   2.71160
 Alpha virt. eigenvalues --    2.71660   2.71831   2.71879   2.72380   2.73210
 Alpha virt. eigenvalues --    2.74200   2.75178   2.76564   2.76984   2.77277
 Alpha virt. eigenvalues --    2.77751   2.78110   2.79696   2.80802   2.81706
 Alpha virt. eigenvalues --    2.84597   2.86358   2.87568   2.88497   2.88840
 Alpha virt. eigenvalues --    2.90028   2.91096   2.92757   2.92965   2.94986
 Alpha virt. eigenvalues --    2.96634   2.97459   3.02102   3.13440   3.13673
 Alpha virt. eigenvalues --    3.14593   3.17320   3.43482   3.47184   3.48028
 Alpha virt. eigenvalues --    3.48879   3.75127   4.27663   4.28313   4.37630
 Alpha virt. eigenvalues --    4.38884   4.40530   4.42410   4.43333   4.44056
 Alpha virt. eigenvalues --    4.44843   4.45579   4.47577   4.48587   4.51243
 Alpha virt. eigenvalues --    4.51542   4.52705   4.55787   4.58430   4.59770
 Alpha virt. eigenvalues --    4.61774   4.64494   4.70083   4.75570   4.79139
 Alpha virt. eigenvalues --    4.81322   4.84981   4.98924
          Condensed to atoms (all electrons):
               1          2          3          4          5          6
     1  C   12.717680  -6.231398  -1.477670   0.926965   0.728168   0.354603
     2  C   -6.231398  24.294708  -1.422421  -9.837282  -1.984637  -0.097289
     3  C   -1.477670  -1.422421  22.325700  -6.849754  -2.290899   0.048843
     4  C    0.926965  -9.837282  -6.849754  23.536713  -2.298850   0.007671
     5  C    0.728168  -1.984637  -2.290899  -2.298850  12.411346   0.001299
     6  H    0.354603  -0.097289   0.048843   0.007671   0.001299   0.438410
     7  H   -0.089382   0.238526   0.062164   0.031657  -0.011846  -0.003260
     8  H    0.012789   0.017538  -0.015207   0.277313  -0.073073   0.000013
     9  H   -0.002230  -0.000108   0.040009  -0.034004   0.309505  -0.000108
    10  P   -0.903604   1.475843   2.155647  -3.741719  -0.768114   0.006146
    11  C    0.296120  -0.382727  -2.124630   0.962490  -0.130850  -0.001281
    12  C   -1.535219   3.227493   1.881526  -2.273418   0.090064  -0.000663
    13  C    1.566925  -2.589482  -1.669133   1.749352  -0.084243   0.002296
    14  C   -0.205627   0.035433   0.199614   0.124299   0.101043  -0.001170
    15  H   -0.017714   0.036321   0.092205  -0.072423  -0.022017  -0.000006
    16  C   -0.102723   0.404530  -0.113546  -0.193835  -0.048220  -0.000334
    17  H    0.002860   0.001975  -0.001930  -0.001746   0.000362  -0.000000
    18  H    0.001482  -0.000807  -0.001037   0.001143   0.000238  -0.000000
    19  H   -0.000384   0.000173  -0.000632  -0.000248   0.000010  -0.000000
    20  C   -0.279065  -0.930317  -3.537386   2.510584   0.298400   0.000033
    21  C   -0.120105   1.509465   1.808989  -2.679614  -0.015879  -0.000151
    22  C    0.281970  -1.806557  -0.639408   2.494864   0.005464   0.000392
    23  C    0.001505  -0.099304  -0.364319   0.123156   0.143233   0.000008
    24  H    0.000061   0.003697   0.022670  -0.017685   0.002192  -0.000000
    25  C    0.235960  -0.213655  -0.625262   0.563879   0.043086   0.000064
    26  H   -0.008845  -0.001413   0.108462  -0.055428  -0.018293  -0.000004
    27  H    0.000022  -0.000233  -0.000250   0.000234  -0.000088  -0.000000
    28  H    0.000328   0.004033   0.004119  -0.007784  -0.000184  -0.000000
    29  C    0.250924   0.455216  -1.169150   0.253405   0.289059  -0.007608
    30  H    0.048292  -0.026161   0.003086  -0.047057   0.040599  -0.002877
    31  O    0.025420   0.506673   0.620456  -0.741446  -0.169876   0.000003
    32  C    0.570930  -3.967208   0.338926   2.400020   0.390716   0.003830
    33  C   -0.128959   6.021260  -0.582250  -4.214346  -0.685646  -0.004172
    34  C   -0.121357  -3.266976   0.093176   2.885853   0.389239   0.000311
    35  C   -0.149670   0.755050  -0.727540  -0.328260  -0.028604  -0.000935
    36  H    0.029396  -0.033796   0.013421  -0.002179  -0.002012  -0.000008
    37  C    0.012893  -0.303061  -0.120567   0.239244   0.030614   0.000023
    38  H   -0.000043   0.003352   0.007079  -0.003968  -0.000276  -0.000000
    39  H   -0.000336  -0.001528   0.001252   0.000519   0.000013  -0.000000
    40  H    0.000023   0.000172  -0.000010  -0.000048  -0.000000  -0.000000
    41  C    0.003507   0.032648  -0.076727  -0.029652   0.007848   0.000002
    42  H    0.000122   0.002250   0.001095  -0.005841  -0.000601   0.000000
    43  H    0.000195   0.002599   0.006643  -0.003157   0.003749  -0.000000
    44  H    0.000119  -0.003368  -0.001028   0.005860  -0.000451   0.000000
    45  C   -0.005918   0.136471  -0.027395  -0.045417  -0.002827  -0.000060
    46  H   -0.000027   0.000116  -0.000161  -0.000037  -0.000003   0.000000
    47  N   -0.002641   0.003782  -0.011301   0.013457  -0.002216  -0.000000
    48  N    0.023359  -0.018109  -0.054789   0.018563   0.006082  -0.000012
    49  H   -0.000026  -0.000102  -0.000986   0.001289   0.000111   0.000000
    50  H    0.000078  -0.000158   0.000395   0.000099  -0.000005  -0.000000
               7          8          9         10         11         12
     1  C   -0.089382   0.012789  -0.002230  -0.903604   0.296120  -1.535219
     2  C    0.238526   0.017538  -0.000108   1.475843  -0.382727   3.227493
     3  C    0.062164  -0.015207   0.040009   2.155647  -2.124630   1.881526
     4  C    0.031657   0.277313  -0.034004  -3.741719   0.962490  -2.273418
     5  C   -0.011846  -0.073073   0.309505  -0.768114  -0.130850   0.090064
     6  H   -0.003260   0.000013  -0.000108   0.006146  -0.001281  -0.000663
     7  H    0.449515  -0.000125   0.000013   0.035118   0.059902   0.042684
     8  H   -0.000125   0.441165  -0.003048   0.059488  -0.016178   0.018693
     9  H    0.000013  -0.003048   0.437968   0.007306  -0.004167   0.003879
    10  P    0.035118   0.059488   0.007306  31.439875  -1.455134  -0.044308
    11  C    0.059902  -0.016178  -0.004167  -1.455134  29.449848  -8.354046
    12  C    0.042684   0.018693   0.003879  -0.044308  -8.354046  35.739996
    13  C   -0.076259  -0.004993  -0.000563  -1.435515  -9.974963 -23.039576
    14  C   -0.002654   0.000087   0.000171  -0.905612  -0.667454   0.511290
    15  H   -0.000046   0.000005  -0.000005   0.039287  -0.029838   0.266852
    16  C    0.001109  -0.000562   0.000018  -0.775866   1.018812  -0.027390
    17  H   -0.000067   0.000000  -0.000000   0.058025  -0.151859  -0.052897
    18  H   -0.000005   0.000000  -0.000000   0.003213   0.103793  -0.121133
[...]
 00068,0.00000231,0.00000259,0.00000337,0.00003001,0.00006462,-0.000146
 55,-0.00000181,-0.00000527,0.00000950,-0.00002505,-0.00000856,0.000026
 52,-0.00001919,-0.00002493,0.00002451,-0.00005840,0.00007920,-0.000117
 08,-0.00000271,0.00000032,-0.00000288,0.04754701,0.15377667,0.00011267
 ,0.00046624,-0.00010353,0.00007644,-0.00029601,0.00062454,-0.00060477,
 0.00036796,-0.00014011,-0.00078257,0.00045532,-0.00003391,0.00006199,-
 0.00034699,0.00051143,0.00001164,-0.00000272,-0.00002536,-0.00001091,-
 0.00000944,-0.00000327,-0.00003798,0.00015908,-0.00018537,-0.00000197,
 0.00002976,0.00001129,-0.00058076,-0.00003709,-0.00244898,-0.00000622,
 -0.00002196,0.00010034,-0.00000227,-0.00000235,-0.00000213,-0.00001781
 ,-0.00003310,-0.00002067,-0.00000606,0.00000849,0.00000099,-0.00000646
 ,-0.00000117,-0.00000238,-0.00001174,0.00001876,-0.00000622,-0.0000010
 8,0.00001679,0.00001489,-0.00000132,-0.00000205,0.00000225,-0.00000039
 ,-0.00000110,0.00000137,-0.00105452,0.01430317,-0.08281520,0.09569427,
 0.00178547,0.02845993,-0.09088094,-0.00977055,0.03489767,0.04263820,0.
 05174505,-0.31923075,-0.00073371,0.00116038,0.00240423,-0.05037390,0.0
 4311283,-0.30343133,0.00085691,0.00137522,0.00249203,0.02132971,0.0066
 6761,-0.02509132,-0.02356292,0.00373764,-0.02464017,-0.00021032,-0.000
 18129,-0.00039747,0.00000228,0.00001172,-0.00001645,0.00091379,-0.0000
 9216,0.00012853,-0.00108564,-0.00099966,0.00032410,-0.00040099,-0.0002
 5378,0.00018710,-0.00025982,0.00068088,0.00004440,-0.00002965,0.000574
 67,0.00016575,0.00006359,0.00002632,-0.00000097,0.00024224,-0.00031171
 ,-0.00054459,-0.00012858,-0.00006405,0.00006604,-0.00003418,-0.0000092
 0,-0.00002403,0.00002490,-0.00001780,-0.00000468,-0.00008393,-0.000031
 63,0.00041586,-0.00000999,0.00000950,-0.00001076,0.00005338,0.00001573
 ,-0.00005357,0.00007044,0.00006392,-0.00006812,0.00015466,-0.00039291,
 0.00043668,-0.00002192,-0.00002109,0.00000390,0.00128028,-0.12336728,0
 .75963812,-0.00013065,0.00020653,-0.00005602,-0.00018638,-0.00033840,0
 .00021813,-0.00172642,-0.00066533,0.00005356,0.00018958,0.00028431,0.0
 0064461,0.00013623,-0.00036411,0.00009920,0.00001577,-0.00004280,0.000
 07921,-0.00019235,-0.00013702,-0.00024697,-0.00006671,0.00004742,-0.00
 001846,0.00002984,-0.00010562,-0.00000117,0.00957733,0.00085266,0.0005
 2105,0.00343942,0.00435469,0.00283222,-0.03399997,-0.03648414,-0.01615
 639,-0.04449467,0.03014434,0.01524569,-0.19976458,-0.10559238,-0.04688
 995,-0.00673267,0.00071252,0.00084175,-0.21714703,0.11642838,0.0597566
 6,-0.00644870,-0.00193260,-0.00050831,0.01431534,0.01703600,0.00786785
 ,0.01394248,-0.01379199,-0.00679492,-0.00015901,-0.00001531,-0.0002986
 5,-0.00042266,-0.00001163,0.00004849,-0.00028817,-0.00000523,-0.000018
 65,0.00010301,0.00004335,-0.00012204,0.00005370,-0.00001487,0.00003410
 ,0.00014278,-0.00000423,0.00012128,0.00004855,0.00000277,-0.00001957,-
 0.00003981,-0.00000538,0.00000871,-0.00003189,-0.00000401,-0.00000718,
 -0.00011508,-0.00031498,-0.00014833,0.00000069,-0.00005672,0.00000629,
 -0.00202699,0.00023613,-0.00284129,-0.00120167,-0.00006779,0.00017801,
 -0.00021560,0.00024228,-0.00035226,-0.00008806,-0.00021447,0.00043154,
 0.00009298,-0.00003803,0.00004089,0.00002530,-0.00004937,-0.00002883,0
 .00005523,0.00005120,-0.00002662,-0.00000400,-0.00005830,-0.00002124,-
 0.00000763,0.00004795,0.00005799,-0.00000509,0.00007488,0.00000919,-0.
 00085050,-0.00010166,0.00082137,-0.00021096,-0.00011647,-0.00018895,0.
 00018306,0.00007133,0.00011984,0.00005892,-0.00041118,-0.00010480,0.00
 000289,0.00014667,0.00004230,-0.00002330,0.00002977,0.00001767,-0.0002
 2935,-0.00002238,-0.00000265,0.92100799,-0.00002380,0.00065297,0.00005
 070,-0.00052458,-0.00042585,0.00027229,-0.00094057,-0.00065632,0.00013
 896,-0.00011719,0.00074606,0.00023135,0.00025784,-0.00035727,0.0003043
 5,0.00001959,-0.00000937,0.00002310,0.00012411,-0.00005654,-0.00002940
 ,-0.00001900,0.00000758,-0.00000868,0.00002213,-0.00002819,-0.00002170
 ,0.00031241,-0.00193834,-0.00054726,0.00541803,-0.07180895,-0.02886185
 ,-0.09011466,0.02326718,0.00864628,0.08442096,0.03403534,0.00845286,-0
 .03666097,-0.27655331,-0.10041405,0.00004781,0.00332135,-0.00232616,0.
 04671052,-0.27057662,-0.09804807,-0.00122425,0.00325622,-0.00250359,-0
 .01900491,-0.02082736,-0.01045985,0.02223369,-0.02027567,-0.01148973,-
 0.00001701,0.00003987,-0.00001045,-0.00005471,-0.00000339,0.00001110,-
 0.00005768,0.00001880,0.00001254,0.00001481,-0.00000157,-0.00001559,0.
 00000917,0.00000308,0.00000578,0.00001082,0.00000432,0.00001598,-0.000
 00534,0.00000354,-0.00001034,-0.00000562,0.00000098,0.00000150,-0.0000
 0452,-0.00000274,-0.00000136,-0.00024010,-0.00026659,-0.00036675,0.000
 00252,-0.00001757,0.00000619,-0.00034885,0.00061954,-0.00021976,-0.000
 15790,-0.00010503,0.00000836,0.00020758,-0.00006646,0.00004473,0.00005
 666,0.00016252,-0.00000362,0.00001887,0.00015095,0.00003019,-0.0000207
 2,-0.00000850,0.00001542,0.00003141,-0.00001421,-0.00004907,-0.0000107
 0,-0.00000202,-0.00000457,-0.00001482,-0.00000353,-0.00000923,-0.00001
 511,-0.00000669,0.00000728,-0.00036413,-0.00063109,-0.00031528,-0.0003
 0820,0.00020675,0.00010209,-0.00015839,0.00035879,0.00023054,0.0002759
 7,0.00020739,0.00003259,-0.00000898,-0.00004767,0.00006256,0.00000205,
 -0.00000956,-0.00000279,-0.00002772,-0.00000992,0.00000019,0.00722037,
 0.66627922,-0.00000599,0.00034742,-0.00000322,-0.00052051,-0.00028051,
 0.00025492,-0.00036922,-0.00027254,0.00029588,-0.00005908,0.00048141,0
 .00008236,0.00013502,-0.00016977,0.00018611,0.00000565,-0.00000910,0.0
 0002112,0.00001280,-0.00012203,-0.00003221,-0.00000045,-0.00000076,-0.
 00000656,0.00000712,-0.00000907,-0.00001137,-0.00017605,-0.00053644,-0
 .00103675,0.00199103,-0.02948691,-0.02396934,-0.04127762,0.00721397,0.
 01448229,0.04144194,0.01090543,0.01381439,-0.01397049,-0.09813407,-0.1
 1277726,0.00068217,-0.00250787,0.00776288,0.02696127,-0.10004552,-0.11
 483617,-0.00015879,-0.00245803,0.00741787,-0.00944751,-0.01150057,-0.0
 0309066,0.01031609,-0.01047974,-0.00274395,0.00001190,-0.00002248,0.00
 004148,-0.00000221,-0.00000834,-0.00001264,-0.00002565,0.00002170,0.00
 001718,-0.00000127,0.00001125,0.00000965,0.00000475,-0.00000065,0.0000
 0729,0.00000337,-0.00000422,0.00000478,-0.00000416,0.00000708,-0.00000
 646,0.00000027,0.00000179,0.00000020,-0.00000146,-0.00000213,-0.000000
 51,-0.00011719,-0.00016536,-0.00020025,0.00000156,-0.00001097,-0.00000
 004,-0.00047234,0.00019884,-0.00023790,-0.00012603,-0.00008849,0.00008
 652,0.00001948,0.00005594,0.00002647,0.00017419,0.00001108,-0.00006569
 ,0.00000503,-0.00001593,0.00000683,-0.00003462,-0.00000267,0.00001073,
 -0.00000444,0.00003739,0.00004287,-0.00001929,0.00000304,-0.00000352,-
 0.00000448,0.00000351,-0.00000036,-0.00001123,-0.00000913,0.00000141,0
 .00001928,-0.00044000,0.00012998,-0.00007723,0.00011267,0.00006425,0.0
 0001113,0.00011721,0.00008848,0.00023076,0.00018327,0.00010760,-0.0000
 0063,0.00000513,-0.00001315,0.00000019,-0.00000383,-0.00000342,-0.0000
 1284,0.00000069,-0.00000343,-0.01826556,0.25473374,0.25031676,0.000002
 93,-0.00005036,0.00005135,-0.00004297,-0.00008948,-0.00006909,0.000307
 18,0.00000306,0.00015527,0.00004490,-0.00006620,-0.00000179,0.00002202
 ,0.00003904,-0.00002665,0.00000213,-0.00001297,0.00001524,0.00000382,0
 .00001004,-0.00000184,0.00000878,0.00004847,0.00005073,-0.00000349,-0.
 00001192,-0.00000139,-0.00180220,-0.00012494,0.00012322,0.00004141,-0.
 00000454,-0.00007474,0.00006410,0.00001039,0.00000501,0.00005866,0.000
 00392,-0.00000035,-0.00003273,-0.00003200,-0.00000869,-0.00000555,-0.0
 0000048,-0.00000269,-0.00002850,0.00001424,0.00001659,-0.00000715,-0.0
 0000433,-0.00000301,0.00000673,0.00000239,-0.00000076,0.00000618,-0.00
 000044,-0.00000148,0.00051687,0.00009955,-0.00012846,0.00320013,-0.000
 68251,0.00210390,0.00267683,0.00023419,-0.00273422,-0.00910579,-0.0009
 0234,0.00165091,-0.00008802,0.00002082,-0.00029644,-0.01131128,-0.0005
 7513,-0.00066398,-0.00015480,-0.00010051,0.00030540,0.00108266,0.00039
 735,-0.00030164,0.00108478,0.00025481,0.00034537,0.00002772,-0.0000059
 7,0.00004781,0.00000093,-0.00000668,0.00000843,0.00045375,0.00016371,-
 0.00046155,0.00040151,0.00011537,0.00015369,0.00003469,0.00006340,-0.0
 0011900,0.00006090,0.00000740,0.00009767,-0.00005265,0.00005341,0.0000
 1415,0.00001852,-0.00000494,-0.00000206,-0.00002016,-0.00003461,-0.000
 02218,-0.00000115,-0.00001171,-0.00000151,-0.00000733,0.00001005,0.000
 01513,-0.00000350,0.00001606,-0.00000076,-0.00010107,-0.00008859,0.000
 09246,0.00001453,0.00001579,-0.00002789,0.00003583,0.00001270,-0.00002
 993,0.00002385,0.00001980,-0.00001218,0.00000209,0.00001629,0.00006448
 ,0.00000303,0.00000942,0.00000480,-0.44617754,-0.02678121,0.00735837,0
 .00004707,0.00000642,0.00000184,0.45870146,0.00001532,0.00001433,0.000
 01308,0.00000343,-0.00006453,0.00001810,0.00004911,0.00007239,0.000097
 74,0.00003077,0.00001640,-0.00002636,-0.00003162,-0.00000149,0.0000362
 1,-0.00000280,-0.00000405,0.00000384,-0.00000090,0.00000074,-0.0000018
 2,-0.00000328,0.00003100,0.00000172,0.00000551,-0.00000725,0.00000016,
 0.00000307,-0.00079218,-0.00012638,0.00000282,0.00005922,0.00000794,-0
 .00000974,-0.00000412,0.00000112,0.00000117,-0.00000126,0.00001238,-0.
 00000108,0.00000360,0.00000098,-0.00000123,0.00000153,-0.00000008,-0.0
 0000242,0.00000139,-0.00000286,-0.00000162,0.00000121,-0.00000225,-0.0
 0000070,-0.00000004,-0.00000006,-0.00000007,0.00000045,-0.00000032,0.0
 0012309,-0.00151279,0.00016928,-0.00077437,0.00688068,0.00243246,0.000
 44776,0.00652554,0.00205780,-0.00711062,-0.00043514,-0.00079111,-0.000
 26526,0.00055940,0.00004844,0.00563822,0.00028354,-0.00128104,0.000233
 38,0.00050248,0.00005857,0.00029957,-0.00379751,-0.00083830,0.00029804
 ,-0.00354390,-0.00075082,0.00000076,-0.00000515,-0.00000463,0.00000313
 ,-0.00000160,-0.00000019,0.00005022,-0.00004942,-0.00006556,-0.0001200
 0,0.00009711,-0.00009191,0.00001409,0.00002075,-0.00001564,0.00001616,
 -0.00006498,0.00000352,0.00003609,-0.00005229,-0.00001782,-0.00002590,
 -0.00000180,0.00000152,0.00000258,0.00002935,0.00004867,-0.00001847,0.
 00000088,0.00000509,0.00000270,-0.00000251,-0.00000100,-0.00000707,-0.
 00000480,0.00000073,-0.00002400,0.00001306,-0.00001355,0.00000404,0.00
 000778,-0.00000314,0.00000220,-0.00000125,0.,-0.00000325,0.00000009,-0
 .00000209,-0.00000281,0.00002235,-0.00005262,-0.00000739,-0.00000212,-
 0.00000102,-0.02681528,-0.03257620,0.00947283,0.00000247,0.00000065,-0
 .00000228,0.02794415,0.02778083,0.00000533,0.00002019,-0.00000026,0.00
 001234,-0.00002033,0.00004450,-0.00001461,0.00003785,0.00000589,-0.000
 02878,0.00000179,-0.00000865,-0.00000833,-0.00001163,0.00002310,-0.000
 00148,-0.00000026,-0.00000107,0.00000046,-0.00000168,-0.00000124,-0.00
 000324,0.00000887,-0.00000682,0.00000046,0.00000133,0.00000079,0.00008
 723,-0.00013906,-0.00016574,0.00000674,0.00000859,0.00002828,-0.000001
 80,0.00000284,-0.00000263,0.00000169,-0.00000098,-0.00000696,-0.000000
 73,0.00000061,-0.00000104,-0.00000074,-0.00000045,0.00000020,-0.000000
 72,0.00000284,0.00000135,-0.00000016,0.00000051,0.00000202,0.00000008,
 -0.00000024,0.00000056,0.00000030,-0.00000006,0.00000051,0.00002291,0.
 00017558,-0.00239233,0.00274238,0.00247816,-0.00467121,-0.00359946,0.0
 0199311,-0.00433005,0.03373813,0.00124552,0.00457846,0.00120543,0.0001
 3651,0.00028368,-0.03241404,-0.00332364,0.00626859,-0.00132529,-0.0000
 3730,0.00027226,0.00007936,-0.00082250,0.00026801,-0.00002012,-0.00076
 380,0.00024308,-0.00000367,-0.00000371,-0.00001792,-0.00000057,0.00000
 154,-0.00000076,0.00016336,-0.00002719,0.00013431,-0.00007372,-0.00001
 552,-0.00000970,-0.00001013,-0.00000621,0.00000361,-0.00000390,0.00001
 655,-0.00000684,0.00000133,0.00001119,0.00000362,-0.00000222,-0.000001
 96,0.00000690,0.00000747,-0.00000804,-0.00000758,-0.00000622,-0.000004
 34,0.00000440,-0.00000086,-0.00000167,-0.00000268,-0.00000062,-0.00000
 149,0.00000064,-0.00002240,-0.00001568,0.00005732,-0.00001003,0.000001
 93,-0.00000448,0.00000511,0.00000086,-0.00000345,0.00000436,0.00000466
 ,-0.00000583,0.00000691,-0.00001181,0.00000483,-0.00000225,-0.00000250
 ,0.00000031,0.00715039,0.00947077,-0.07162797,0.00000141,0.00000035,-0
 .00000102,-0.00768685,-0.01039991,0.07103857,0.00003329,-0.00005399,0.
 00000749,0.00001270,0.00006715,-0.00003588,0.00035804,0.00011547,-0.00
 004527,-0.00004465,-0.00004433,-0.00011011,-0.00002846,0.00007565,-0.0
 0001711,-0.00000622,0.00000644,-0.00001155,0.00003454,0.00001465,0.000
 03732,0.00001418,-0.00000925,0.00000429,-0.00000394,0.00002097,-0.0000
 0003,-0.00194933,-0.00018472,-0.00013312,0.00076456,0.00008607,-0.0002
 3194,0.00297506,-0.00190526,-0.00076435,0.00269442,0.00238162,0.001321
 83,-0.00838263,-0.00167323,-0.00052206,-0.00006750,0.00026383,0.000126
 31,-0.01192638,0.00033826,0.00053325,-0.00016247,-0.00029618,-0.000122
 73,0.00107750,0.00038920,0.00002120,0.00115809,-0.00020571,-0.00026718
 ,0.00004353,0.00001637,0.00007628,0.00008869,-0.00000797,-0.00000754,0
 .00005348,-0.00000430,0.00000321,-0.00002223,-0.00000557,0.00002723,-0
 .00001311,0.00000485,-0.00000623,-0.00003126,-0.00000058,-0.00002646,-
 0.00001127,0.00000182,0.00000300,0.00000809,0.00000107,-0.00000175,0.0
 0000627,0.00000067,0.00000140,0.00002392,0.00005853,0.00003088,0.00000
 055,0.00001132,-0.00000176,0.00041756,-0.00003429,0.00054706,0.0002232
 2,0.00003462,-0.00004442,0.00002240,-0.00006747,0.00003053,-0.00000390
 ,0.00000627,-0.00007081,-0.00001481,0.00000594,-0.00001466,-0.00000382
 ,0.00001036,0.00000677,-0.00000526,-0.00001733,0.00000533,0.00000416,0
 .00001258,0.00000445,0.00000012,-0.00000935,-0.00001030,-0.00000001,-0
 .00001371,-0.00000177,0.00010696,0.00003706,-0.00010769,0.00004502,0.0
 0000425,0.00003157,-0.00000436,-0.00003480,-0.00002743,-0.00001327,0.0
 0006609,0.00000587,0.00000407,-0.00002123,-0.00000382,0.00000370,-0.00
 000543,-0.00000307,0.00004914,0.00000334,0.00000023,-0.44665825,-0.016
 97334,0.00312950,-0.00001011,0.00000003,-0.00000025,0.45913994,0.00001
 191,0.00000849,0.00000180,-0.00002283,-0.00000131,-0.00001950,-0.00001
 885,-0.00004302,-0.00004544,-0.00000166,0.00000729,0.00002286,-0.00000
 297,-0.00000665,0.00000300,-0.00000187,-0.00000119,0.00000396,0.000001
 84,0.00000315,-0.00000085,0.00000156,0.00000131,-0.00000006,0.00000248
 ,-0.00000172,-0.00000087,-0.00011581,-0.00019265,0.00027661,0.00016737
 ,-0.00219894,-0.00033506,-0.00276850,-0.00290014,-0.00470368,0.0032267
 8,-0.00237588,-0.00477286,-0.03100113,0.00293627,0.00232293,-0.0012384
 8,0.00021591,-0.00007400,0.02989025,0.00613560,0.00200762,0.00114853,0
 .00036601,-0.00010702,0.00007774,-0.00033342,0.00161743,0.00017915,-0.
 00039576,0.00172287,-0.00000846,-0.00000210,-0.00000989,0.00000346,-0.
 00000593,0.00000366,0.00000701,0.00000316,-0.00000068,-0.00000125,0.00
 000241,-0.00000164,0.00000024,0.00000101,-0.00000256,-0.00000109,0.000
 00158,-0.00000058,-0.00000050,-0.00000016,0.00000136,0.00000002,0.0000
 0025,-0.00000001,-0.00000025,-0.00000026,-0.00000011,-0.00000604,-0.00
 000493,-0.00000687,-0.00000171,-0.00000060,0.00000179,0.00012597,0.000
 05595,0.00017956,0.00001875,-0.00000178,-0.00004520,0.00004151,-0.0000
 1104,0.00002828,0.00001838,0.00005709,-0.00001221,0.00000109,0.0000170
 7,0.00000363,-0.00000871,-0.00000103,0.00000259,-0.00001278,0.00000029
 ,-0.00000331,-0.00000316,0.00000231,0.00000247,-0.00000107,-0.00000151
 ,-0.00000238,0.00000213,-0.00000236,0.00000063,0.00003506,-0.00000137,
 -0.00005239,-0.00001141,0.00000713,0.00000882,-0.00000772,0.00000672,0
 .00001605,0.00000965,0.00001219,-0.00000621,-0.00000185,-0.00001066,0.
 00000303,0.00000133,-0.00000186,-0.00000103,0.00000233,0.00000113,0.00
 000152,-0.01726960,-0.06863280,-0.01766313,-0.00000041,-0.00000036,-0.
 00000020,0.01753357,0.06728710,-0.00003034,0.00001530,0.00000873,-0.00
 000092,0.00000245,0.00000364,0.00006594,0.00004452,0.00011552,-0.00001
 655,0.00006355,-0.00002855,0.00001217,0.00001077,0.00000872,0.00000350
 ,0.00000278,-0.00000550,-0.00000172,-0.00001332,0.00001790,0.00000247,
 -0.00000369,-0.00000233,-0.00000588,0.00000392,-0.00000021,-0.00002592
 ,0.00033927,-0.00063313,0.00015526,-0.00041444,-0.00171369,-0.00123908
 ,-0.00470298,0.00477033,0.00163179,-0.00475071,0.00518645,-0.01446969,
 0.00162998,0.00106301,-0.00054984,-0.00009133,0.00046777,0.01464072,0.
 00281987,0.00106746,0.00059026,-0.00006448,0.00049204,-0.00011500,0.00
 161601,-0.00296502,-0.00007957,0.00172923,-0.00322049,0.00002397,-0.00
 000057,0.00003436,0.00000413,0.00000933,-0.00000839,0.00000167,-0.0000
 0511,0.00000665,0.00000006,-0.00000565,0.00000534,-0.00000020,-0.00000
 302,0.00000441,-0.00000538,0.00000307,-0.00000382,-0.00000278,-0.00000
 131,-0.00000229,0.00000075,-0.00000020,-0.00000005,0.00000110,0.000000
 47,0.00000044,0.00001124,0.00000077,-0.00000261,0.00000153,0.00000008,
 -0.00000071,-0.00020068,-0.00006743,-0.00024960,0.00001958,-0.00003296
 ,0.00005207,-0.00002014,0.00002777,0.00003783,-0.00000617,-0.00002628,
 -0.00002922,-0.00001135,-0.00001667,0.00000243,0.00001202,0.00000330,-
 0.00000526,0.00002444,0.00001614,0.00001425,-0.00000177,-0.00000370,-0
 .00000318,0.00000368,-0.00000002,-0.00000242,-0.00000276,-0.00000115,-
 0.00000028,-0.00007131,-0.00006305,0.00008200,0.00000157,0.00000809,-0
 .00000224,-0.00000119,-0.00000098,0.00000040,-0.00000174,0.00000984,0.
 00000839,-0.00000508,0.00000159,-0.00001153,0.00000082,-0.00000052,-0.
 00000043,0.00000291,-0.00000245,0.00000132,0.00301986,-0.01772192,-0.0
 3622444,-0.00000069,0.00000058,0.00000043,-0.00336572,0.01963526,0.031
 66346\\-0.00000204,0.00000082,0.00000035,-0.00000108,-0.00000264,0.000
 00051,-0.00000140,-0.00000097,-0.00000018,0.00000359,-0.00000158,0.000
 00094,0.00000053,0.00000163,0.00000069,-0.00000011,0.00000074,0.000001
 32,0.00000141,0.00000167,-0.00000103,0.00000052,0.00000014,-0.00000011
 ,-0.00000068,-0.00000024,0.00000029,0.00000861,-0.00000455,0.00001532,
 0.00000596,-0.00000821,-0.00000433,-0.00000223,-0.00000070,0.00000131,
 -0.00000994,0.00000172,0.00000174,0.00000383,0.00000341,0.00000184,0.0
 0000065,0.00000077,0.00000086,0.00000465,-0.00000232,-0.00000078,-0.00
 000046,0.00000098,0.00000026,-0.00000003,0.00000021,0.00000240,-0.0000
 0044,-0.00000053,0.00000071,-0.00000906,0.00000140,0.00000185,0.000004
 43,-0.00000212,-0.00000096,0.00000513,-0.00000080,-0.00000293,-0.00000
 236,-0.00000027,0.00000079,0.00000045,-0.00000064,-0.00000092,-0.00000
 413,0.00000007,-0.00000346,-0.00000304,-0.00000079,-0.00000005,0.00000
 022,-0.00000134,-0.00000075,-0.00000096,0.00000054,-0.00000196,-0.0000
 0058,-0.00000029,0.00000196,-0.00000031,-0.00000023,0.00000100,-0.0000
 1086,0.00000514,-0.00000521,0.00000352,-0.00000121,-0.00001239,0.00000
 306,0.00000323,0.00000045,0.00000116,0.00000676,0.00000226,-0.00000158
 ,-0.00000102,-0.00000265,-0.00000331,0.00000326,0.00000234,0.00000065,
 -0.00000187,-0.00000136,-0.00000167,-0.00000071,0.00000065,-0.00000107
 ,-0.00000024,-0.00000002,-0.00000117,-0.00000013,-0.00000201,0.0000076
 3,0.00000110,0.00000272,0.00000083,-0.00000029,-0.00000124,0.00000107,
 -0.00000060,0.00000039,0.00000129,-0.00000116,0.00000038,-0.00000137,0
 .00000132,-0.00000021,0.00000016,0.00000142,-0.00000155,0.00000671,-0.
 00000026,-0.00000114,-0.00000567,0.00000008,0.00000108,-0.00000126,-0.
 00000054,-0.00000141,0.00000072,-0.00000014,0.00000224\\\@


 ART, GLORY, FREEDOM FAIL, BUT NATURE STILL IS FAIR.

                                           -- BYRON
 Job cpu time:       1 days  7 hours 50 minutes 44.5 seconds.
 Elapsed time:       0 days  1 hours 19 minutes 47.1 seconds.
 File lengths (MBytes):  RWF=   2328 Int=      0 D2E=      0 Chk=     56 Scr=     16
 Normal termination of Gaussian 16 at Wed Mar 14 11:06:10 2018.
