Job Start Time: Mon Mar 26 20:56:40 MDT 2018
SLURM Job ID: 728742
SLURM Job Name: postTS_Int3_1pyrax_SMD_b
 Entering Gaussian System, Link 0=/projects/user/g16/g16
 Initial command:
 /projects/user/g16/l1.exe "/gpfs/summit/scratch/user/728742/Gau-133070.inp" -scrdir="/gpfs/summit/scratch/user/728742/"
 Entering Link 1 = /projects/user/g16/l1.exe PID=    133071.
  
 Copyright (c) 1988,1990,1992,1993,1995,1998,2003,2009,2016,
            Gaussian, Inc.  All Rights Reserved.
  
 This is part of the Gaussian(R) 16 program.  It is based on
 the Gaussian(R) 09 system (copyright 2009, Gaussian, Inc.),
 the Gaussian(R) 03 system (copyright 2003, Gaussian, Inc.),
 the Gaussian(R) 98 system (copyright 1998, Gaussian, Inc.),
 the Gaussian(R) 94 system (copyright 1995, Gaussian, Inc.),
 the Gaussian 92(TM) system (copyright 1992, Gaussian, Inc.),
 the Gaussian 90(TM) system (copyright 1990, Gaussian, Inc.),
 the Gaussian 88(TM) system (copyright 1988, Gaussian, Inc.),
 the Gaussian 86(TM) system (copyright 1986, Carnegie Mellon
 University), and the Gaussian 82(TM) system (copyright 1983,
 Carnegie Mellon University). Gaussian is a federally registered
 trademark of Gaussian, Inc.
  
 This software contains proprietary and confidential information,
 including trade secrets, belonging to Gaussian, Inc.
  
 This software is provided under written license and may be
 used, copied, transmitted, or stored only in accord with that
 written license.
  
 The following legend is applicable only to US Government
 contracts under FAR:
  
                    RESTRICTED RIGHTS LEGEND
  
 Use, reproduction and disclosure by the US Government is
 subject to restrictions as set forth in subparagraphs (a)
 and (c) of the Commercial Computer Software - Restricted
 Rights clause in FAR 52.227-19.
  
 Gaussian, Inc.
 340 Quinnipiac St., Bldg. 40, Wallingford CT 06492
  
  
 ---------------------------------------------------------------
 Warning -- This program may not be used in any manner that
 competes with the business of Gaussian, Inc. or will provide
 assistance to any competitor of Gaussian, Inc.  The licensee
 of this program is prohibited from giving any competitor of
 Gaussian, Inc. access to this program.  By using this program,
 the user acknowledges that Gaussian, Inc. is engaged in the
 business of creating and licensing software in the field of
 computational chemistry and represents and warrants to the
 licensee that it is not a competitor of Gaussian, Inc. and that
 it will not use this program in any manner prohibited above.
 ---------------------------------------------------------------
  

 Cite this work as:
 Gaussian 16, Revision A.03,
 M. J. Frisch, G. W. Trucks, H. B. Schlegel, G. E. Scuseria, 
 M. A. Robb, J. R. Cheeseman, G. Scalmani, V. Barone, 
 G. A. Petersson, H. Nakatsuji, X. Li, M. Caricato, A. V. Marenich, 
 J. Bloino, B. G. Janesko, R. Gomperts, B. Mennucci, H. P. Hratchian, 
 J. V. Ortiz, A. F. Izmaylov, J. L. Sonnenberg, D. Williams-Young, 
 F. Ding, F. Lipparini, F. Egidi, J. Goings, B. Peng, A. Petrone, 
 T. Henderson, D. Ranasinghe, V. G. Zakrzewski, J. Gao, N. Rega, 
 G. Zheng, W. Liang, M. Hada, M. Ehara, K. Toyota, R. Fukuda, 
 J. Hasegawa, M. Ishida, T. Nakajima, Y. Honda, O. Kitao, H. Nakai, 
 T. Vreven, K. Throssell, J. A. Montgomery, Jr., J. E. Peralta, 
 F. Ogliaro, M. J. Bearpark, J. J. Heyd, E. N. Brothers, K. N. Kudin, 
 V. N. Staroverov, T. A. Keith, R. Kobayashi, J. Normand, 
 K. Raghavachari, A. P. Rendell, J. C. Burant, S. S. Iyengar, 
 J. Tomasi, M. Cossi, J. M. Millam, M. Klene, C. Adamo, R. Cammi, 
 J. W. Ochterski, R. L. Martin, K. Morokuma, O. Farkas, 
 J. B. Foresman, and D. J. Fox, Gaussian, Inc., Wallingford CT, 2016.
 
 ******************************************
 Gaussian 16:  ES64L-G16RevA.03 25-Dec-2016
                26-Mar-2018 
 ******************************************
 %mem=98GB
 %nprocshared=24
 Will use up to   24 processors via shared memory.
 %chk=Int3_boiujc.chk
 ----------------------------------------------------------------------
 # wb97xd/6-31+g(d) opt=(maxcycles=200) scrf=(solvent=ethanol,smd) freq
 =noraman geom=connectivity
 ----------------------------------------------------------------------
 1/6=200,18=20,19=15,26=3,38=1,57=2/1,3;
 2/9=110,12=2,17=6,18=5,40=1/2;
 3/5=1,6=6,7=11,11=2,25=1,30=1,70=32201,71=1,72=4,74=-58/1,2,3;
 4//1;
 5/5=2,38=5,53=4/2;
 6/7=2,8=2,9=2,10=2,28=1/1;
 7//1,2,3,16;
 1/6=200,18=20,19=15,26=3/3(2);
 2/9=110/2;
 99//99;
 2/9=110/2;
 3/5=1,6=6,7=11,11=2,25=1,30=1,70=32205,71=1,72=4,74=-58/1,2,3;
 4/5=5,16=3,69=1/1;
 5/5=2,38=5,53=4/2;
 7//1,2,3,16;
 1/6=200,18=20,19=15,26=3/3(-5);
 2/9=110/2;
 6/7=2,8=2,9=2,10=2,19=2,28=1/1;
 99/9=1/99;
 -------------------
 Title Card Required
 -------------------
 Symbolic Z-matrix:
 Charge =  2 Multiplicity = 1
 C                     0.65352   3.29962  -1.96387 
 C                     0.82101   2.01043  -1.47265 
 C                     0.33973   1.69164  -0.19495 
 C                    -0.30784   2.65183   0.58513 
 C                    -0.45868   3.94349   0.08751 
 H                     1.02945   3.55278  -2.95057 
 H                     1.34052   1.26936  -2.07483 
 H                    -0.678     2.40116   1.57476 
 H                    -0.94779   4.69933   0.6947 
 P                     0.59825   0.02926   0.42358 
 C                    -2.04673  -0.38442   0.17754 
 C                    -2.63446  -0.65729   1.41836 
 C                    -2.72899   0.45754  -0.70617 
 C                    -3.92078  -0.22771   1.67368 
 H                    -2.13251  -1.25846   2.16669 
 C                    -4.01503   0.86069  -0.4141 
 H                    -2.29955   0.75094  -1.6569 
 H                    -4.45797  -0.45056   2.58703 
 H                    -4.62255   1.45923  -1.08106 
 C                     2.33337  -0.34091   0.17385 
 C                     2.81852  -1.54985  -0.32713 
 C                     3.21913   0.67257   0.58386 
 C                     4.1958   -1.73794  -0.42805 
 H                     2.1361   -2.33354  -0.6416 
 C                     4.58916   0.46823   0.48784 
 H                     2.84363   1.61392   0.97578 
 C                     5.07592  -0.73593  -0.02304 
 H                     4.57992  -2.67247  -0.82534 
 H                     5.27395   1.24876   0.80502 
 H                     6.14748  -0.89356  -0.10649 
 C                     0.02215   4.26636  -1.18052 
 H                    -0.09223   5.27791  -1.55971 
 O                     0.27031   0.02734   1.98425 
 C                    -0.72139  -1.08691  -0.26736 
 C                    -0.63088  -2.4777    0.33733 
 C                    -0.65699  -1.21991  -1.77714 
 C                    -1.08065  -3.54331  -0.34877 
 H                    -0.28955  -2.60539   1.35831 
 C                    -1.11299  -2.33369  -2.37782 
 H                    -0.34739  -0.38014  -2.38874 
 H                    -1.11934  -4.53462   0.08864 
 H                    -1.18027  -2.41909  -3.45665 
 N                    -1.48654  -3.45032  -1.6626 
 C                     1.14725  -0.53074   2.99274 
 H                     0.51958  -0.66234   3.87362 
 H                     1.54914  -1.49348   2.66976 
 H                     1.95387   0.17408   3.20287 
 N                    -4.58365   0.47569   0.74016 
 H                    -5.5497    0.7443    0.92234 
 H                    -1.70254  -4.29982  -2.16584 
 

 GradGradGradGradGradGradGradGradGradGradGradGradGradGradGradGradGradGrad
 Berny optimization.
 Initialization pass.
                           ----------------------------
                           !    Initial Parameters    !
                           ! (Angstroms and Degrees)  !
 --------------------------                            --------------------------
 ! Name  Definition              Value          Derivative Info.                !
 --------------------------------------------------------------------------------
 ! R1    R(1,2)                  1.3897         estimate D2E/DX2                !
 ! R2    R(1,6)                  1.0858         estimate D2E/DX2                !
 ! R3    R(1,31)                 1.3953         estimate D2E/DX2                !
 ! R4    R(2,3)                  1.4021         estimate D2E/DX2                !
 ! R5    R(2,7)                  1.0871         estimate D2E/DX2                !
 ! R6    R(3,4)                  1.3964         estimate D2E/DX2                !
 ! R7    R(3,10)                 1.7925         estimate D2E/DX2                !
 ! R8    R(4,5)                  1.3924         estimate D2E/DX2                !
 ! R9    R(4,8)                  1.0859         estimate D2E/DX2                !
 ! R10   R(5,9)                  1.0859         estimate D2E/DX2                !
 ! R11   R(5,31)                 1.394          estimate D2E/DX2                !
 ! R12   R(10,20)                1.7917         estimate D2E/DX2                !
 ! R13   R(10,33)                1.5948         estimate D2E/DX2                !
 ! R14   R(10,34)                1.8614         estimate D2E/DX2                !
 ! R15   R(11,12)                1.3998         estimate D2E/DX2                !
 ! R16   R(11,13)                1.3983         estimate D2E/DX2                !
 ! R17   R(11,34)                1.5646         estimate D2E/DX2                !
 ! R18   R(12,14)                1.38           estimate D2E/DX2                !
 ! R19   R(12,15)                1.0832         estimate D2E/DX2                !
 ! R20   R(13,16)                1.379          estimate D2E/DX2                !
 ! R21   R(13,17)                1.0837         estimate D2E/DX2                !
 ! R22   R(14,18)                1.0828         estimate D2E/DX2                !
 ! R23   R(14,48)                1.3437         estimate D2E/DX2                !
 ! R24   R(16,19)                1.0827         estimate D2E/DX2                !
 ! R25   R(16,48)                1.3431         estimate D2E/DX2                !
 ! R26   R(20,21)                1.3957         estimate D2E/DX2                !
 ! R27   R(20,22)                1.4071         estimate D2E/DX2                !
 ! R28   R(21,23)                1.3937         estimate D2E/DX2                !
 ! R29   R(21,24)                1.0857         estimate D2E/DX2                !
 ! R30   R(22,25)                1.3885         estimate D2E/DX2                !
 ! R31   R(22,26)                1.0866         estimate D2E/DX2                !
 ! R32   R(23,27)                1.3938         estimate D2E/DX2                !
 ! R33   R(23,28)                1.0857         estimate D2E/DX2                !
 ! R34   R(25,27)                1.3957         estimate D2E/DX2                !
 ! R35   R(25,29)                1.0857         estimate D2E/DX2                !
 ! R36   R(27,30)                1.0863         estimate D2E/DX2                !
 ! R37   R(31,32)                1.0863         estimate D2E/DX2                !
 ! R38   R(33,44)                1.4483         estimate D2E/DX2                !
 ! R39   R(34,35)                1.5193         estimate D2E/DX2                !
 ! R40   R(34,36)                1.517          estimate D2E/DX2                !
 ! R41   R(35,37)                1.3448         estimate D2E/DX2                !
 ! R42   R(35,38)                1.0841         estimate D2E/DX2                !
 ! R43   R(36,39)                1.3451         estimate D2E/DX2                !
 ! R44   R(36,40)                1.084          estimate D2E/DX2                !
 ! R45   R(37,41)                1.0842         estimate D2E/DX2                !
 ! R46   R(37,43)                1.3782         estimate D2E/DX2                !
 ! R47   R(39,42)                1.0843         estimate D2E/DX2                !
 ! R48   R(39,43)                1.3777         estimate D2E/DX2                !
 ! R49   R(43,50)                1.0107         estimate D2E/DX2                !
 ! R50   R(44,45)                1.0896         estimate D2E/DX2                !
 ! R51   R(44,46)                1.0921         estimate D2E/DX2                !
 ! R52   R(44,47)                1.0916         estimate D2E/DX2                !
 ! R53   R(48,49)                1.0191         estimate D2E/DX2                !
 ! A1    A(2,1,6)              119.7199         estimate D2E/DX2                !
 ! A2    A(2,1,31)             119.922          estimate D2E/DX2                !
 ! A3    A(6,1,31)             120.351          estimate D2E/DX2                !
 ! A4    A(1,2,3)              119.4503         estimate D2E/DX2                !
 ! A5    A(1,2,7)              119.616          estimate D2E/DX2                !
 ! A6    A(3,2,7)              120.9217         estimate D2E/DX2                !
 ! A7    A(2,3,4)              120.7929         estimate D2E/DX2                !
 ! A8    A(2,3,10)             118.4136         estimate D2E/DX2                !
 ! A9    A(4,3,10)             120.7867         estimate D2E/DX2                !
 ! A10   A(3,4,5)              119.2404         estimate D2E/DX2                !
 ! A11   A(3,4,8)              120.5615         estimate D2E/DX2                !
 ! A12   A(5,4,8)              120.1923         estimate D2E/DX2                !
 ! A13   A(4,5,9)              119.6463         estimate D2E/DX2                !
 ! A14   A(4,5,31)             120.1701         estimate D2E/DX2                !
 ! A15   A(9,5,31)             120.1827         estimate D2E/DX2                !
 ! A16   A(3,10,20)            106.4504         estimate D2E/DX2                !
 ! A17   A(3,10,33)            108.0084         estimate D2E/DX2                !
 ! A18   A(3,10,34)            109.0135         estimate D2E/DX2                !
 ! A19   A(20,10,33)           109.5909         estimate D2E/DX2                !
 ! A20   A(20,10,34)           120.7278         estimate D2E/DX2                !
 ! A21   A(33,10,34)           102.519          estimate D2E/DX2                !
 ! A22   A(12,11,13)           118.21           estimate D2E/DX2                !
 ! A23   A(12,11,34)           121.3448         estimate D2E/DX2                !
 ! A24   A(13,11,34)           120.2614         estimate D2E/DX2                !
 ! A25   A(11,12,14)           119.6487         estimate D2E/DX2                !
 ! A26   A(11,12,15)           121.7348         estimate D2E/DX2                !
 ! A27   A(14,12,15)           118.4826         estimate D2E/DX2                !
 ! A28   A(11,13,16)           119.8139         estimate D2E/DX2                !
 ! A29   A(11,13,17)           121.608          estimate D2E/DX2                !
 ! A30   A(16,13,17)           118.4385         estimate D2E/DX2                !
 ! A31   A(12,14,18)           123.6718         estimate D2E/DX2                !
 ! A32   A(12,14,48)           119.6199         estimate D2E/DX2                !
 ! A33   A(18,14,48)           116.6799         estimate D2E/DX2                !
 ! A34   A(13,16,19)           123.672          estimate D2E/DX2                !
 ! A35   A(13,16,48)           119.5406         estimate D2E/DX2                !
 ! A36   A(19,16,48)           116.765          estimate D2E/DX2                !
 ! A37   A(10,20,21)           124.4466         estimate D2E/DX2                !
 ! A38   A(10,20,22)           114.8483         estimate D2E/DX2                !
 ! A39   A(21,20,22)           120.6429         estimate D2E/DX2                !
 ! A40   A(20,21,23)           119.1041         estimate D2E/DX2                !
 ! A41   A(20,21,24)           120.7123         estimate D2E/DX2                !
 ! A42   A(23,21,24)           120.1824         estimate D2E/DX2                !
 ! A43   A(20,22,25)           119.6686         estimate D2E/DX2                !
 ! A44   A(20,22,26)           120.7675         estimate D2E/DX2                !
 ! A45   A(25,22,26)           119.5639         estimate D2E/DX2                !
 ! A46   A(21,23,27)           120.3945         estimate D2E/DX2                !
 ! A47   A(21,23,28)           119.4911         estimate D2E/DX2                !
 ! A48   A(27,23,28)           120.1144         estimate D2E/DX2                !
 ! A49   A(22,25,27)           119.7623         estimate D2E/DX2                !
 ! A50   A(22,25,29)           119.7576         estimate D2E/DX2                !
 ! A51   A(27,25,29)           120.479          estimate D2E/DX2                !
 ! A52   A(23,27,25)           120.4235         estimate D2E/DX2                !
 ! A53   A(23,27,30)           119.7522         estimate D2E/DX2                !
 ! A54   A(25,27,30)           119.8242         estimate D2E/DX2                !
 ! A55   A(1,31,5)             120.4161         estimate D2E/DX2                !
 ! A56   A(1,31,32)            119.7914         estimate D2E/DX2                !
 ! A57   A(5,31,32)            119.7922         estimate D2E/DX2                !
 ! A58   A(10,33,44)           123.8765         estimate D2E/DX2                !
 ! A59   A(10,34,11)           103.0475         estimate D2E/DX2                !
 ! A60   A(10,34,35)           111.0366         estimate D2E/DX2                !
 ! A61   A(10,34,36)           113.0739         estimate D2E/DX2                !
 ! A62   A(11,34,35)           110.384          estimate D2E/DX2                !
 ! A63   A(11,34,36)           110.9973         estimate D2E/DX2                !
 ! A64   A(35,34,36)           108.2604         estimate D2E/DX2                !
 ! A65   A(34,35,37)           120.159          estimate D2E/DX2                !
 ! A66   A(34,35,38)           120.0955         estimate D2E/DX2                !
 ! A67   A(37,35,38)           119.5013         estimate D2E/DX2                !
 ! A68   A(34,36,39)           120.1757         estimate D2E/DX2                !
 ! A69   A(34,36,40)           120.3784         estimate D2E/DX2                !
 ! A70   A(39,36,40)           119.0999         estimate D2E/DX2                !
 ! A71   A(35,37,41)           122.046          estimate D2E/DX2                !
 ! A72   A(35,37,43)           122.0974         estimate D2E/DX2                !
 ! A73   A(41,37,43)           115.8337         estimate D2E/DX2                !
 ! A74   A(36,39,42)           122.0445         estimate D2E/DX2                !
 ! A75   A(36,39,43)           122.0885         estimate D2E/DX2                !
 ! A76   A(42,39,43)           115.8408         estimate D2E/DX2                !
 ! A77   A(37,43,39)           118.0166         estimate D2E/DX2                !
 ! A78   A(37,43,50)           118.7418         estimate D2E/DX2                !
 ! A79   A(39,43,50)           118.731          estimate D2E/DX2                !
 ! A80   A(33,44,45)           105.1106         estimate D2E/DX2                !
 ! A81   A(33,44,46)           110.8902         estimate D2E/DX2                !
 ! A82   A(33,44,47)           109.431          estimate D2E/DX2                !
 ! A83   A(45,44,46)           110.1575         estimate D2E/DX2                !
 ! A84   A(45,44,47)           110.367          estimate D2E/DX2                !
 ! A85   A(46,44,47)           110.7443         estimate D2E/DX2                !
 ! A86   A(14,48,16)           122.5647         estimate D2E/DX2                !
 ! A87   A(14,48,49)           118.7771         estimate D2E/DX2                !
 ! A88   A(16,48,49)           118.6461         estimate D2E/DX2                !
 ! D1    D(6,1,2,3)            179.66           estimate D2E/DX2                !
 ! D2    D(6,1,2,7)              0.904          estimate D2E/DX2                !
 ! D3    D(31,1,2,3)             0.6193         estimate D2E/DX2                !
 ! D4    D(31,1,2,7)          -178.1367         estimate D2E/DX2                !
 ! D5    D(2,1,31,5)            -0.8401         estimate D2E/DX2                !
 ! D6    D(2,1,31,32)          178.938          estimate D2E/DX2                !
 ! D7    D(6,1,31,5)          -179.8746         estimate D2E/DX2                !
 ! D8    D(6,1,31,32)           -0.0965         estimate D2E/DX2                !
 ! D9    D(1,2,3,4)              0.2007         estimate D2E/DX2                !
 ! D10   D(1,2,3,10)          -178.8566         estimate D2E/DX2                !
 ! D11   D(7,2,3,4)            178.9401         estimate D2E/DX2                !
 ! D12   D(7,2,3,10)            -0.1173         estimate D2E/DX2                !
 ! D13   D(2,3,4,5)             -0.8002         estimate D2E/DX2                !
 ! D14   D(2,3,4,8)           -179.9213         estimate D2E/DX2                !
 ! D15   D(10,3,4,5)           178.2347         estimate D2E/DX2                !
 ! D16   D(10,3,4,8)            -0.8864         estimate D2E/DX2                !
 ! D17   D(2,3,10,20)           49.5538         estimate D2E/DX2                !
 ! D18   D(2,3,10,33)          167.1742         estimate D2E/DX2                !
 ! D19   D(2,3,10,34)          -82.1485         estimate D2E/DX2                !
 ! D20   D(4,3,10,20)         -129.5035         estimate D2E/DX2                !
 ! D21   D(4,3,10,33)          -11.8832         estimate D2E/DX2                !
 ! D22   D(4,3,10,34)           98.7941         estimate D2E/DX2                !
 ! D23   D(3,4,5,9)           -179.0724         estimate D2E/DX2                !
 ! D24   D(3,4,5,31)             0.5805         estimate D2E/DX2                !
 ! D25   D(8,4,5,9)              0.052          estimate D2E/DX2                !
 ! D26   D(8,4,5,31)           179.7049         estimate D2E/DX2                !
 ! D27   D(4,5,31,1)             0.2336         estimate D2E/DX2                !
 ! D28   D(4,5,31,32)         -179.5445         estimate D2E/DX2                !
 ! D29   D(9,5,31,1)           179.8847         estimate D2E/DX2                !
 ! D30   D(9,5,31,32)            0.1065         estimate D2E/DX2                !
 ! D31   D(3,10,20,21)        -136.0533         estimate D2E/DX2                !
 ! D32   D(3,10,20,22)          46.8072         estimate D2E/DX2                !
 ! D33   D(33,10,20,21)        107.3794         estimate D2E/DX2                !
 ! D34   D(33,10,20,22)        -69.7601         estimate D2E/DX2                !
 ! D35   D(34,10,20,21)        -11.2548         estimate D2E/DX2                !
 ! D36   D(34,10,20,22)        171.6057         estimate D2E/DX2                !
 ! D37   D(3,10,33,44)        -130.4884         estimate D2E/DX2                !
 ! D38   D(20,10,33,44)        -14.9085         estimate D2E/DX2                !
 ! D39   D(34,10,33,44)        114.4812         estimate D2E/DX2                !
 ! D40   D(3,10,34,11)         -56.0774         estimate D2E/DX2                !
 ! D41   D(3,10,34,35)        -174.2546         estimate D2E/DX2                !
 ! D42   D(3,10,34,36)          63.8251         estimate D2E/DX2                !
 ! D43   D(20,10,34,11)       -179.6696         estimate D2E/DX2                !
 ! D44   D(20,10,34,35)         62.1532         estimate D2E/DX2                !
 ! D45   D(20,10,34,36)        -59.7671         estimate D2E/DX2                !
 ! D46   D(33,10,34,11)         58.2201         estimate D2E/DX2                !
 ! D47   D(33,10,34,35)        -59.9571         estimate D2E/DX2                !
 ! D48   D(33,10,34,36)        178.1226         estimate D2E/DX2                !
 ! D49   D(13,11,12,14)          7.5833         estimate D2E/DX2                !
 ! D50   D(13,11,12,15)       -176.6879         estimate D2E/DX2                !
 ! D51   D(34,11,12,14)       -167.5007         estimate D2E/DX2                !
 ! D52   D(34,11,12,15)          8.2281         estimate D2E/DX2                !
 ! D53   D(12,11,13,16)         -7.905          estimate D2E/DX2                !
 ! D54   D(12,11,13,17)        176.4564         estimate D2E/DX2                !
 ! D55   D(34,11,13,16)        167.2342         estimate D2E/DX2                !
 ! D56   D(34,11,13,17)         -8.4043         estimate D2E/DX2                !
 ! D57   D(12,11,34,10)        -87.8011         estimate D2E/DX2                !
 ! D58   D(12,11,34,35)         30.8323         estimate D2E/DX2                !
 ! D59   D(12,11,34,36)        150.8758         estimate D2E/DX2                !
 ! D60   D(13,11,34,10)         97.2146         estimate D2E/DX2                !
 ! D61   D(13,11,34,35)       -144.152          estimate D2E/DX2                !
 ! D62   D(13,11,34,36)        -24.1084         estimate D2E/DX2                !
 ! D63   D(11,12,14,18)        176.4058         estimate D2E/DX2                !
 ! D64   D(11,12,14,48)         -1.5854         estimate D2E/DX2                !
 ! D65   D(15,12,14,18)          0.5385         estimate D2E/DX2                !
 ! D66   D(15,12,14,48)       -177.4527         estimate D2E/DX2                !
 ! D67   D(11,13,16,19)       -176.0031         estimate D2E/DX2                !
 ! D68   D(11,13,16,48)          2.2176         estimate D2E/DX2                !
 ! D69   D(17,13,16,19)         -0.227          estimate D2E/DX2                !
 ! D70   D(17,13,16,48)        177.9936         estimate D2E/DX2                !
 ! D71   D(12,14,48,16)         -4.462          estimate D2E/DX2                !
 ! D72   D(12,14,48,49)        176.8175         estimate D2E/DX2                !
 ! D73   D(18,14,48,16)        177.409          estimate D2E/DX2                !
 ! D74   D(18,14,48,49)         -1.3115         estimate D2E/DX2                !
 ! D75   D(13,16,48,14)          4.1452         estimate D2E/DX2                !
 ! D76   D(13,16,48,49)       -177.1326         estimate D2E/DX2                !
 ! D77   D(19,16,48,14)       -177.5133         estimate D2E/DX2                !
 ! D78   D(19,16,48,49)          1.2088         estimate D2E/DX2                !
 ! D79   D(10,20,21,23)       -177.5453         estimate D2E/DX2                !
 ! D80   D(10,20,21,24)          2.8696         estimate D2E/DX2                !
 ! D81   D(22,20,21,23)         -0.5625         estimate D2E/DX2                !
 ! D82   D(22,20,21,24)        179.8525         estimate D2E/DX2                !
 ! D83   D(10,20,22,25)        177.32           estimate D2E/DX2                !
 ! D84   D(10,20,22,26)         -2.6373         estimate D2E/DX2                !
 ! D85   D(21,20,22,25)          0.0617         estimate D2E/DX2                !
 ! D86   D(21,20,22,26)       -179.8956         estimate D2E/DX2                !
 ! D87   D(20,21,23,27)          0.5474         estimate D2E/DX2                !
 ! D88   D(20,21,23,28)       -179.4462         estimate D2E/DX2                !
 ! D89   D(24,21,23,27)       -179.8653         estimate D2E/DX2                !
 ! D90   D(24,21,23,28)          0.1411         estimate D2E/DX2                !
 ! D91   D(20,22,25,27)          0.457          estimate D2E/DX2                !
 ! D92   D(20,22,25,29)       -179.9196         estimate D2E/DX2                !
 ! D93   D(26,22,25,27)       -179.5852         estimate D2E/DX2                !
 ! D94   D(26,22,25,29)          0.0382         estimate D2E/DX2                !
 ! D95   D(21,23,27,25)         -0.0334         estimate D2E/DX2                !
 ! D96   D(21,23,27,30)       -179.988          estimate D2E/DX2                !
 ! D97   D(28,23,27,25)        179.9601         estimate D2E/DX2                !
 ! D98   D(28,23,27,30)          0.0055         estimate D2E/DX2                !
 ! D99   D(22,25,27,23)         -0.4741         estimate D2E/DX2                !
 ! D100  D(22,25,27,30)        179.4804         estimate D2E/DX2                !
 ! D101  D(29,25,27,23)        179.9053         estimate D2E/DX2                !
 ! D102  D(29,25,27,30)         -0.1401         estimate D2E/DX2                !
 ! D103  D(10,33,44,45)       -162.5047         estimate D2E/DX2                !
 ! D104  D(10,33,44,46)        -43.4847         estimate D2E/DX2                !
 ! D105  D(10,33,44,47)         78.9715         estimate D2E/DX2                !
 ! D106  D(10,34,35,37)       -153.3534         estimate D2E/DX2                !
 ! D107  D(10,34,35,38)         32.3513         estimate D2E/DX2                !
 ! D108  D(11,34,35,37)         93.0092         estimate D2E/DX2                !
 ! D109  D(11,34,35,38)        -81.2861         estimate D2E/DX2                !
 ! D110  D(36,34,35,37)        -28.6681         estimate D2E/DX2                !
 ! D111  D(36,34,35,38)        157.0365         estimate D2E/DX2                !
 ! D112  D(10,34,36,39)        152.529          estimate D2E/DX2                !
 ! D113  D(10,34,36,40)        -34.2844         estimate D2E/DX2                !
 ! D114  D(11,34,36,39)        -92.2352         estimate D2E/DX2                !
 ! D115  D(11,34,36,40)         80.9514         estimate D2E/DX2                !
 ! D116  D(35,34,36,39)         29.064          estimate D2E/DX2                !
 ! D117  D(35,34,36,40)       -157.7494         estimate D2E/DX2                !
 ! D118  D(34,35,37,41)       -174.0036         estimate D2E/DX2                !
 ! D119  D(34,35,37,43)          7.8075         estimate D2E/DX2                !
 ! D120  D(38,35,37,41)          0.3257         estimate D2E/DX2                !
 ! D121  D(38,35,37,43)       -177.8633         estimate D2E/DX2                !
 ! D122  D(34,36,39,42)        173.3247         estimate D2E/DX2                !
 ! D123  D(34,36,39,43)         -8.6128         estimate D2E/DX2                !
 ! D124  D(40,36,39,42)          0.0514         estimate D2E/DX2                !
 ! D125  D(40,36,39,43)        178.1139         estimate D2E/DX2                !
 ! D126  D(35,37,43,39)         16.338          estimate D2E/DX2                !
 ! D127  D(35,37,43,50)        172.2377         estimate D2E/DX2                !
 ! D128  D(41,37,43,39)       -161.9565         estimate D2E/DX2                !
 ! D129  D(41,37,43,50)         -6.0568         estimate D2E/DX2                !
 ! D130  D(36,39,43,37)        -15.9336         estimate D2E/DX2                !
 ! D131  D(36,39,43,50)       -171.8359         estimate D2E/DX2                !
 ! D132  D(42,39,43,37)        162.2417         estimate D2E/DX2                !
 ! D133  D(42,39,43,50)          6.3394         estimate D2E/DX2                !
 --------------------------------------------------------------------------------
 Trust Radius=3.00D-01 FncErr=1.00D-07 GrdErr=1.00D-06 EigMax=2.50D+02 EigMin=1.00D-04
 Number of steps in this run=    200 maximum allowed number of steps=    300.
 GradGradGradGradGradGradGradGradGradGradGradGradGradGradGradGradGradGrad

                          Input orientation:                          
 ---------------------------------------------------------------------
 Center     Atomic      Atomic             Coordinates (Angstroms)
 Number     Number       Type             X           Y           Z
 ---------------------------------------------------------------------
      1          6           0        0.653522    3.299619   -1.963873
      2          6           0        0.821011    2.010429   -1.472648
      3          6           0        0.339733    1.691637   -0.194949
      4          6           0       -0.307842    2.651830    0.585128
      5          6           0       -0.458682    3.943490    0.087507
      6          1           0        1.029450    3.552779   -2.950571
      7          1           0        1.340523    1.269364   -2.074833
      8          1           0       -0.678000    2.401162    1.574760
      9          1           0       -0.947791    4.699329    0.694700
     10         15           0        0.598248    0.029257    0.423582
     11          6           0       -2.046727   -0.384420    0.177536
     12          6           0       -2.634459   -0.657290    1.418361
     13          6           0       -2.728993    0.457543   -0.706174
     14          6           0       -3.920781   -0.227705    1.673679
     15          1           0       -2.132506   -1.258463    2.166685
     16          6           0       -4.015028    0.860692   -0.414096
     17          1           0       -2.299554    0.750941   -1.656904
     18          1           0       -4.457973   -0.450562    2.587033
     19          1           0       -4.622553    1.459225   -1.081057
     20          6           0        2.333370   -0.340908    0.173852
     21          6           0        2.818522   -1.549853   -0.327132
     22          6           0        3.219125    0.672565    0.583859
     23          6           0        4.195797   -1.737937   -0.428046
     24          1           0        2.136101   -2.333539   -0.641598
     25          6           0        4.589157    0.468226    0.487837
     26          1           0        2.843633    1.613921    0.975777
     27          6           0        5.075918   -0.735932   -0.023040
     28          1           0        4.579923   -2.672469   -0.825339
     29          1           0        5.273948    1.248764    0.805016
     30          1           0        6.147481   -0.893559   -0.106492
     31          6           0        0.022150    4.266364   -1.180522
     32          1           0       -0.092233    5.277911   -1.559711
     33          8           0        0.270313    0.027339    1.984254
     34          6           0       -0.721385   -1.086908   -0.267363
     35          6           0       -0.630878   -2.477697    0.337325
     36          6           0       -0.656990   -1.219907   -1.777143
     37          6           0       -1.080647   -3.543313   -0.348765
     38          1           0       -0.289554   -2.605394    1.358309
     39          6           0       -1.112995   -2.333686   -2.377821
     40          1           0       -0.347385   -0.380135   -2.388737
     41          1           0       -1.119337   -4.534623    0.088644
     42          1           0       -1.180272   -2.419092   -3.456648
     43          7           0       -1.486542   -3.450321   -1.662601
     44          6           0        1.147249   -0.530737    2.992741
     45          1           0        0.519581   -0.662337    3.873617
     46          1           0        1.549139   -1.493481    2.669759
     47          1           0        1.953872    0.174079    3.202870
     48          7           0       -4.583651    0.475685    0.740163
     49          1           0       -5.549701    0.744295    0.922339
     50          1           0       -1.702542   -4.299815   -2.165839
 ---------------------------------------------------------------------
                    Distance matrix (angstroms):
                    1          2          3          4          5
     1  C    0.000000
     2  C    1.389736   0.000000
     3  C    2.411050   1.402060   0.000000
     4  C    2.800225   2.433135   1.396368   0.000000
     5  C    2.420687   2.794355   2.405845   1.392395   0.000000
     6  H    1.085811   2.146287   3.396029   3.886030   3.405453
     7  H    2.146210   1.087059   2.171142   3.421069   3.881212
     8  H    3.886142   3.418538   2.161267   1.085920   2.153787
     9  H    3.404615   3.880237   3.390487   2.147974   1.085911
    10  P    4.049477   2.751428   1.792461   2.779386   4.068325
    11  C    5.044712   4.084401   3.184957   3.522594   4.610943
    12  C    6.156903   5.235927   4.118986   4.130097   5.260452
    13  C    4.593540   3.949869   3.346852   3.513450   4.235100
    14  C    6.826276   6.114999   5.032656   4.746577   5.648092
    15  H    6.752746   5.714338   4.515791   4.595771   5.846793
    16  C    5.490495   5.082293   4.438743   4.236727   4.733164
    17  H    3.912882   3.370191   3.160389   3.550634   4.077272
    18  H    7.803972   7.099659   5.945286   5.554822   6.445902
    19  H    5.657153   5.485395   5.046136   4.776527   4.987478
    20  C    4.543698   3.244530   2.870861   4.012684   5.114594
    21  C    5.557295   4.240031   4.082784   5.316062   6.410055
    22  C    4.469303   3.430751   3.152134   4.044377   4.946876
    23  C    6.346924   5.150788   5.165805   6.370192   7.362648
    24  H    5.973183   4.614127   4.430403   5.686090   6.831221
    25  C    5.432945   4.518940   4.474431   5.362666   6.141531
    26  H    4.034812   3.200469   2.765168   3.340907   4.137777
    27  C    6.293655   5.267646   5.324856   6.389966   7.248518
    28  H    7.237314   6.039699   6.117354   7.363954   8.366107
    29  H    5.763774   5.059302   5.053963   5.759629   6.374905
    30  H    7.156549   6.218586   6.357751   7.397251   8.189998
    31  C    1.395301   2.410966   2.775145   2.415188   1.394039
    32  H    2.152472   3.393823   3.861416   3.397517   2.151346
    33  O    5.142215   4.023193   2.742924   3.029813   4.411952
    34  C    4.900014   3.664041   2.975152   3.856931   5.049738
    35  C    6.350006   5.052451   4.313786   5.145659   6.428351
    36  C    4.709398   3.565428   3.460330   4.548909   5.493352
    37  C    7.241660   5.976911   5.426402   6.312621   7.525250
    38  H    6.840721   5.527522   4.612276   5.313807   6.673187
    39  C    5.918282   4.840563   4.804016   5.855144   6.775611
    40  H    3.837045   2.814101   3.094685   4.247146   4.983764
    41  H    8.290428   7.002877   6.401220   7.249147   8.503815
    42  H    6.188282   5.249957   5.463258   6.543037   7.318755
    43  N    7.087477   5.931330   5.650577   6.608923   7.667321
    44  C    6.283583   5.148170   3.968929   4.247661   5.571185
    45  H    7.056297   5.984738   4.703910   4.741571   6.041959
    46  H    6.726551   5.474221   4.451313   4.997766   6.345079
    47  H    6.176985   5.149371   4.056304   4.255252   5.452922
    48  N    6.535625   6.038406   5.156809   4.800228   5.428352
    49  H    7.303415   6.922791   6.068873   5.588335   6.070442
    50  H    7.958846   6.831399   6.629690   7.605155   8.635788
                    6          7          8          9         10
     6  H    0.000000
     7  H    2.465293   0.000000
     8  H    4.971944   4.321450   0.000000
     9  H    4.302564   4.967027   2.475654   0.000000
    10  P    4.897556   2.886332   2.929156   4.926796   0.000000
    11  C    5.894867   4.391085   3.403691   5.226818   2.688412
    12  C    7.087770   5.631597   3.634050   5.662323   3.451279
    13  C    5.361315   4.369581   3.631375   4.809145   3.539818
    14  C    7.757611   6.631280   4.175686   5.837185   4.695785
    15  H    7.702748   6.036747   3.982313   6.250246   3.486208
    16  C    6.255222   5.622009   4.179037   5.037113   4.761859
    17  H    4.539398   3.700485   3.974458   4.790310   3.639575
    18  H    8.763767   7.636340   4.842027   6.513346   5.520518
    19  H    6.310562   6.048298   4.847691   5.211090   5.618319
    20  C    5.159750   2.938589   4.306953   6.036662   1.791657
    21  C    6.009997   3.631380   5.608331   7.367600   2.826089
    22  C    5.057915   3.309676   4.376930   5.795714   2.703429
    23  C    6.661874   4.461878   6.700542   8.315976   4.097634
    24  H    6.419094   3.958285   5.937070   7.794698   3.013703
    25  C    5.831692   4.214584   5.714944   6.971572   4.015492
    26  H    4.739899   3.418228   3.657927   4.896289   2.803183
    27  C    6.583113   4.710015   6.745509   8.145077   4.564484
    28  H    7.475037   5.252903   7.690771   9.338605   4.971203
    29  H    6.117899   4.875017   6.111155   7.115378   4.847150
    30  H    7.352071   5.626673   7.763310   9.070016   5.650359
    31  C    2.157992   3.394099   3.400113   2.155157   4.567068
    32  H    2.483696   4.287959   4.294615   2.479739   5.653192
    33  O    6.112079   4.377689   2.588826   4.997421   1.594755
    34  C    5.638415   3.615305   3.944861   5.870039   1.861360
    35  C    7.066370   4.872925   5.033560   7.192903   2.793387
    36  C    5.196109   3.205487   4.934353   6.421209   2.824752
    37  C    7.847065   5.657140   6.260899   8.309490   4.022246
    38  H    7.630813   5.427464   5.026265   7.364281   2.933137
    39  C    6.290356   4.369613   6.183114   7.676651   4.044714
    40  H    4.204657   2.380844   4.853270   5.972355   2.995156
    41  H    8.902819   6.664669   7.106928   9.255409   4.887871
    42  H    6.387662   4.676380   6.985857   8.243765   4.920745
    43  N    7.551986   5.517033   6.736030   8.500819   4.561356
    44  C    7.211930   5.381266   3.733395   6.084717   2.686182
    45  H    8.037208   6.307890   4.012975   6.403605   3.519550
    46  H    7.571191   5.494360   4.618161   6.963219   2.875454
    47  H    7.080608   5.424942   3.812793   5.931986   3.095663
    48  N    7.388973   6.606812   4.433748   5.573214   5.210720
    49  H    8.134632   7.532193   5.186939   6.072206   6.209454
    50  H    8.351217   6.346990   7.742407   9.472958   5.544330
                   11         12         13         14         15
    11  C    0.000000
    12  C    1.399833   0.000000
    13  C    1.398332   2.401133   0.000000
    14  C    2.403140   1.379984   2.748386   0.000000
    15  H    2.174402   1.083215   3.399087   2.122132   0.000000
    16  C    2.403027   2.751025   1.379030   2.356331   3.833424
    17  H    2.172127   3.398901   1.083692   3.831306   4.322666
    18  H    3.409422   2.175715   3.828739   1.082800   2.497437
    19  H    3.408513   3.831350   2.174735   3.305569   4.912636
    20  C    4.380315   5.131104   5.199951   6.432472   4.975675
    21  C    5.028277   5.794689   5.911703   7.153288   5.551280
    22  C    5.386234   6.060475   6.090199   7.278492   5.905435
    23  C    6.416217   7.157473   7.269815   8.519207   6.856380
    24  H    4.686800   5.459989   5.609229   6.817688   5.221422
    25  C    6.697630   7.369755   7.414924   8.620301   7.140080
    26  H    5.342862   5.946745   5.934672   7.045279   5.867777
    27  C    7.134134   7.844344   7.925130   9.169392   7.551775
    28  H    7.081908   7.819363   7.951819   9.191514   7.483871
    29  H    7.526839   8.157949   8.182713   9.352945   7.936995
    30  H    8.214922   8.916472   8.998716  10.246086   8.594107
    31  C    5.268241   6.168803   4.722384   6.624940   6.809556
    32  H    6.236992   7.110446   5.560304   7.444756   7.795699
    33  O    2.966892   3.037540   4.052075   4.210317   2.731320
    34  C    1.564594   2.585747   2.570676   3.839532   2.818738
    35  C    2.532187   2.914937   3.755877   4.203780   2.662325
    36  C    2.539720   3.799759   2.872979   4.852316   4.210987
    37  C    3.344983   3.723734   4.341847   4.811434   3.557307
    38  H    3.068323   3.049147   4.426572   4.351859   2.421604
    39  C    3.346841   4.419972   3.632742   5.360361   4.779963
    40  H    3.077911   4.449890   3.033938   5.412543   4.970914
    41  H    4.253486   4.370063   5.305134   5.376799   4.009737
    42  H    4.254166   5.383709   4.270676   6.215531   5.820282
    43  N    3.619345   4.314054   4.210681   5.238467   4.459254
    44  C    4.260079   4.098293   5.448295   5.245634   3.459588
    45  H    4.508236   3.997033   5.725544   4.974480   3.209758
    46  H    4.513474   4.446089   5.788422   5.702139   3.723282
    47  H    5.046718   4.992838   6.106570   6.083700   4.452453
    48  N    2.737209   2.354344   2.352015   1.343728   3.324206
    49  H    3.754938   3.272478   3.269660   2.040264   4.151705
    50  H    4.576045   5.194511   5.081012   6.020346   5.310881
                   16         17         18         19         20
    16  C    0.000000
    17  H    2.121195   0.000000
    18  H    3.304900   4.910538   0.000000
    19  H    1.082666   2.495915   4.138751   0.000000
    20  C    6.487810   5.099783   7.208176   7.293843   0.000000
    21  C    7.246771   5.766858   7.915060   8.061796   1.395674
    22  C    7.305086   5.956759   8.013236   8.054979   1.407052
    23  C    8.612242   7.063582   9.253960   9.402742   2.404705
    24  H    6.934786   5.497263   7.579675   7.762576   2.162048
    25  C    8.660226   7.220400   9.332811   9.396761   2.416994
    26  H    7.038489   5.841927   7.757041   7.745865   2.173662
    27  C    9.238367   7.699214   9.888832   9.999923   2.777837
    28  H    9.301910   7.729065   9.912856  10.090681   3.388445
    29  H    9.376668   7.979148  10.038604  10.076820   3.401827
    30  H   10.317393   8.744173  10.951118  11.067023   3.864125
    31  C    5.337117   4.239746   7.517670   5.428000   5.329449
    32  H    6.017689   5.037377   8.310871   5.944348   6.360811
    33  O    4.981035   4.515069   4.790451   5.948661   2.769362
    34  C    3.829198   2.792692   4.744955   4.729059   3.175329
    35  C    4.812686   4.145544   4.880279   5.783133   3.657780
    36  C    4.178900   2.568407   5.838270   4.836111   3.677128
    37  C    5.292459   4.651621   5.439701   6.173065   4.709993
    38  H    5.388351   4.939291   4.850647   6.422345   3.662044
    39  C    4.741525   3.382686   6.275732   5.327736   4.728597
    40  H    4.346316   2.371893   6.454470   4.834287   3.708753
    41  H    6.143875   5.690082   5.836779   7.040379   5.432835
    42  H    5.296220   3.813264   7.151539   5.703865   5.463063
    43  N    5.151392   4.279208   5.990605   5.854605   5.256685
    44  C    6.339694   5.928098   5.620457   7.338010   3.064156
    45  H    6.423922   6.366439   5.145502   7.449252   4.132966
    46  H    6.783233   6.210465   6.097534   7.802363   2.858845
    47  H    7.012963   6.483965   6.471568   7.953175   3.095833
    48  N    1.343085   3.322468   2.069941   2.070195   6.988041
    49  H    2.038340   4.149216   2.321801   2.320415   7.992541
    50  H    5.920053   5.111318   6.708125   6.547500   6.118471
                   21         22         23         24         25
    21  C    0.000000
    22  C    2.435062   0.000000
    23  C    1.393716   2.790763   0.000000
    24  H    1.085703   3.422185   2.154691   0.000000
    25  C    2.805702   1.388511   2.420894   3.891400   0.000000
    26  H    3.421647   1.086621   3.877373   4.324228   2.144191
    27  C    2.418838   2.408292   1.393792   3.402571   1.395682
    28  H    2.147326   3.876450   1.085700   2.474045   3.404186
    29  H    3.891418   2.145510   3.406352   4.977115   1.085717
    30  H    3.400202   3.391843   2.150684   4.295469   2.153151
    31  C    6.509712   5.123386   7.350999   6.951111   6.169832
    32  H    7.523969   6.063761   8.299999   7.983895   7.017189
    33  O    3.784628   3.327599   4.934047   3.993746   4.591956
    34  C    3.570551   4.398630   4.962694   3.139963   5.584857
    35  C    3.633285   4.980708   4.942654   2.938579   5.995822
    36  C    3.780288   4.917321   5.063394   3.214187   5.958354
    37  C    4.379254   6.093558   5.577323   3.449170   6.995643
    38  H    3.689853   4.863704   4.905295   3.155525   5.831525
    39  C    4.502949   6.047839   5.686810   3.683897   6.969738
    40  H    3.954924   4.760725   5.131124   3.610538   5.776144
    41  H    4.958675   6.795756   6.028190   3.996986   7.600971
    42  H    5.151679   6.725975   6.207940   4.350880   7.561870
    43  N    4.891711   6.647411   6.061795   3.925964   7.542779
    44  C    3.853999   3.397546   4.738434   4.175685   4.372551
    45  H    4.870227   4.460046   5.759842   5.078703   5.413236
    46  H    3.255129   3.439707   4.081783   3.466310   4.225019
    47  H    4.022496   2.951029   4.676065   4.593614   3.795083
    48  N    7.748167   7.806824   9.129268   7.413236   9.176281
    49  H    8.766496   8.775649  10.146908   8.425587  10.151918
    50  H    5.602067   7.517194   6.661347   4.574356   8.328366
                   26         27         28         29         30
    26  H    0.000000
    27  C    3.391540   0.000000
    28  H    4.963050   2.154036   0.000000
    29  H    2.463520   2.159609   4.302999   0.000000
    30  H    4.286511   1.086305   2.477600   2.486655   0.000000
    31  C    4.432363   7.204395   8.309444   6.374139   8.080719
    32  H    5.335994   8.076970   9.250778   7.114904   8.895669
    33  O    3.186886   5.263616   5.809950   5.283829   6.305583
    34  C    4.642115   5.813054   5.561403   6.522988   6.873470
    35  C    5.405662   5.977552   5.342487   6.998015   6.975143
    36  C    5.278590   6.014760   5.517348   6.923721   7.014157
    37  C    6.614488   6.774273   5.746960   8.042145   7.702320
    38  H    5.269327   5.847333   5.337099   6.790672   6.819930
    39  C    6.518061   6.811788   5.910524   7.984826   7.742571
    40  H    5.047654   5.927506   5.654854   6.667290   6.903299
    41  H    7.368631   7.267992   6.065027   8.650714   8.130318
    42  H    7.218268   7.332299   6.337810   8.559901   8.200412
    43  N    7.166450   7.288481   6.173173   8.595043   8.199806
    44  C    3.397855   4.956963   5.563093   4.998241   5.893997
    45  H    4.356609   5.995795   6.527419   5.972656   6.896955
    46  H    3.768453   4.501468   4.774031   4.987121   5.404834
    47  H    2.797278   4.580588   5.587973   4.234095   5.447760
    48  N    7.517689   9.765130   9.814925   9.888079  10.851214
    49  H    8.438434  10.769800  10.832264  10.836034  11.856016
    50  H    8.093808   7.952381   6.626806   9.395963   8.801497
                   31         32         33         34         35
    31  C    0.000000
    32  H    1.086322   0.000000
    33  O    5.295916   6.345048   0.000000
    34  C    5.481261   6.525099   2.700887   0.000000
    35  C    6.943534   8.002396   3.130451   1.519254   0.000000
    36  C    5.560248   6.525938   4.069843   1.516994   2.460425
    37  C    7.930891   8.958646   4.474106   2.483872   1.344823
    38  H    7.332386   8.408345   2.763429   2.266073   1.084074
    39  C    6.803142   7.723190   5.149338   2.482307   2.761375
    40  H    4.815215   5.724148   4.435159   2.267076   3.451311
    41  H    8.964996  10.002892   5.131858   3.488817   2.128704
    42  H    7.163930   8.001628   6.139433   3.486665   3.833993
    43  N    7.877549   8.839498   5.336685   2.849189   2.382827
    44  C    6.457101   7.483417   1.448279   3.798605   3.742141
    45  H    7.076995   8.073532   2.026692   4.343728   4.138170
    46  H    7.094517   8.150722   2.101953   3.734604   3.340869
    47  H    6.300196   7.274464   2.083489   4.559562   4.682328
    48  N    6.266712   6.965891   5.030879   4.286479   4.950672
    49  H    6.918997   7.516529   5.959384   5.299182   5.909170
    50  H    8.793454   9.731049   6.311869   3.858711   3.276341
                   36         37         38         39         40
    36  C    0.000000
    37  C    2.760066   0.000000
    38  H    3.447556   2.102290   0.000000
    39  C    1.345087   2.362480   3.835433   0.000000
    40  H    1.084029   3.834691   4.358380   2.098247   0.000000
    41  H    3.831745   1.084214   2.454081   3.305694   4.898275
    42  H    2.128992   3.306469   4.900194   1.084292   2.447750
    43  N    2.382441   1.378246   3.357466   1.377661   3.354250
    44  C    5.146069   5.020438   3.006655   6.099366   5.587210
    45  H    5.798818   5.356236   3.279778   6.673769   6.328376
    46  H    4.971598   4.497674   2.517349   5.768099   5.515861
    47  H    5.793128   5.970044   4.020054   6.843878   6.071985
    48  N    4.962915   5.441429   5.321130   5.446085   5.335578
    49  H    5.923168   6.322320   6.251370   6.328458   6.268306
    50  H    3.275683   2.064172   4.157790   2.063532   4.153315
                   41         42         43         44         45
    41  H    0.000000
    42  H    4.128956   0.000000
    43  N    2.092226   2.091851   0.000000
    44  C    5.440799   7.111811   6.093688   0.000000
    45  H    5.657444   7.727126   6.515143   1.089600   0.000000
    46  H    4.799111   6.770473   5.640383   1.092112   1.788872
    47  H    6.427666   7.803626   6.974635   1.091586   1.790722
    48  N    6.126103   6.129922   5.547872   6.239408   6.095622
    49  H    6.941912   6.947982   6.386390   7.124704   6.893826
    50  H    2.340503   2.340101   1.010715   6.995585   7.392165
                   46         47         48         49         50
    46  H    0.000000
    47  H    1.796879   0.000000
    48  N    6.723992   6.992503   0.000000
    49  H    7.645564   7.863178   1.019113   0.000000
    50  H    6.467762   7.887213   6.288962   7.055531   0.000000
 Stoichiometry    C23H23N2OP(2+)
 Framework group  C1[X(C23H23N2OP)]
 Deg. of freedom   144
 Full point group                 C1      NOp   1
 Largest Abelian subgroup         C1      NOp   1
 Largest concise Abelian subgroup C1      NOp   1
                         Standard orientation:                         
 ---------------------------------------------------------------------
 Center     Atomic      Atomic             Coordinates (Angstroms)
 Number     Number       Type             X           Y           Z
 ---------------------------------------------------------------------
      1          6           0        0.653522    3.299619   -1.963873
      2          6           0        0.821011    2.010429   -1.472648
      3          6           0        0.339733    1.691637   -0.194949
      4          6           0       -0.307842    2.651830    0.585128
      5          6           0       -0.458682    3.943490    0.087507
      6          1           0        1.029450    3.552779   -2.950571
      7          1           0        1.340523    1.269364   -2.074833
      8          1           0       -0.678000    2.401162    1.574760
      9          1           0       -0.947791    4.699329    0.694700
     10         15           0        0.598248    0.029257    0.423582
     11          6           0       -2.046727   -0.384420    0.177536
     12          6           0       -2.634459   -0.657290    1.418361
     13          6           0       -2.728993    0.457543   -0.706174
     14          6           0       -3.920781   -0.227705    1.673679
     15          1           0       -2.132506   -1.258463    2.166685
     16          6           0       -4.015028    0.860692   -0.414096
     17          1           0       -2.299554    0.750941   -1.656904
     18          1           0       -4.457973   -0.450562    2.587033
     19          1           0       -4.622553    1.459225   -1.081057
     20          6           0        2.333370   -0.340908    0.173852
     21          6           0        2.818522   -1.549853   -0.327132
     22          6           0        3.219125    0.672565    0.583859
     23          6           0        4.195797   -1.737937   -0.428046
     24          1           0        2.136101   -2.333539   -0.641598
     25          6           0        4.589157    0.468226    0.487837
     26          1           0        2.843633    1.613921    0.975777
     27          6           0        5.075918   -0.735932   -0.023040
     28          1           0        4.579923   -2.672469   -0.825339
     29          1           0        5.273948    1.248764    0.805016
     30          1           0        6.147481   -0.893559   -0.106492
     31          6           0        0.022150    4.266364   -1.180522
     32          1           0       -0.092233    5.277911   -1.559711
     33          8           0        0.270313    0.027339    1.984254
     34          6           0       -0.721385   -1.086908   -0.267363
     35          6           0       -0.630878   -2.477697    0.337325
     36          6           0       -0.656990   -1.219907   -1.777143
     37          6           0       -1.080647   -3.543313   -0.348765
     38          1           0       -0.289554   -2.605394    1.358309
     39          6           0       -1.112995   -2.333686   -2.377821
     40          1           0       -0.347385   -0.380135   -2.388737
     41          1           0       -1.119337   -4.534623    0.088644
     42          1           0       -1.180272   -2.419092   -3.456648
     43          7           0       -1.486542   -3.450321   -1.662601
     44          6           0        1.147249   -0.530737    2.992741
     45          1           0        0.519581   -0.662337    3.873617
     46          1           0        1.549139   -1.493481    2.669759
     47          1           0        1.953872    0.174079    3.202870
     48          7           0       -4.583651    0.475685    0.740163
     49          1           0       -5.549701    0.744295    0.922339
     50          1           0       -1.702542   -4.299815   -2.165839
 ---------------------------------------------------------------------
 Rotational constants (GHZ):           0.2473549           0.1759831           0.1358243
 Standard basis: 6-31+G(d) (6D, 7F)
 There are   563 symmetry adapted cartesian basis functions of A   symmetry.
 There are   563 symmetry adapted basis functions of A   symmetry.
   563 basis functions,   980 primitive gaussians,   563 cartesian basis functions
    98 alpha electrons       98 beta electrons
       nuclear repulsion energy      2700.7242767306 Hartrees.
 NAtoms=   50 NActive=   50 NUniq=   50 SFac= 1.00D+00 NAtFMM=   60 NAOKFM=F Big=F
 Integral buffers will be    131072 words long.
 Raffenetti 2 integral format.
 Two-electron integral symmetry is turned on.
 Nuclear repulsion after empirical dispersion term =     2700.6767755483 Hartrees.
 ------------------------------------------------------------------------------
 Polarizable Continuum Model (PCM)
 =================================
 Model                : PCM.
 Atomic radii         : SMD-Coulomb.
 Polarization charges : Total charges.
 Charge compensation  : None.
 Solution method      : On-the-fly selection.
 Cavity type          : VdW (van der Waals Surface) (Alpha=1.000).
 Cavity algorithm     : GePol (No added spheres)
                        Default sphere list used, NSphG=   50.
                        Lebedev-Laikov grids with approx.  5.0 points / Ang**2.
                        Smoothing algorithm: York/Karplus (Gamma=1.0000).
                        Polarization charges: spherical gaussians, with
                                              point-specific exponents (IZeta= 3).
                        Self-potential: point-specific (ISelfS= 7).
                        Self-field    : sphere-specific E.n sum rule (ISelfD= 2).
 1st derivatives      : Analytical E(r).r(x)/FMM algorithm (CHGder, D1EAlg=3).
                        Cavity 1st derivative terms included.
 Solvent              : Ethanol, Eps=  24.852000 Eps(inf)=   1.852593
 ------------------------------------------------------------------------------
 ------------------------------------------------------------------------------
 Atomic radii for non-electrostatic terms: SMD-CDS.
 ------------------------------------------------------------------------------
 Nuclear repulsion after PCM non-electrostatic terms =     2700.6757404032 Hartrees.
 One-electron integrals computed using PRISM.
 NBasis=   563 RedAO= T EigKep=  1.06D-06  NBF=   563
 NBsUse=   561 1.00D-06 EigRej=  7.33D-07 NBFU=   561
 ExpMin= 3.48D-02 ExpMax= 1.94D+04 ExpMxC= 2.91D+03 IAcc=3 IRadAn=         5 AccDes= 0.00D+00
 Harris functional with IExCor= 4639 and IRadAn=       5 diagonalized for initial guess.
 HarFok:  IExCor= 4639 AccDes= 0.00D+00 IRadAn=         5 IDoV= 1 UseB2=F ITyADJ=14
 ICtDFT=  3500011 ScaDFX=  1.000000  1.000000  1.000000  1.000000
 FoFCou: FMM=F IPFlag=           0 FMFlag=      100000 FMFlg1=           0
         NFxFlg=           0 DoJE=T BraDBF=F KetDBF=T FulRan=T
         wScrn=  0.000000 ICntrl=       500 IOpCl=  0 I1Cent=   200000004 NGrid=           0
         NMat0=    1 NMatS0=      1 NMatT0=    0 NMatD0=    1 NMtDS0=    0 NMtDT0=    0
 Petite list used in FoFCou.
 Requested convergence on RMS density matrix=1.00D-08 within 128 cycles.
 Requested convergence on MAX density matrix=1.00D-06.
 Requested convergence on             energy=1.00D-06.
 No special actions if energy rises.
 Inv3:  Mode=1 IEnd=    41940363.
 Iteration    1 A*A^-1 deviation from unit magnitude is 8.22D-15 for   2165.
 Iteration    1 A*A^-1 deviation from orthogonality  is 3.18D-15 for   2540    338.
 Iteration    1 A^-1*A deviation from unit magnitude is 6.22D-15 for   3714.
 Iteration    1 A^-1*A deviation from orthogonality  is 3.72D-13 for   1887   1842.
 Error on total polarization charges =  0.05639
 SCF Done:  E(RwB97XD) =  -1415.73189022     A.U. after   17 cycles
            NFock= 17  Conv=0.49D-08     -V/T= 2.0082
 SMD-CDS (non-electrostatic) energy       (kcal/mol) =      -0.65
 (included in total energy above)

 **********************************************************************

            Population analysis using the SCF density.

 **********************************************************************

 Orbital symmetries:
       Occupied  (A) (A) (A) (A) (A) (A) (A) (A) (A) (A) (A) (A)
                 (A) (A) (A) (A) (A) (A) (A) (A) (A) (A) (A) (A)
                 (A) (A) (A) (A) (A) (A) (A) (A) (A) (A) (A) (A)
                 (A) (A) (A) (A) (A) (A) (A) (A) (A) (A) (A) (A)
                 (A) (A) (A) (A) (A) (A) (A) (A) (A) (A) (A) (A)
                 (A) (A) (A) (A) (A) (A) (A) (A) (A) (A) (A) (A)
                 (A) (A) (A) (A) (A) (A) (A) (A) (A) (A) (A) (A)
                 (A) (A) (A) (A) (A) (A) (A) (A) (A) (A) (A) (A)
                 (A) (A)
       Virtual   (A) (A) (A) (A) (A) (A) (A) (A) (A) (A) (A) (A)
                 (A) (A) (A) (A) (A) (A) (A) (A) (A) (A) (A) (A)
                 (A) (A) (A) (A) (A) (A) (A) (A) (A) (A) (A) (A)
                 (A) (A) (A) (A) (A) (A) (A) (A) (A) (A) (A) (A)
                 (A) (A) (A) (A) (A) (A) (A) (A) (A) (A) (A) (A)
                 (A) (A) (A) (A) (A) (A) (A) (A) (A) (A) (A) (A)
                 (A) (A) (A) (A) (A) (A) (A) (A) (A) (A) (A) (A)
                 (A) (A) (A) (A) (A) (A) (A) (A) (A) (A) (A) (A)
                 (A) (A) (A) (A) (A) (A) (A) (A) (A) (A) (A) (A)
                 (A) (A) (A) (A) (A) (A) (A) (A) (A) (A) (A) (A)
                 (A) (A) (A) (A) (A) (A) (A) (A) (A) (A) (A) (A)
                 (A) (A) (A) (A) (A) (A) (A) (A) (A) (A) (A) (A)
                 (A) (A) (A) (A) (A) (A) (A) (A) (A) (A) (A) (A)
                 (A) (A) (A) (A) (A) (A) (A) (A) (A) (A) (A) (A)
                 (A) (A) (A) (A) (A) (A) (A) (A) (A) (A) (A) (A)
                 (A) (A) (A) (A) (A) (A) (A) (A) (A) (A) (A) (A)
                 (A) (A) (A) (A) (A) (A) (A) (A) (A) (A) (A) (A)
                 (A) (A) (A) (A) (A) (A) (A) (A) (A) (A) (A) (A)
                 (A) (A) (A) (A) (A) (A) (A) (A) (A) (A) (A) (A)
                 (A) (A) (A) (A) (A) (A) (A) (A) (A) (A) (A) (A)
                 (A) (A) (A) (A) (A) (A) (A) (A) (A) (A) (A) (A)
                 (A) (A) (A) (A) (A) (A) (A) (A) (A) (A) (A) (A)
                 (A) (A) (A) (A) (A) (A) (A) (A) (A) (A) (A) (A)
                 (A) (A) (A) (A) (A) (A) (A) (A) (A) (A) (A) (A)
                 (A) (A) (A) (A) (A) (A) (A) (A) (A) (A) (A) (A)
                 (A) (A) (A) (A) (A) (A) (A) (A) (A) (A) (A) (A)
                 (A) (A) (A) (A) (A) (A) (A) (A) (A) (A) (A) (A)
                 (A) (A) (A) (A) (A) (A) (A) (A) (A) (A) (A) (A)
                 (A) (A) (A) (A) (A) (A) (A) (A) (A) (A) (A) (A)
                 (A) (A) (A) (A) (A) (A) (A) (A) (A) (A) (A) (A)
                 (A) (A) (A) (A) (A) (A) (A) (A) (A) (A) (A) (A)
                 (A) (A) (A) (A) (A) (A) (A) (A) (A) (A) (A) (A)
                 (A) (A) (A) (A) (A) (A) (A) (A) (A) (A) (A) (A)
                 (A) (A) (A) (A) (A) (A) (A) (A) (A) (A) (A) (A)
                 (A) (A) (A) (A) (A) (A) (A) (A) (A) (A) (A) (A)
                 (A) (A) (A) (A) (A) (A) (A) (A) (A) (A) (A) (A)
                 (A) (A) (A) (A) (A) (A) (A) (A) (A) (A) (A) (A)
                 (A) (A) (A) (A) (A) (A) (A) (A) (A) (A) (A) (A)
                 (A) (A) (A) (A) (A) (A) (A)
 The electronic state is 1-A.
 Alpha  occ. eigenvalues --  -77.38737 -19.34248 -14.58019 -14.50445 -10.39821
 Alpha  occ. eigenvalues --  -10.39813 -10.38490 -10.38164 -10.36517 -10.35677
 Alpha  occ. eigenvalues --  -10.35656 -10.35249 -10.35197 -10.35121 -10.34559
 Alpha  occ. eigenvalues --  -10.33815 -10.33767 -10.33578 -10.33495 -10.32913
 Alpha  occ. eigenvalues --  -10.32725 -10.32528 -10.32469 -10.32417 -10.32387
 Alpha  occ. eigenvalues --  -10.31663 -10.31601  -6.80658  -4.95649  -4.95328
 Alpha  occ. eigenvalues --   -4.95290  -1.19254  -1.14735  -1.08200  -0.99831
 Alpha  occ. eigenvalues --   -0.98699  -0.98354  -0.92994  -0.92516  -0.90070
 Alpha  occ. eigenvalues --   -0.88418  -0.87499  -0.87329  -0.87051  -0.84257
 Alpha  occ. eigenvalues --   -0.81104  -0.79123  -0.77498  -0.74544  -0.73590
 Alpha  occ. eigenvalues --   -0.72551  -0.72363  -0.71860  -0.71079  -0.68427
 Alpha  occ. eigenvalues --   -0.66761  -0.64150  -0.63895  -0.63289  -0.62107
 Alpha  occ. eigenvalues --   -0.60779  -0.59394  -0.58810  -0.58300  -0.57547
 Alpha  occ. eigenvalues --   -0.56728  -0.56320  -0.56202  -0.56105  -0.55783
 Alpha  occ. eigenvalues --   -0.55705  -0.54909  -0.53745  -0.53444  -0.52990
 Alpha  occ. eigenvalues --   -0.52726  -0.51680  -0.50910  -0.49729  -0.49400
 Alpha  occ. eigenvalues --   -0.48470  -0.48065  -0.47693  -0.46878  -0.45597
 Alpha  occ. eigenvalues --   -0.44829  -0.44740  -0.44147  -0.43231  -0.42194
 Alpha  occ. eigenvalues --   -0.40169  -0.39036  -0.36787  -0.36306  -0.35629
 Alpha  occ. eigenvalues --   -0.35568  -0.34987  -0.29394
 Alpha virt. eigenvalues --   -0.03173  -0.00071   0.00904   0.01636   0.02879
 Alpha virt. eigenvalues --    0.03997   0.04798   0.05547   0.05609   0.06048
 Alpha virt. eigenvalues --    0.06330   0.07374   0.07679   0.07848   0.08404
 Alpha virt. eigenvalues --    0.08566   0.08782   0.09078   0.09535   0.09633
 Alpha virt. eigenvalues --    0.09909   0.10195   0.10545   0.10760   0.10890
 Alpha virt. eigenvalues --    0.11313   0.11769   0.12073   0.12543   0.12828
 Alpha virt. eigenvalues --    0.12995   0.13392   0.13885   0.13977   0.14336
 Alpha virt. eigenvalues --    0.14795   0.15111   0.15439   0.15574   0.16057
 Alpha virt. eigenvalues --    0.16304   0.16434   0.16759   0.17134   0.17321
 Alpha virt. eigenvalues --    0.17874   0.18085   0.18403   0.18652   0.18702
 Alpha virt. eigenvalues --    0.19028   0.19366   0.19589   0.19912   0.20296
 Alpha virt. eigenvalues --    0.20342   0.20793   0.20992   0.21177   0.21351
 Alpha virt. eigenvalues --    0.21661   0.21766   0.22172   0.22404   0.22723
 Alpha virt. eigenvalues --    0.22850   0.22961   0.23411   0.23929   0.23960
 Alpha virt. eigenvalues --    0.24272   0.24422   0.24523   0.25072   0.25280
 Alpha virt. eigenvalues --    0.25307   0.25662   0.25832   0.26154   0.26413
 Alpha virt. eigenvalues --    0.26711   0.26970   0.26985   0.27152   0.27580
 Alpha virt. eigenvalues --    0.27665   0.27913   0.28315   0.28627   0.28689
 Alpha virt. eigenvalues --    0.28733   0.29179   0.29500   0.29756   0.29939
 Alpha virt. eigenvalues --    0.30353   0.30643   0.30745   0.31004   0.31259
 Alpha virt. eigenvalues --    0.31477   0.31579   0.31853   0.32303   0.32369
 Alpha virt. eigenvalues --    0.32589   0.33037   0.33245   0.33346   0.33639
 Alpha virt. eigenvalues --    0.33873   0.34405   0.34675   0.34914   0.35113
 Alpha virt. eigenvalues --    0.35488   0.35805   0.35907   0.36227   0.36837
 Alpha virt. eigenvalues --    0.36871   0.37066   0.37377   0.37619   0.37886
 Alpha virt. eigenvalues --    0.38131   0.38532   0.38700   0.38916   0.39277
 Alpha virt. eigenvalues --    0.39434   0.39839   0.40314   0.40908   0.41352
 Alpha virt. eigenvalues --    0.41564   0.41678   0.42171   0.42637   0.43276
 Alpha virt. eigenvalues --    0.43343   0.43550   0.44059   0.44522   0.45028
 Alpha virt. eigenvalues --    0.45590   0.46035   0.46213   0.46516   0.47196
 Alpha virt. eigenvalues --    0.47888   0.48666   0.48710   0.49110   0.50470
 Alpha virt. eigenvalues --    0.51449   0.51822   0.52190   0.53161   0.55636
 Alpha virt. eigenvalues --    0.56936   0.58035   0.58938   0.60225   0.61723
 Alpha virt. eigenvalues --    0.63007   0.64657   0.65290   0.66382   0.66899
 Alpha virt. eigenvalues --    0.68260   0.71559   0.72498   0.73672   0.74220
 Alpha virt. eigenvalues --    0.76193   0.76854   0.77008   0.77714   0.78491
 Alpha virt. eigenvalues --    0.78618   0.79148   0.79778   0.80140   0.80960
 Alpha virt. eigenvalues --    0.81174   0.81841   0.82563   0.82942   0.83244
 Alpha virt. eigenvalues --    0.84104   0.84317   0.84739   0.85323   0.85442
 Alpha virt. eigenvalues --    0.85870   0.86273   0.86780   0.87782   0.88128
 Alpha virt. eigenvalues --    0.88837   0.89479   0.89963   0.91041   0.91667
 Alpha virt. eigenvalues --    0.92339   0.92519   0.93656   0.93960   0.95285
 Alpha virt. eigenvalues --    0.95352   0.95729   0.96605   0.97045   0.97176
 Alpha virt. eigenvalues --    0.97990   0.98605   0.99460   1.00023   1.00361
 Alpha virt. eigenvalues --    1.00775   1.01178   1.01412   1.02389   1.02754
 Alpha virt. eigenvalues --    1.02886   1.03683   1.04022   1.04460   1.04788
 Alpha virt. eigenvalues --    1.05052   1.05206   1.05664   1.06205   1.06709
 Alpha virt. eigenvalues --    1.07057   1.07448   1.08304   1.08945   1.09822
 Alpha virt. eigenvalues --    1.10601   1.10840   1.11049   1.12048   1.12190
 Alpha virt. eigenvalues --    1.14364   1.14446   1.14963   1.15384   1.15493
 Alpha virt. eigenvalues --    1.16146   1.17546   1.17809   1.18772   1.20329
 Alpha virt. eigenvalues --    1.20848   1.21351   1.22199   1.22605   1.24032
 Alpha virt. eigenvalues --    1.24206   1.24678   1.25171   1.25623   1.26473
 Alpha virt. eigenvalues --    1.27129   1.27756   1.28222   1.28664   1.29417
 Alpha virt. eigenvalues --    1.29942   1.30767   1.31695   1.32012   1.32765
 Alpha virt. eigenvalues --    1.33899   1.34705   1.35611   1.36624   1.38486
 Alpha virt. eigenvalues --    1.39740   1.41408   1.42038   1.43730   1.44150
 Alpha virt. eigenvalues --    1.46000   1.46461   1.46828   1.48155   1.48747
 Alpha virt. eigenvalues --    1.50024   1.50151   1.50965   1.51109   1.51447
 Alpha virt. eigenvalues --    1.52039   1.52651   1.53231   1.53341   1.54351
 Alpha virt. eigenvalues --    1.54695   1.54855   1.55630   1.56412   1.56691
 Alpha virt. eigenvalues --    1.57128   1.58439   1.58865   1.59414   1.60295
 Alpha virt. eigenvalues --    1.60814   1.62280   1.63691   1.64505   1.65676
 Alpha virt. eigenvalues --    1.66402   1.67395   1.70137   1.71323   1.74463
 Alpha virt. eigenvalues --    1.74934   1.76721   1.80574   1.81047   1.82538
 Alpha virt. eigenvalues --    1.83888   1.86961   1.88025   1.89601   1.89882
 Alpha virt. eigenvalues --    1.91572   1.93418   1.93722   1.94589   1.96209
 Alpha virt. eigenvalues --    1.96657   1.98252   1.99268   1.99660   2.01690
 Alpha virt. eigenvalues --    2.04969   2.05492   2.05903   2.07559   2.08399
 Alpha virt. eigenvalues --    2.08931   2.09435   2.10770   2.11347   2.12424
 Alpha virt. eigenvalues --    2.13233   2.13890   2.15298   2.16525   2.17818
 Alpha virt. eigenvalues --    2.19574   2.20243   2.21040   2.21272   2.22060
 Alpha virt. eigenvalues --    2.22601   2.22839   2.23035   2.23696   2.24067
 Alpha virt. eigenvalues --    2.24433   2.25698   2.26392   2.26435   2.27091
 Alpha virt. eigenvalues --    2.27572   2.28964   2.29428   2.30073   2.31412
 Alpha virt. eigenvalues --    2.31913   2.32916   2.35390   2.35859   2.36316
 Alpha virt. eigenvalues --    2.36810   2.36931   2.37459   2.38651   2.39923
 Alpha virt. eigenvalues --    2.40305   2.40977   2.43466   2.44126   2.44775
 Alpha virt. eigenvalues --    2.45124   2.46070   2.52672   2.54102   2.62477
 Alpha virt. eigenvalues --    2.63150   2.65132   2.67185   2.67972   2.69970
 Alpha virt. eigenvalues --    2.70656   2.70832   2.71567   2.72295   2.72400
 Alpha virt. eigenvalues --    2.74137   2.74537   2.75554   2.76436   2.79542
 Alpha virt. eigenvalues --    2.79599   2.80261   2.81797   2.81990   2.83250
 Alpha virt. eigenvalues --    2.84869   2.85547   2.86107   2.86899   2.87955
 Alpha virt. eigenvalues --    2.88761   2.91089   2.92250   2.93325   2.93704
 Alpha virt. eigenvalues --    2.95669   2.96496   3.03651   3.10822   3.13659
 Alpha virt. eigenvalues --    3.14189   3.15524   3.36732   3.44525   3.46940
 Alpha virt. eigenvalues --    3.50658   3.71010   4.28295   4.35007   4.36501
 Alpha virt. eigenvalues --    4.36908   4.40320   4.40669   4.42762   4.44375
 Alpha virt. eigenvalues --    4.45766   4.46299   4.47231   4.48174   4.49665
 Alpha virt. eigenvalues --    4.52519   4.52878   4.55590   4.57304   4.58357
 Alpha virt. eigenvalues --    4.59365   4.61801   4.69433   4.77368   4.78518
 Alpha virt. eigenvalues --    4.79010   4.85188   4.89667
          Condensed to atoms (all electrons):
               1          2          3          4          5          6
     1  C   13.685501  -5.801062  -0.108292  -0.813418   1.258404   0.325101
     2  C   -5.801062  25.727365  -3.633596 -10.236241  -2.457227  -0.077508
     3  C   -0.108292  -3.633596  26.005354  -7.440789  -2.053335   0.056657
     4  C   -0.813418 -10.236241  -7.440789  25.107820  -2.997121   0.016820
     5  C    1.258404  -2.457227  -2.053335  -2.997121  13.794463  -0.007535
     6  H    0.325101  -0.077508   0.056657   0.016820  -0.007535   0.429804
     7  H   -0.042396   0.290666   0.024013   0.005917  -0.002407  -0.002954
     8  H   -0.001842  -0.011532  -0.011694   0.350172  -0.085378   0.000012
     9  H   -0.011243   0.010792   0.055092  -0.020604   0.279853  -0.000102
    10  P   -3.356833   2.034246  -3.087134   0.719016  -3.461700   0.006667
    11  C    0.871235   1.773801  -0.638110  -1.560368   0.329270  -0.000930
    12  C   -0.013258   1.398958   0.338182  -1.713699  -0.402205  -0.000141
    13  C   -0.240582  -1.780918  -0.360468   1.714707   0.860337   0.000310
    14  C    0.003781  -0.159313   0.091288   0.150876   0.157190   0.000001
    15  H   -0.000217  -0.003255  -0.018515   0.015327   0.002050  -0.000000
    16  C    0.191507  -0.168495   0.405946  -0.150527  -0.015696   0.000134
    17  H   -0.013763  -0.019116  -0.006296   0.029821   0.000185  -0.000002
    18  H    0.000007  -0.000188  -0.001778   0.001477  -0.000165   0.000000
    19  H    0.000998   0.002149   0.001217  -0.003210   0.000126   0.000000
    20  C    0.038153   0.708832   1.250226  -1.158217  -0.246942  -0.000357
    21  C    0.742188  -1.167827  -2.562747   0.810655  -0.470088   0.002079
    22  C   -0.547422   0.711450   2.419481  -0.617138   0.861595  -0.001299
    23  C    0.118703   0.446484  -0.170972  -0.259542  -0.069964  -0.000148
    24  H    0.000959   0.003875  -0.011531  -0.001881  -0.000080  -0.000000
    25  C    0.123413  -0.159359  -0.895610   0.600715   0.393464  -0.001531
    26  H   -0.008519   0.048243   0.020757  -0.050609  -0.019297  -0.000002
    27  C   -0.040857  -0.129743  -0.081448   0.118386   0.014188   0.000153
    28  H   -0.000321  -0.001083   0.000405  -0.000038  -0.000011  -0.000000
    29  H   -0.002012  -0.004170   0.000858   0.002739  -0.000257   0.000000
    30  H    0.000294   0.000542   0.000092  -0.000160   0.000024  -0.000000
    31  C   -0.349784   0.708197  -1.738931   0.624231   0.255084  -0.005661
    32  H    0.019087  -0.014268  -0.004968  -0.032494   0.040902  -0.002799
    33  O    0.048192   0.311359   0.615894  -0.652735  -0.185386   0.000029
    34  C    0.809212  -2.145723  -2.918021   2.931201   0.630654  -0.002313
    35  C    0.303784  -0.560272   0.377665   0.885093   0.288880  -0.000125
    36  C   -0.422956   0.537766  -0.587688  -0.383901  -0.405923   0.001534
    37  C   -0.038117  -0.098702   0.221515  -0.028902   0.035159  -0.000008
    38  H   -0.000000  -0.001387   0.007184   0.001361   0.000298  -0.000000
    39  C   -0.118546   0.118837  -0.044206  -0.097623   0.013323   0.000462
    40  H    0.002953  -0.050771   0.055389   0.017112  -0.004479  -0.000010
    41  H   -0.000003   0.000175   0.000275  -0.000318  -0.000022  -0.000000
    42  H    0.000030   0.001478  -0.001073  -0.000262  -0.000036  -0.000000
    43  N    0.002866  -0.020091  -0.039371   0.033557   0.002222  -0.000001
    44  C   -0.007171  -0.058800   0.098139   0.068613   0.128509   0.000003
    45  H    0.000237   0.003146   0.001501  -0.005688  -0.002052   0.000000
    46  H   -0.000163  -0.000744   0.005132  -0.004718  -0.001007   0.000000
    47  H   -0.000728  -0.002372  -0.004356   0.012740   0.004344  -0.000000
    48  N    0.002084   0.034598  -0.013021  -0.025572  -0.006787   0.000000
    49  H   -0.000073   0.000019   0.000528  -0.000642   0.000115   0.000000
    50  H    0.000023   0.000289  -0.000106  -0.000127  -0.000003   0.000000
               7          8          9         10         11         12
     1  C   -0.042396  -0.001842  -0.011243  -3.356833   0.871235  -0.013258
     2  C    0.290666  -0.011532   0.010792   2.034246   1.773801   1.398958
     3  C    0.024013  -0.011694   0.055092  -3.087134  -0.638110   0.338182
     4  C    0.005917   0.350172  -0.020604   0.719016  -1.560368  -1.713699
     5  C   -0.002407  -0.085378   0.279853  -3.461700   0.329270  -0.402205
     6  H   -0.002954   0.000012  -0.000102   0.006667  -0.000930  -0.000141
     7  H    0.431628  -0.000105   0.000012  -0.009164  -0.006745  -0.000895
     8  H   -0.000105   0.436102  -0.002891   0.054002   0.012919  -0.014778
     9  H    0.000012  -0.002891   0.432875   0.004813  -0.001339  -0.000454
    10  P   -0.009164   0.054002   0.004813  39.889163  -7.595478   1.209433
    11  C   -0.006745   0.012919  -0.001339  -7.595478  18.428470  -2.892213
    12  C   -0.000895  -0.014778  -0.000454   1.209433  -2.892213  14.667586
    13  C    0.007606  -0.013742   0.002612  -0.143403  -3.844463  -3.013971
    14  C    0.000106   0.001172   0.000182  -0.531202   1.186162  -2.708257
    15  H    0.000000   0.000011   0.000000   0.020414  -0.013485   0.248079
    16  C    0.000706   0.003599  -0.000625  -1.103467   1.652215  -1.074797
    17  H    0.000023  -0.000003   0.000001   0.002125  -0.053028  -0.012962
    18  H   -0.000000  -0.000001   0.000000   0.004810   0.069165  -0.091664
    19  H    0.000000  -0.000000  -0.000000  -0.003175   0.063527   0.006778
    20  C    0.055508  -0.019967  -0.002233  -4.172006   0.374912   0.133648
    21  C   -0.049931  -0.010935  -0.000355   5.513838   0.205085  -0.028501
    22  C    0.039215   0.028086   0.001711  -4.929191  -0.205658  -0.066245
    23  C   -0.000575  -0.000989   0.000003   0.741469   0.323740  -0.017306
    24  H   -0.000005  -0.000000  -0.000000   0.112953   0.001451  -0.003008
    25  C   -0.010355   0.001480  -0.000050  -1.899153   0.152288  -0.007204
    26  H   -0.000047   0.000012  -0.000002   0.083562   0.001512   0.001061
    27  C   -0.001488   0.000337  -0.000001   0.307613  -0.030942  -0.002484
    28  H   -0.000000  -0.000000  -0.000000   0.015884  -0.000172   0.000058
    29  H   -0.000001   0.000000  -0.000000   0.008956  -0.000144  -0.000013
    30  H    0.000000   0.000000   0.000000  -0.007613   0.000035  -0.000000
    31  C   -0.006276   0.003190  -0.003689   0.826185  -0.225929  -0.042233
    32  H   -0.000110  -0.000110  -0.002881  -0.002728   0.000229   0.000140
    33  O    0.001415   0.013777   0.000129   0.161247  -0.093707  -0.043989
    34  C   -0.011299  -0.005822  -0.003166  -3.344153  -1.956879  -0.441719
    35  C    0.000385   0.002303  -0.000137  -4.179317   1.067700   1.363013
    36  C   -0.003488  -0.002114   0.000398   2.212311  -3.145308  -1.525941
    37  C   -0.001445  -0.000008  -0.000000  -0.612620   0.216891  -0.199259
    38  H   -0.000000  -0.000002  -0.000000   0.046351  -0.024885  -0.002554
    39  C    0.007662  -0.000311   0.000030   0.594288   0.987610   0.322153
    40  H    0.000907  -0.000003  -0.000000   0.072900  -0.062376   0.000193
[...]
 1606,0.00000630,0.00000661,-0.00001853,0.00000205,-0.00000260,-0.00000
 644,0.00000027,-0.00000046,-0.00000086,-0.00001339,0.00000945,0.000003
 15,-0.00000151,0.00000324,0.02497261,0.00548569,0.00937518,-0.00013548
 ,-0.00015133,0.00048583,-0.00011730,-0.00015362,0.00004962,0.00015074,
 0.00023348,0.00005183,-0.00005276,0.00011908,0.00008060,0.00003631,0.0
 0000452,-0.00009804,-0.00001158,-0.00023738,0.00013621,-0.00001840,-0.
 00000238,0.00000617,-0.00000934,0.00001491,0.00000753,-0.00002562,0.00
 002113,-0.00000149,0.00006150,0.00011237,-0.00018050,-0.11800851,-0.10
 995938,-0.00360302,0.00347824,0.00250391,-0.00055939,-0.02725324,-0.00
 899632,0.00096063,0.11524555,0.10993770,-0.00001686,0.00002448,-0.0000
 1060,0.00002216,-0.00005078,0.00008336,0.00003797,0.00000625,0.0001529
 0,-0.00000325,0.00001106,-0.00001492,0.00000439,-0.00001018,-0.0000052
 4,-0.00000404,0.00000109,-0.00000318,0.00000083,-0.00000453,-0.0000045
 2,0.00002218,-0.00005712,-0.00003192,-0.00000412,0.00000501,-0.0000006
 8,-0.00405053,-0.00116871,0.00379181,0.00023129,-0.00008461,0.00000335
 ,-0.00002447,0.00000289,0.00005568,-0.00002033,0.00003077,0.00002090,0
 .00002992,-0.00003794,0.00000351,-0.00005721,0.00001440,-0.00007919,0.
 00000624,-0.00000834,-0.00002073,0.00000301,0.00000003,0.00000130,-0.0
 0000446,0.00000538,-0.00000235,-0.00000483,-0.00000089,0.00000135,-0.0
 0006294,0.00033322,-0.00145717,0.00002543,-0.00001069,0.00005359,0.000
 18342,0.00002423,-0.00009608,-0.00001342,-0.00002567,-0.00000438,-0.00
 002390,0.00001577,0.00003463,0.00005308,0.00001492,-0.00000887,-0.0000
 2088,0.00000250,0.00003347,-0.00000146,0.00002464,0.00002363,0.0000042
 0,0.00000457,-0.00001355,0.00000608,-0.00000585,0.00000322,-0.00000194
 ,0.00000158,0.00000681,0.00001009,0.00000866,-0.00002189,-0.00000018,0
 .00000280,-0.00000342,-0.02685628,-0.00116286,-0.01063954,0.00036916,0
 .00013971,-0.00070355,0.00000045,0.00000221,0.00004933,-0.00016952,-0.
 00025871,-0.00008423,-0.00004106,0.00006390,0.00012994,0.00002899,0.00
 002845,-0.00002695,-0.00000242,0.00017301,-0.00012627,0.00001818,0.000
 00662,-0.00001222,0.00000275,-0.00000914,-0.00000232,0.00002629,-0.000
 02333,-0.00000598,-0.00000305,-0.00014300,-0.00006382,0.00618958,-0.00
 161351,-0.05254825,0.02544412,0.01316017,0.00423131,-0.00933306,-0.005
 34438,0.00162882,0.00801698,-0.00414390,0.05568949,0.00007577,-0.00006
 416,0.00000358,-0.00001411,0.00012868,-0.00029800,-0.00027202,-0.00015
 956,0.00001796,0.00007010,0.00019532,0.00023644,-0.00003731,-0.0000566
 8,0.00004819,0.00000242,-0.00002382,0.00002231,-0.00000330,0.00001067,
 -0.00001129,0.00003668,0.00003870,0.00002498,0.00002528,-0.00002316,-0
 .00000224,0.00147492,0.00217711,0.00201656,0.00280785,-0.00739683,0.00
 031544,-0.02027038,0.02865799,-0.02515237,-0.02544086,0.01388607,0.034
 75611,-0.16165474,0.09140368,-0.07501155,-0.00196043,0.00636074,0.0033
 1750,-0.16865476,0.03403895,0.12237838,-0.00170456,0.00705519,0.000388
 34,0.01078970,-0.00986333,0.01265856,0.01061291,-0.00118234,-0.0139428
 1,-0.00042264,-0.00087218,-0.00054172,0.00003967,-0.00017391,-0.000033
 56,-0.00027588,0.00039834,0.00001967,-0.00005444,-0.00000772,0.0000345
 6,0.00017178,-0.00001673,0.00000431,-0.00010396,-0.00008701,0.00009155
 ,0.00001981,0.00001646,-0.00002481,-0.00004631,-0.00000692,0.00000019,
 -0.00002552,0.00001738,0.00000866,-0.00005723,0.00000762,0.00001740,-0
 .00001945,0.00000616,-0.00000578,0.00002237,-0.00004728,-0.00001640,0.
 00000076,-0.00001827,0.00000733,-0.00032533,-0.00012611,-0.00108529,-0
 .00056961,-0.00066576,-0.00090299,-0.00103131,0.00039805,0.00081309,-0
 .00068384,0.00069017,-0.00028624,-0.00019098,-0.00027525,-0.00126060,0
 .00014811,-0.00002809,0.00010183,-0.00036803,-0.00103557,0.00029386,0.
 00019504,0.00003510,0.00000105,0.00007801,0.00011639,0.00008638,-0.000
 00012,0.00009645,0.00005576,0.00007818,0.00091733,0.00054452,0.0003007
 2,-0.00027903,0.00035111,-0.00002920,0.00003221,-0.00004624,-0.0000304
 8,0.00004454,-0.00000858,-0.00005204,0.00003255,-0.00003282,0.67646320
 ,-0.00013312,0.00022269,-0.00000245,-0.00007840,-0.00012110,0.00026196
 ,0.00025935,0.00012531,0.00004583,0.00010567,0.00000678,-0.00015923,-0
 .00009892,-0.00014616,0.00013495,-0.00001361,0.00001253,-0.00000894,0.
 00000683,-0.00000241,0.00000444,0.00006481,-0.00003582,0.00000506,0.00
 002357,0.00006370,0.00001512,-0.00143450,-0.00136207,-0.00092940,-0.00
 849334,-0.01139500,0.02292073,0.04443307,-0.02262355,0.00533592,-0.000
 63240,0.01892208,-0.02537461,0.07162105,-0.15739545,0.12330415,0.00673
 891,0.00408661,-0.00022606,0.05350358,-0.10338966,-0.00307578,0.006838
 73,0.00327954,0.00149928,0.00032424,0.00268067,-0.00091500,-0.01125337
 ,0.00464526,0.01827029,0.00027844,0.00052530,0.00033619,-0.00003706,0.
 00013172,0.00002363,0.00016070,-0.00026561,-0.00004486,0.00005564,0.00
 001341,-0.00002455,-0.00011365,0.00000292,-0.00000051,0.00005671,0.000
 06089,-0.00004043,-0.00000755,-0.00000412,0.00001833,0.00002466,-0.000
 01192,-0.00000562,0.00001450,-0.00001131,-0.00000632,0.00003656,-0.000
 00528,-0.00001008,0.00001175,-0.00000373,0.00000373,0.00012039,0.00003
 000,-0.00024739,0.00000903,0.00001422,-0.00000613,0.00051691,0.0001175
 6,0.00066100,-0.00008968,-0.00043367,0.00031094,0.00102438,-0.00047263
 ,-0.00063826,0.00018758,-0.00035641,0.00011628,0.00007100,0.00031265,0
 .00107293,-0.00018484,0.00013337,-0.00002286,0.00016824,0.00023229,-0.
 00018015,-0.00006076,-0.00007122,-0.00002620,-0.00010882,-0.00007320,-
 0.00006097,-0.00000648,-0.00007015,-0.00004062,0.00005947,-0.00037903,
 -0.00068494,-0.00017803,0.00021154,-0.00030064,0.00001100,-0.00002665,
 0.00003251,0.00002705,-0.00003572,0.00001267,0.00005360,-0.00003660,0.
 00004144,-0.35175811,0.42000586,0.00008705,-0.00024820,-0.00003390,0.0
 0021937,0.00001758,0.00027213,0.00044549,0.00030236,0.00006173,0.00027
 299,-0.00009509,-0.00011029,0.00007744,0.00017085,-0.00014134,0.000007
 70,0.00001011,-0.00000975,-0.00004045,-0.00000799,-0.00000734,0.000012
 74,0.00005964,0.00000993,0.00000266,0.00001990,0.00000575,0.00077659,0
 .00012093,-0.00076175,-0.00008426,0.02219834,-0.08166490,-0.07161751,0
 .03849920,0.04823852,0.08174702,-0.05905918,0.01260182,-0.01291580,0.0
 8035183,-0.28133113,0.00212542,0.00022418,0.00201570,0.05959028,0.0397
 7945,-0.32685111,0.00157047,0.00115285,0.00274592,-0.01875796,0.021148
 13,-0.02210430,0.01757167,-0.00383635,-0.02370296,-0.00001709,0.000093
 20,0.00001705,0.00001051,-0.00001574,0.00000569,0.00006814,0.00001814,
 0.00000349,-0.00002240,-0.00000862,0.00000130,0.00000694,0.00000742,-0
 .00000708,0.00001571,-0.00001095,-0.00000689,0.00000486,-0.00002674,0.
 00000175,0.00000768,0.00001756,-0.00000245,0.00000134,-0.00000151,0.00
 000207,0.00000294,-0.00000029,-0.00000399,0.00000121,-0.00000164,0.000
 00123,-0.00018735,0.00005469,0.00021255,0.00001056,0.00002040,0.000005
 84,-0.00025165,-0.00002406,0.00033688,-0.00115582,0.00007176,-0.000005
 20,-0.00051775,0.00052033,0.00011144,0.00082520,0.00004082,0.00000924,
 -0.00006654,-0.00041713,-0.00051431,0.00013686,-0.00026045,0.00014512,
 0.00010637,0.00106548,0.00000654,-0.00017963,0.00002418,0.00012157,0.0
 0006129,-0.00003610,-0.00001382,-0.00007620,0.00001883,-0.00001059,-0.
 00019892,-0.00064120,0.00078153,-0.00005021,0.00003841,0.00010089,0.00
 001606,-0.00000307,0.00000487,-0.00001269,0.00000293,-0.00001828,-0.00
 000720,0.00000953,-0.00001229,-0.10908578,-0.12218350,0.75059421,-0.00
 001326,-0.00000644,-0.00000211,0.00002416,-0.00000476,0.00006054,0.000
 05796,0.00003242,0.00000687,0.00003661,-0.00004332,-0.00002172,0.00002
 245,0.00001082,-0.00001715,-0.00000153,0.00000415,-0.00000728,0.000000
 35,-0.00000351,-0.00000094,-0.00001171,-0.00000677,-0.00001335,-0.0000
 0952,-0.00000589,-0.00000659,-0.00041593,-0.00024842,-0.00029906,-0.00
 026131,-0.00049038,-0.00010597,0.00425996,0.00243602,-0.00083298,0.003
 97724,0.00155823,0.00250167,-0.00614661,0.00422876,-0.00017710,0.00016
 412,0.00017084,0.00027381,-0.00758186,0.00448913,0.00207344,0.00010673
 ,0.00032907,-0.00014115,-0.00045178,-0.00226698,-0.00044251,-0.0004621
 0,-0.00209392,-0.00093992,0.00007530,0.00011545,0.00008252,-0.00000624
 ,0.00003120,0.00000659,0.00003781,-0.00006401,-0.00000360,0.00001292,0
 .00000210,-0.00000873,-0.00003137,0.00000162,0.00000022,0.00001657,0.0
 0001141,-0.00001742,-0.00000502,-0.00000408,0.00000290,0.00000821,-0.0
 0000126,0.00000105,0.00000474,-0.00000338,-0.00000156,0.00000938,-0.00
 000085,-0.00000246,0.00000361,-0.00000117,0.00000089,0.00000843,0.0000
 0947,0.00001579,-0.00000207,0.00000343,-0.00000134,0.00012129,-0.00001
 911,0.00020295,-0.00048730,-0.00025973,-0.00001461,0.00020755,-0.00006
 863,-0.00012872,0.00008688,-0.00010261,0.00003744,0.00000612,0.0000404
 7,0.00029881,-0.00002300,-0.00000647,0.00001275,0.00004529,0.00016921,
 -0.00009607,-0.00001094,0.00000914,-0.00001550,-0.00002407,-0.00002434
 ,-0.00002059,-0.00000459,-0.00002343,-0.00001251,0.00002274,-0.0001449
 9,-0.00012340,-0.00005503,0.00006336,-0.00007897,0.00000415,-0.0000054
 1,0.00000899,0.00000669,-0.00001078,0.00000310,0.00001359,-0.00000816,
 0.00000969,-0.31913905,0.18788010,0.04944890,0.32580447,0.00001805,-0.
 00001772,0.00000669,-0.00000453,0.00000841,-0.00006493,-0.00002833,-0.
 00005045,0.00000171,-0.00001973,0.00002099,0.00002090,0.00003131,0.000
 02319,0.00001175,0.00000155,-0.00000248,0.00000230,0.00000111,0.000000
 55,-0.00000146,-0.00001121,0.00000315,0.00000224,-0.00000848,-0.000015
 93,-0.00001243,0.00013795,0.00038715,0.00032193,-0.00011181,-0.0007059
 2,0.00059684,0.00241934,0.00397060,0.00412271,0.00088749,0.00588267,0.
 00184081,0.01288708,-0.00802394,-0.00273553,0.00062804,0.00010595,-0.0
 0019442,-0.00327987,0.00308033,-0.00188687,-0.00001308,0.00042441,0.00
 018148,-0.00220746,-0.00201290,-0.00100905,-0.00225061,-0.00209989,-0.
 00061353,-0.00008008,-0.00016118,-0.00010027,0.00000996,-0.00002926,-0
 .00000395,-0.00004499,0.00006547,0.00001495,-0.00000734,-0.00000065,0.
 00000442,0.00002483,-0.00000321,0.00000103,-0.00001907,-0.00001655,0.0
 0000771,0.00000230,0.00000131,-0.00000430,-0.00000639,-0.00000072,0.00
 000218,-0.00000357,0.00000256,0.00000101,-0.00000969,0.00000144,0.0000
 0272,-0.00000273,0.00000101,-0.00000045,-0.00000748,-0.00000744,0.0000
 1710,-0.00000575,-0.00000677,0.00000385,-0.00002821,-0.00002869,-0.000
 18047,-0.00056918,-0.00070861,-0.00034342,-0.00009254,0.00004215,0.000
 12941,-0.00010436,0.00008914,-0.00003765,-0.00001955,-0.00002271,-0.00
 012647,0.00002523,-0.00000515,0.00000338,-0.00004646,-0.00014352,0.000
 03298,0.00003581,0.00000312,-0.00000549,0.00000650,0.00001182,0.000005
 73,0.00000702,0.00000938,0.00000788,0.00001170,0.00012055,0.00004691,0
 .00003745,-0.00004108,0.00004724,-0.00000440,0.00000630,-0.00000601,-0
 .00000479,0.00000596,-0.00000084,-0.00000918,0.00000572,-0.00000389,0.
 18752660,-0.15720110,-0.01918257,-0.19570456,0.15704817,0.00000726,-0.
 00001652,-0.00000430,-0.00000087,-0.00000027,-0.00001114,-0.00000323,0
 .00000064,0.00000103,0.00001751,-0.00000058,0.00000795,0.00000073,0.00
 001588,-0.00000319,0.00000291,-0.00000028,-0.00000028,-0.00000199,0.,-
 0.00000048,-0.00000929,0.00000413,0.00000412,-0.00000180,-0.00000714,0
 .00000095,0.00009635,0.00012576,0.00004911,0.00005046,0.00056480,-0.00
 249158,-0.00192161,0.00465091,-0.00311053,0.00337280,0.00130624,-0.004
 72637,-0.02582158,0.01515228,0.00958322,-0.00096964,0.00067830,0.00044
 016,0.02817466,-0.01972002,0.00003071,0.00111416,-0.00065862,0.0001865
 3,-0.00074038,-0.00076338,0.00011650,-0.00067613,-0.00085282,0.0001965
 8,-0.00002739,-0.00004622,-0.00003660,0.00000342,-0.00000989,0.0000045
 4,-0.00000996,0.00002195,0.00000810,-0.00000354,0.00000026,-0.00000263
 ,0.00000814,-0.00000066,0.00000017,-0.00000703,-0.00000539,0.00000032,
 0.00000094,-0.00000041,-0.00000108,-0.00000179,0.00000009,0.00000283,-
 0.00000114,0.00000075,0.00000067,-0.00000294,0.00000048,0.00000105,-0.
 00000070,0.00000018,0.00000018,-0.00001187,-0.00000698,0.00001391,0.00
 000017,0.00000245,0.00000138,-0.00005625,-0.00001500,-0.00006199,-0.00
 020872,-0.00027430,0.00003769,-0.00003808,0.00005901,0.00001393,0.0000
 1807,0.00002198,-0.00003699,-0.00001009,-0.00005457,-0.00007995,0.0000
 2191,-0.00003072,0.00003119,0.00000011,0.00004434,0.00002624,-0.000014
 72,-0.00001719,0.00002635,0.00000006,0.00000273,0.00000158,0.00000590,
 0.00000364,0.00000364,-0.00001293,-0.00001190,0.00009046,0.00001409,-0
 .00001656,0.00003057,-0.00000093,0.00000286,-0.00000270,-0.00000191,0.
 00000283,-0.00000180,-0.00000543,0.00000391,-0.00000426,0.04918007,-0.
 01923488,-0.08115031,-0.05152716,0.01908377,0.08081044,-0.00002983,0.0
 0003581,0.00000140,-0.00000558,-0.00002157,-0.00003210,0.00010063,-0.0
 0002743,-0.00000688,-0.00003266,0.00002747,-0.00000444,-0.00000205,-0.
 00002565,0.00001900,-0.00000100,0.00000185,-0.00000159,0.00001611,0.00
 001882,0.00001603,0.00000233,-0.00000083,0.00000059,0.00000386,0.00000
 403,0.00000256,0.00020742,0.00028015,0.00019079,0.00032472,-0.00007291
 ,-0.00001886,0.00003846,-0.00003847,0.00005669,0.00001774,-0.00002208,
 -0.00007328,-0.00003815,0.00000262,-0.00002362,-0.00000840,0.00003156,
 0.00000480,-0.00001622,-0.00000056,-0.00000812,-0.00003631,0.00002081,
 -0.00001162,0.00000167,-0.00000665,0.00000044,0.00000810,0.00000389,-0
 .00000031,0.00000653,0.00002687,0.00001250,-0.00000848,0.00002035,0.00
 004818,0.00002432,0.00000381,-0.00000540,0.00002513,-0.00000383,-0.000
 00791,0.00011446,-0.00001429,-0.00004121,-0.00000938,0.00001644,0.0000
 0490,-0.00000223,0.00000056,-0.00000532,-0.00001103,-0.00001637,0.0000
 0508,-0.00001973,0.00000061,-0.00000328,0.00000294,0.00000230,0.000000
 28,0.00000033,-0.00000229,-0.00000117,0.00000733,0.00000047,-0.0000341
 5,0.00000299,0.00000296,0.00000096,-0.00000406,-0.00006798,0.00005315,
 -0.00086772,-0.00015446,-0.00007460,0.00202101,-0.00027348,0.00124800,
 0.00188647,-0.00079094,0.00107406,-0.00739996,0.00443190,-0.00067894,0
 .00182405,0.00021970,0.00031295,-0.00617071,-0.00562188,-0.00453561,0.
 00176647,-0.00025190,0.00029666,-0.00156963,-0.00014322,-0.00032029,-0
 .00148745,0.00004390,-0.00054425,-0.00561513,0.04557771,0.03561623,-0.
 00000343,-0.00000494,-0.00001485,-0.00000048,0.00000036,0.00000907,0.0
 0001037,0.00001982,0.00000298,0.00000607,0.00000559,0.00000655,0.00002
 461,-0.00000491,0.00001376,-0.00000103,0.00000606,-0.00000062,0.014896
 51,-0.00003403,0.00000346,-0.00001590,-0.00001592,0.00002683,0.0000537
 9,0.00021355,0.00015727,0.00011408,0.00001360,0.00002086,-0.00007979,-
 0.00002427,0.00000339,-0.00000454,-0.00000248,0.00000742,-0.00000696,0
 .00001387,-0.00000087,0.00000140,0.00000797,-0.00000249,0.00000378,-0.
 00000616,0.00001008,0.00000012,-0.00034819,-0.00003210,-0.00019756,0.0
 0012221,0.00024710,-0.00004897,-0.00014488,0.00009442,0.00001866,-0.00
 019562,0.00009081,0.00009498,0.00010149,-0.00009505,0.00004889,0.00003
 414,-0.00003146,-0.00004509,0.00006676,-0.00004486,-0.00008781,0.00003
 333,-0.00003003,-0.00001120,-0.00000972,0.00001723,-0.00000036,-0.0000
 1324,0.00001583,0.00000869,0.00006359,0.00007425,0.00006228,-0.0000393
 6,0.00000042,-0.00001363,0.00001877,-0.00006240,-0.00000068,0.00003367
 ,0.00003003,0.00000079,-0.00016558,-0.00001860,-0.00003246,0.00002265,
 0.00001198,-0.00000740,-0.00000467,0.00000225,-0.00000288,0.00001491,-
 0.00000590,-0.00000636,0.00000320,-0.00000287,-0.00000345,0.00001071,0
 .00000087,-0.00000178,0.00000769,0.00000173,0.00000046,-0.00000154,0.0
 0002414,-0.00000753,0.00000269,0.00000609,-0.00000008,0.00013850,-0.00
 003049,0.00035972,-0.00016611,-0.00021098,0.00013335,-0.00011296,0.002
 63203,0.00288721,-0.00092987,0.00027917,0.00433598,-0.00052489,0.00633
 524,0.00011902,0.00000548,0.00037164,0.00034085,0.00309329,-0.02043297
 ,-0.01233437,0.00013758,-0.00062791,-0.00057992,-0.00017361,0.00059953
 ,0.00019009,-0.00007171,0.00095096,-0.00003733,0.04220102,-0.39359651,
 -0.15371353,-0.00008196,0.00007191,-0.00009744,0.00001048,-0.00000591,
 0.00001998,0.00000690,0.00000796,0.00000085,0.00002220,-0.00000056,0.0
 0001825,-0.00012062,0.00009268,0.00000135,0.00002695,-0.00001563,-0.00
 000588,-0.04323979,0.40306002,-0.00002528,0.00000896,0.00000258,0.0000
 1366,-0.00003135,-0.00000983,0.00007303,0.00000042,-0.00002481,-0.0000
 0575,0.00000772,-0.00002249,-0.00000486,-0.00000658,0.00000921,-0.0000
 0205,0.00000394,-0.00000345,-0.00000110,0.00001268,0.00001918,0.000000
 28,-0.00000122,0.00000228,-0.00000081,0.00000447,0.00000147,-0.0001699
 1,0.00001181,-0.00013539,0.00002641,0.00002582,0.00026651,-0.00010386,
 0.00007676,-0.00004423,-0.00004250,0.00004465,-0.00000619,-0.00001722,
 -0.00002863,0.00004669,-0.00001738,0.00001517,0.00003946,0.00006896,-0
 .00002985,-0.00001636,0.00007292,-0.00007095,0.00002312,-0.00001034,0.
 00000596,-0.00000135,-0.00000357,0.00000835,0.00000466,0.00005272,0.00
 005842,0.00000779,-0.00003909,0.00001636,0.00004380,-0.00001287,-0.000
 04629,0.00000966,-0.00000608,-0.00000669,0.00000563,0.00000551,-0.0000
 0727,-0.00006083,0.00003041,-0.00000477,-0.00001063,-0.00000459,0.0000
 0112,-0.00000495,0.00000400,0.00001789,-0.00000069,-0.00000170,-0.0000
 0419,0.00000291,0.00000618,0.00000074,0.00000044,0.00000316,-0.0000004
 6,-0.00000155,0.00000224,0.00000941,-0.00001522,0.00000024,0.00000391,
 0.00000089,0.00011072,-0.00001140,0.00034492,-0.00007159,0.00009352,-0
 .00065164,0.00103769,0.00276328,-0.00507304,0.00128354,0.00453753,-0.0
 0262405,0.00197387,-0.03289653,-0.01101118,0.00034249,-0.00133357,-0.0
 0036411,-0.00518541,0.01996033,0.01471616,0.00028692,0.00108326,0.0006
 3323,-0.00041063,0.00024842,0.00077497,-0.00048712,-0.00007801,0.00031
 576,0.03380810,-0.15305904,-0.14346741,-0.00003001,0.00007592,-0.00001
 758,0.00001147,-0.00000893,0.00001322,0.00001028,-0.00000562,0.0000037
 0,0.00001316,-0.00000914,0.00000994,-0.00004662,0.00002300,0.00004919,
 0.00001156,-0.00000765,0.00000407,-0.03254918,0.15852830,0.14621553\\-
 0.00000209,0.00000181,0.00000436,-0.00000172,0.00000292,0.00000337,-0.
 00000237,-0.00000088,0.00000191,-0.00000286,-0.00000161,0.00000244,-0.
 00000473,-0.00000164,0.00000358,-0.00000146,0.00000335,0.00000493,-0.0
 0000008,0.00000347,0.00000317,-0.00000476,-0.00000273,0.00000184,-0.00
 000623,-0.00000330,0.00000416,-0.00000055,-0.00000081,0.00000301,0.000
 00008,-0.00000136,-0.00000219,-0.00000112,-0.00000529,-0.00000287,0.00
 000057,-0.00000214,-0.00000217,-0.00000159,-0.00000627,-0.00000307,-0.
 00000107,-0.00000464,-0.00000319,-0.00000065,-0.00000286,-0.00000219,0
 .00000175,0.,-0.00000156,-0.00000303,-0.00000765,-0.00000384,-0.000000
 20,-0.00000275,-0.00000222,0.00000181,0.00000558,0.00000204,0.00000175
 ,0.00000125,0.00000019,-0.00000017,0.00000275,0.00000340,0.00000252,0.
 00000448,0.00000149,0.00000209,0.00000253,-0.00000096,-0.00000021,0.00
 000511,0.00000506,-0.00000268,0.00000287,0.00000508,0.00000135,0.00000
 593,0.00000359,0.00000420,0.00000541,0.00000057,-0.00000075,0.00000585
 ,0.00000662,0.00000215,0.00000740,0.00000436,-0.00000408,0.00000045,0.
 00000474,-0.00000476,0.00000017,0.00000548,-0.00000195,-0.00000128,-0.
 00000165,0.00000184,-0.00000271,-0.00000404,0.00000236,0.00000028,-0.0
 0000451,0.00000327,0.00000232,-0.00000037,0.00000484,-0.00000115,-0.00
 000471,0.00000102,-0.00000356,-0.00000377,0.00000528,0.00000155,-0.000
 00361,0.00000294,0.00000201,-0.00000144,0.00000425,-0.00000119,-0.0000
 0632,0.00000611,0.00000407,-0.00000338,0.00000436,0.00000148,-0.000005
 51,-0.00000152,-0.00000289,0.00000086,-0.00000348,-0.00000435,-0.00000
 027,-0.00000100,-0.00000192,-0.00000140,-0.00000311,-0.00000097,0.0000
 0161,-0.00000170,-0.00000473,-0.00000363,-0.00000237,-0.00000646,-0.00
 000315,0.00000772,0.00000204,-0.00000587\\\@


 NOTHING MAKES A PERSON MORE PRODUCTIVE THAN THE LAST MINUTE.
 Job cpu time:       1 days  8 hours 29 minutes  3.3 seconds.
 Elapsed time:       0 days  1 hours 21 minutes 25.7 seconds.
 File lengths (MBytes):  RWF=   2320 Int=      0 D2E=      0 Chk=     56 Scr=     16
 Normal termination of Gaussian 16 at Tue Mar 27 00:59:50 2018.
