Job Start Time: Thu Mar 15 12:32:08 MDT 2018
SLURM Job ID: 695346
SLURM Job Name: Int3_1Ph1Pyr_SMD_b
 Entering Gaussian System, Link 0=/projects/user/g16/g16
 Initial command:
 /projects/user/g16/l1.exe "/gpfs/summit/scratch/user/695346/Gau-3347.inp" -scrdir="/gpfs/summit/scratch/user/695346/"
 Entering Link 1 = /projects/user/g16/l1.exe PID=      3348.
  
 Copyright (c) 1988,1990,1992,1993,1995,1998,2003,2009,2016,
            Gaussian, Inc.  All Rights Reserved.
  
 This is part of the Gaussian(R) 16 program.  It is based on
 the Gaussian(R) 09 system (copyright 2009, Gaussian, Inc.),
 the Gaussian(R) 03 system (copyright 2003, Gaussian, Inc.),
 the Gaussian(R) 98 system (copyright 1998, Gaussian, Inc.),
 the Gaussian(R) 94 system (copyright 1995, Gaussian, Inc.),
 the Gaussian 92(TM) system (copyright 1992, Gaussian, Inc.),
 the Gaussian 90(TM) system (copyright 1990, Gaussian, Inc.),
 the Gaussian 88(TM) system (copyright 1988, Gaussian, Inc.),
 the Gaussian 86(TM) system (copyright 1986, Carnegie Mellon
 University), and the Gaussian 82(TM) system (copyright 1983,
 Carnegie Mellon University). Gaussian is a federally registered
 trademark of Gaussian, Inc.
  
 This software contains proprietary and confidential information,
 including trade secrets, belonging to Gaussian, Inc.
  
 This software is provided under written license and may be
 used, copied, transmitted, or stored only in accord with that
 written license.
  
 The following legend is applicable only to US Government
 contracts under FAR:
  
                    RESTRICTED RIGHTS LEGEND
  
 Use, reproduction and disclosure by the US Government is
 subject to restrictions as set forth in subparagraphs (a)
 and (c) of the Commercial Computer Software - Restricted
 Rights clause in FAR 52.227-19.
  
 Gaussian, Inc.
 340 Quinnipiac St., Bldg. 40, Wallingford CT 06492
  
  
 ---------------------------------------------------------------
 Warning -- This program may not be used in any manner that
 competes with the business of Gaussian, Inc. or will provide
 assistance to any competitor of Gaussian, Inc.  The licensee
 of this program is prohibited from giving any competitor of
 Gaussian, Inc. access to this program.  By using this program,
 the user acknowledges that Gaussian, Inc. is engaged in the
 business of creating and licensing software in the field of
 computational chemistry and represents and warrants to the
 licensee that it is not a competitor of Gaussian, Inc. and that
 it will not use this program in any manner prohibited above.
 ---------------------------------------------------------------
  

 Cite this work as:
 Gaussian 16, Revision A.03,
 M. J. Frisch, G. W. Trucks, H. B. Schlegel, G. E. Scuseria, 
 M. A. Robb, J. R. Cheeseman, G. Scalmani, V. Barone, 
 G. A. Petersson, H. Nakatsuji, X. Li, M. Caricato, A. V. Marenich, 
 J. Bloino, B. G. Janesko, R. Gomperts, B. Mennucci, H. P. Hratchian, 
 J. V. Ortiz, A. F. Izmaylov, J. L. Sonnenberg, D. Williams-Young, 
 F. Ding, F. Lipparini, F. Egidi, J. Goings, B. Peng, A. Petrone, 
 T. Henderson, D. Ranasinghe, V. G. Zakrzewski, J. Gao, N. Rega, 
 G. Zheng, W. Liang, M. Hada, M. Ehara, K. Toyota, R. Fukuda, 
 J. Hasegawa, M. Ishida, T. Nakajima, Y. Honda, O. Kitao, H. Nakai, 
 T. Vreven, K. Throssell, J. A. Montgomery, Jr., J. E. Peralta, 
 F. Ogliaro, M. J. Bearpark, J. J. Heyd, E. N. Brothers, K. N. Kudin, 
 V. N. Staroverov, T. A. Keith, R. Kobayashi, J. Normand, 
 K. Raghavachari, A. P. Rendell, J. C. Burant, S. S. Iyengar, 
 J. Tomasi, M. Cossi, J. M. Millam, M. Klene, C. Adamo, R. Cammi, 
 J. W. Ochterski, R. L. Martin, K. Morokuma, O. Farkas, 
 J. B. Foresman, and D. J. Fox, Gaussian, Inc., Wallingford CT, 2016.
 
 ******************************************
 Gaussian 16:  ES64L-G16RevA.03 25-Dec-2016
                15-Mar-2018 
 ******************************************
 %mem=98GB
 %nprocshared=24
 Will use up to   24 processors via shared memory.
 %chk=Int3_SNdxdjuf.chk
 ----------------------------------------------------------------------
 # wb97xd/6-31+g(d) opt=(maxcycles=200) scrf=(solvent=ethanol,smd) freq
 =noraman geom=connectivity
 ----------------------------------------------------------------------
 1/6=200,18=20,19=15,26=3,38=1,57=2/1,3;
 2/9=110,12=2,17=6,18=5,40=1/2;
 3/5=1,6=6,7=11,11=2,25=1,30=1,70=32201,71=1,72=4,74=-58/1,2,3;
 4//1;
 5/5=2,38=5,53=4/2;
 6/7=2,8=2,9=2,10=2,28=1/1;
 7//1,2,3,16;
 1/6=200,18=20,19=15,26=3/3(2);
 2/9=110/2;
 99//99;
 2/9=110/2;
 3/5=1,6=6,7=11,11=2,25=1,30=1,70=32205,71=1,72=4,74=-58/1,2,3;
 4/5=5,16=3,69=1/1;
 5/5=2,38=5,53=4/2;
 7//1,2,3,16;
 1/6=200,18=20,19=15,26=3/3(-5);
 2/9=110/2;
 6/7=2,8=2,9=2,10=2,19=2,28=1/1;
 99/9=1/99;
 -------------------
 Title Card Required
 -------------------
 Symbolic Z-matrix:
 Charge =  2 Multiplicity = 1
 C                    -0.35052  -3.82417  -0.95937 
 C                     0.10528  -2.74042  -0.21349 
 C                    -0.3566   -1.45096  -0.49543 
 C                    -1.23525  -1.2532   -1.56429 
 C                    -1.65798  -2.33249  -2.33515 
 H                    -0.00056  -4.82446  -0.72384 
 H                     0.84412  -2.90265   0.5661 
 H                    -1.58219  -0.25153  -1.80688 
 H                    -2.3218   -2.1675   -3.17831 
 P                     0.22198   0.00147   0.46274 
 C                    -1.82895   0.30613   0.6407 
 C                    -2.59023   0.00639   1.78415 
 C                    -2.55347   0.71609  -0.49647 
 C                    -3.96587   0.08905   1.7687 
 H                    -2.09989  -0.29616   2.70114 
 C                    -3.92465   0.79179  -0.48566 
 H                    -2.03864   0.98128  -1.41526 
 H                    -4.59406  -0.13582   2.62282 
 H                    -4.52205   1.09753  -1.3363 
 C                     2.05625  -0.41357   0.33517 
 C                     2.51927  -1.69102   0.00036 
 C                     3.00903   0.5722    0.63751 
 C                     3.88509  -1.97503  -0.03523 
 H                     1.82253  -2.48753  -0.24154 
 C                     4.37068   0.29296   0.60705 
 H                     2.69006   1.57958   0.89594 
 C                     4.81366  -0.98542   0.26873 
 H                     4.21858  -2.97287  -0.30436 
 H                     5.08727   1.0744    0.84227 
 H                     5.87658  -1.20509   0.23918 
 C                    -1.22886  -3.62107  -2.02224 
 H                    -1.56702  -4.46519  -2.61546 
 O                     0.31918   1.47377  -0.25258 
 C                     0.10527  -0.06578   2.30509 
 C                     0.127     1.13606   3.01544 
 C                    -0.03027  -1.24976   3.02705 
 C                    -0.00149   1.09744   4.40114 
 H                     0.2407    2.09082   2.50852 
 C                    -0.17234  -1.17358   4.41216 
 H                    -0.03154  -2.22097   2.54326 
 H                     0.02402   2.01767   4.97974 
 H                    -0.29464  -2.08096   4.99867 
 N                    -0.16183  -0.02975   5.098 
 C                     1.49443   2.14306  -0.73662 
 H                     1.16541   3.16025  -0.9556 
 H                     2.28688   2.16021   0.01348 
 H                     1.86175   1.66943  -1.64841 
 N                    -4.59922   0.47301   0.64204 
 H                    -5.61152   0.52998   0.64146 
 H                    -0.26951  -0.01709   6.09211 
 
 Add virtual bond connecting atoms H17        and H8         Dist= 2.59D+00.

 GradGradGradGradGradGradGradGradGradGradGradGradGradGradGradGradGradGrad
 Berny optimization.
 Initialization pass.
                           ----------------------------
                           !    Initial Parameters    !
                           ! (Angstroms and Degrees)  !
 --------------------------                            --------------------------
 ! Name  Definition              Value          Derivative Info.                !
 --------------------------------------------------------------------------------
 ! R1    R(1,2)                  1.3923         estimate D2E/DX2                !
 ! R2    R(1,6)                  1.0856         estimate D2E/DX2                !
 ! R3    R(1,31)                 1.3937         estimate D2E/DX2                !
 ! R4    R(2,3)                  1.3984         estimate D2E/DX2                !
 ! R5    R(2,7)                  1.0863         estimate D2E/DX2                !
 ! R6    R(3,4)                  1.3977         estimate D2E/DX2                !
 ! R7    R(3,10)                 1.8337         estimate D2E/DX2                !
 ! R8    R(4,5)                  1.392          estimate D2E/DX2                !
 ! R9    R(4,8)                  1.0875         estimate D2E/DX2                !
 ! R10   R(5,9)                  1.0857         estimate D2E/DX2                !
 ! R11   R(5,31)                 1.3937         estimate D2E/DX2                !
 ! R12   R(8,17)                 1.3717         estimate D2E/DX2                !
 ! R13   R(10,20)                1.885          estimate D2E/DX2                !
 ! R14   R(10,33)                1.6398         estimate D2E/DX2                !
 ! R15   R(10,34)                1.8473         estimate D2E/DX2                !
 ! R16   R(11,12)                1.406          estimate D2E/DX2                !
 ! R17   R(11,13)                1.4093         estimate D2E/DX2                !
 ! R18   R(12,14)                1.3782         estimate D2E/DX2                !
 ! R19   R(12,15)                1.083          estimate D2E/DX2                !
 ! R20   R(13,16)                1.3733         estimate D2E/DX2                !
 ! R21   R(13,17)                1.0861         estimate D2E/DX2                !
 ! R22   R(14,18)                1.0838         estimate D2E/DX2                !
 ! R23   R(14,48)                1.3483         estimate D2E/DX2                !
 ! R24   R(16,19)                1.0835         estimate D2E/DX2                !
 ! R25   R(16,48)                1.3522         estimate D2E/DX2                !
 ! R26   R(20,21)                1.3994         estimate D2E/DX2                !
 ! R27   R(20,22)                1.4039         estimate D2E/DX2                !
 ! R28   R(21,23)                1.3955         estimate D2E/DX2                !
 ! R29   R(21,24)                1.0855         estimate D2E/DX2                !
 ! R30   R(22,25)                1.3903         estimate D2E/DX2                !
 ! R31   R(22,26)                1.0878         estimate D2E/DX2                !
 ! R32   R(23,27)                1.3907         estimate D2E/DX2                !
 ! R33   R(23,28)                1.086          estimate D2E/DX2                !
 ! R34   R(25,27)                1.3946         estimate D2E/DX2                !
 ! R35   R(25,29)                1.086          estimate D2E/DX2                !
 ! R36   R(27,30)                1.0858         estimate D2E/DX2                !
 ! R37   R(31,32)                1.0857         estimate D2E/DX2                !
 ! R38   R(33,44)                1.4365         estimate D2E/DX2                !
 ! R39   R(34,35)                1.3962         estimate D2E/DX2                !
 ! R40   R(34,36)                1.3933         estimate D2E/DX2                !
 ! R41   R(35,37)                1.3922         estimate D2E/DX2                !
 ! R42   R(35,38)                1.087          estimate D2E/DX2                !
 ! R43   R(36,39)                1.3945         estimate D2E/DX2                !
 ! R44   R(36,40)                1.085          estimate D2E/DX2                !
 ! R45   R(37,41)                1.0873         estimate D2E/DX2                !
 ! R46   R(37,43)                1.3349         estimate D2E/DX2                !
 ! R47   R(39,42)                1.0873         estimate D2E/DX2                !
 ! R48   R(39,43)                1.3337         estimate D2E/DX2                !
 ! R49   R(43,50)                1.0            estimate D2E/DX2                !
 ! R50   R(44,45)                1.0913         estimate D2E/DX2                !
 ! R51   R(44,46)                1.0913         estimate D2E/DX2                !
 ! R52   R(44,47)                1.0912         estimate D2E/DX2                !
 ! R53   R(48,49)                1.0139         estimate D2E/DX2                !
 ! A1    A(2,1,6)              119.6994         estimate D2E/DX2                !
 ! A2    A(2,1,31)             120.0938         estimate D2E/DX2                !
 ! A3    A(6,1,31)             120.1914         estimate D2E/DX2                !
 ! A4    A(1,2,3)              120.1058         estimate D2E/DX2                !
 ! A5    A(1,2,7)              119.3983         estimate D2E/DX2                !
 ! A6    A(3,2,7)              120.4682         estimate D2E/DX2                !
 ! A7    A(2,3,4)              119.4902         estimate D2E/DX2                !
 ! A8    A(2,3,10)             121.3864         estimate D2E/DX2                !
 ! A9    A(4,3,10)             119.0702         estimate D2E/DX2                !
 ! A10   A(3,4,5)              120.31           estimate D2E/DX2                !
 ! A11   A(3,4,8)              120.0978         estimate D2E/DX2                !
 ! A12   A(5,4,8)              119.587          estimate D2E/DX2                !
 ! A13   A(4,5,9)              119.8604         estimate D2E/DX2                !
 ! A14   A(4,5,31)             119.9341         estimate D2E/DX2                !
 ! A15   A(9,5,31)             120.2055         estimate D2E/DX2                !
 ! A16   A(4,8,17)             150.4966         estimate D2E/DX2                !
 ! A17   A(3,10,20)             95.5824         estimate D2E/DX2                !
 ! A18   A(3,10,33)            120.129          estimate D2E/DX2                !
 ! A19   A(3,10,34)            118.1887         estimate D2E/DX2                !
 ! A20   A(20,10,33)            96.3437         estimate D2E/DX2                !
 ! A21   A(20,10,34)            96.9476         estimate D2E/DX2                !
 ! A22   A(33,10,34)           118.1321         estimate D2E/DX2                !
 ! A23   A(12,11,13)           116.0958         estimate D2E/DX2                !
 ! A24   A(11,12,14)           121.2339         estimate D2E/DX2                !
 ! A25   A(11,12,15)           120.1994         estimate D2E/DX2                !
 ! A26   A(14,12,15)           118.5667         estimate D2E/DX2                !
 ! A27   A(11,13,16)           121.5327         estimate D2E/DX2                !
 ! A28   A(11,13,17)           120.6603         estimate D2E/DX2                !
 ! A29   A(16,13,17)           117.8068         estimate D2E/DX2                !
 ! A30   A(12,14,18)           123.8648         estimate D2E/DX2                !
 ! A31   A(12,14,48)           119.6906         estimate D2E/DX2                !
 ! A32   A(18,14,48)           116.4443         estimate D2E/DX2                !
 ! A33   A(13,16,19)           124.0483         estimate D2E/DX2                !
 ! A34   A(13,16,48)           119.4506         estimate D2E/DX2                !
 ! A35   A(19,16,48)           116.501          estimate D2E/DX2                !
 ! A36   A(8,17,13)            100.3593         estimate D2E/DX2                !
 ! A37   A(10,20,21)           122.6263         estimate D2E/DX2                !
 ! A38   A(10,20,22)           119.422          estimate D2E/DX2                !
 ! A39   A(21,20,22)           117.9005         estimate D2E/DX2                !
 ! A40   A(20,21,23)           121.0454         estimate D2E/DX2                !
 ! A41   A(20,21,24)           120.7135         estimate D2E/DX2                !
 ! A42   A(23,21,24)           118.2409         estimate D2E/DX2                !
 ! A43   A(20,22,25)           121.2606         estimate D2E/DX2                !
 ! A44   A(20,22,26)           120.1591         estimate D2E/DX2                !
 ! A45   A(25,22,26)           118.5791         estimate D2E/DX2                !
 ! A46   A(21,23,27)           120.2067         estimate D2E/DX2                !
 ! A47   A(21,23,28)           119.5965         estimate D2E/DX2                !
 ! A48   A(27,23,28)           120.1965         estimate D2E/DX2                !
 ! A49   A(22,25,27)           120.0332         estimate D2E/DX2                !
 ! A50   A(22,25,29)           119.7988         estimate D2E/DX2                !
 ! A51   A(27,25,29)           120.1672         estimate D2E/DX2                !
 ! A52   A(23,27,25)           119.5531         estimate D2E/DX2                !
 ! A53   A(23,27,30)           120.2478         estimate D2E/DX2                !
 ! A54   A(25,27,30)           120.1986         estimate D2E/DX2                !
 ! A55   A(1,31,5)             119.9993         estimate D2E/DX2                !
 ! A56   A(1,31,32)            119.9779         estimate D2E/DX2                !
 ! A57   A(5,31,32)            120.0166         estimate D2E/DX2                !
 ! A58   A(10,33,44)           127.8678         estimate D2E/DX2                !
 ! A59   A(10,34,35)           118.3653         estimate D2E/DX2                !
 ! A60   A(10,34,36)           123.6316         estimate D2E/DX2                !
 ! A61   A(35,34,36)           117.9903         estimate D2E/DX2                !
 ! A62   A(34,35,37)           118.7563         estimate D2E/DX2                !
 ! A63   A(34,35,38)           121.3617         estimate D2E/DX2                !
 ! A64   A(37,35,38)           119.882          estimate D2E/DX2                !
 ! A65   A(34,36,39)           118.5661         estimate D2E/DX2                !
 ! A66   A(34,36,40)           121.9841         estimate D2E/DX2                !
 ! A67   A(39,36,40)           119.4494         estimate D2E/DX2                !
 ! A68   A(35,37,41)           120.2666         estimate D2E/DX2                !
 ! A69   A(35,37,43)           123.6502         estimate D2E/DX2                !
 ! A70   A(41,37,43)           116.0831         estimate D2E/DX2                !
 ! A71   A(36,39,42)           120.1104         estimate D2E/DX2                !
 ! A72   A(36,39,43)           123.8365         estimate D2E/DX2                !
 ! A73   A(42,39,43)           116.052          estimate D2E/DX2                !
 ! A74   A(37,43,39)           117.1732         estimate D2E/DX2                !
 ! A75   A(37,43,50)           121.4134         estimate D2E/DX2                !
 ! A76   A(39,43,50)           121.4134         estimate D2E/DX2                !
 ! A77   A(33,44,45)           104.788          estimate D2E/DX2                !
 ! A78   A(33,44,46)           111.704          estimate D2E/DX2                !
 ! A79   A(33,44,47)           110.7779         estimate D2E/DX2                !
 ! A80   A(45,44,46)           110.0124         estimate D2E/DX2                !
 ! A81   A(45,44,47)           109.7801         estimate D2E/DX2                !
 ! A82   A(46,44,47)           109.6779         estimate D2E/DX2                !
 ! A83   A(14,48,16)           121.984          estimate D2E/DX2                !
 ! A84   A(14,48,49)           119.0442         estimate D2E/DX2                !
 ! A85   A(16,48,49)           118.9708         estimate D2E/DX2                !
 ! D1    D(6,1,2,3)           -178.9583         estimate D2E/DX2                !
 ! D2    D(6,1,2,7)              2.9434         estimate D2E/DX2                !
 ! D3    D(31,1,2,3)             2.4667         estimate D2E/DX2                !
 ! D4    D(31,1,2,7)          -175.6316         estimate D2E/DX2                !
 ! D5    D(2,1,31,5)            -0.3542         estimate D2E/DX2                !
 ! D6    D(2,1,31,32)          178.7384         estimate D2E/DX2                !
 ! D7    D(6,1,31,5)          -178.9222         estimate D2E/DX2                !
 ! D8    D(6,1,31,32)            0.1704         estimate D2E/DX2                !
 ! D9    D(1,2,3,4)             -2.5841         estimate D2E/DX2                !
 ! D10   D(1,2,3,10)          -179.9083         estimate D2E/DX2                !
 ! D11   D(7,2,3,4)            175.4937         estimate D2E/DX2                !
 ! D12   D(7,2,3,10)            -1.8305         estimate D2E/DX2                !
 ! D13   D(2,3,4,5)              0.6039         estimate D2E/DX2                !
 ! D14   D(2,3,4,8)           -178.5599         estimate D2E/DX2                !
 ! D15   D(10,3,4,5)           177.9905         estimate D2E/DX2                !
 ! D16   D(10,3,4,8)            -1.1733         estimate D2E/DX2                !
 ! D17   D(2,3,10,20)           48.6369         estimate D2E/DX2                !
 ! D18   D(2,3,10,33)          149.3031         estimate D2E/DX2                !
 ! D19   D(2,3,10,34)          -52.3319         estimate D2E/DX2                !
 ! D20   D(4,3,10,20)         -128.6983         estimate D2E/DX2                !
 ! D21   D(4,3,10,33)          -28.0321         estimate D2E/DX2                !
 ! D22   D(4,3,10,34)          130.3329         estimate D2E/DX2                !
 ! D23   D(3,4,5,9)           -178.5399         estimate D2E/DX2                !
 ! D24   D(3,4,5,31)             1.4966         estimate D2E/DX2                !
 ! D25   D(8,4,5,9)              0.6282         estimate D2E/DX2                !
 ! D26   D(8,4,5,31)          -179.3353         estimate D2E/DX2                !
 ! D27   D(3,4,8,17)           -41.6372         estimate D2E/DX2                !
 ! D28   D(5,4,8,17)           139.1929         estimate D2E/DX2                !
 ! D29   D(4,5,31,1)            -1.6252         estimate D2E/DX2                !
 ! D30   D(4,5,31,32)          179.2825         estimate D2E/DX2                !
 ! D31   D(9,5,31,1)           178.4114         estimate D2E/DX2                !
 ! D32   D(9,5,31,32)           -0.6809         estimate D2E/DX2                !
 ! D33   D(4,8,17,13)          -30.1525         estimate D2E/DX2                !
 ! D34   D(3,10,20,21)         -18.2354         estimate D2E/DX2                !
 ! D35   D(3,10,20,22)         164.4235         estimate D2E/DX2                !
 ! D36   D(33,10,20,21)       -139.4546         estimate D2E/DX2                !
 ! D37   D(33,10,20,22)         43.2043         estimate D2E/DX2                !
 ! D38   D(34,10,20,21)        101.1083         estimate D2E/DX2                !
 ! D39   D(34,10,20,22)        -76.2327         estimate D2E/DX2                !
 ! D40   D(3,10,33,44)        -102.0905         estimate D2E/DX2                !
 ! D41   D(20,10,33,44)         -1.8556         estimate D2E/DX2                !
 ! D42   D(34,10,33,44)         99.5324         estimate D2E/DX2                !
 ! D43   D(3,10,34,35)        -159.8563         estimate D2E/DX2                !
 ! D44   D(3,10,34,36)          18.8198         estimate D2E/DX2                !
 ! D45   D(20,10,34,35)         99.9782         estimate D2E/DX2                !
 ! D46   D(20,10,34,36)        -81.3456         estimate D2E/DX2                !
 ! D47   D(33,10,34,35)         -1.0547         estimate D2E/DX2                !
 ! D48   D(33,10,34,36)        177.6214         estimate D2E/DX2                !
 ! D49   D(13,11,12,14)          1.2051         estimate D2E/DX2                !
 ! D50   D(13,11,12,15)       -178.7796         estimate D2E/DX2                !
 ! D51   D(12,11,13,16)         -1.1394         estimate D2E/DX2                !
 ! D52   D(12,11,13,17)        179.006          estimate D2E/DX2                !
 ! D53   D(11,12,14,18)        179.7355         estimate D2E/DX2                !
 ! D54   D(11,12,14,48)         -0.4757         estimate D2E/DX2                !
 ! D55   D(15,12,14,18)         -0.2795         estimate D2E/DX2                !
 ! D56   D(15,12,14,48)        179.5093         estimate D2E/DX2                !
 ! D57   D(11,13,16,19)       -179.7506         estimate D2E/DX2                !
 ! D58   D(11,13,16,48)          0.3379         estimate D2E/DX2                !
 ! D59   D(17,13,16,19)          0.108          estimate D2E/DX2                !
 ! D60   D(17,13,16,48)       -179.8035         estimate D2E/DX2                !
 ! D61   D(11,13,17,8)          69.6809         estimate D2E/DX2                !
 ! D62   D(16,13,17,8)        -110.179          estimate D2E/DX2                !
 ! D63   D(12,14,48,16)         -0.4064         estimate D2E/DX2                !
 ! D64   D(12,14,48,49)        179.9676         estimate D2E/DX2                !
 ! D65   D(18,14,48,16)        179.3977         estimate D2E/DX2                !
 ! D66   D(18,14,48,49)         -0.2283         estimate D2E/DX2                !
 ! D67   D(13,16,48,14)          0.4744         estimate D2E/DX2                !
 ! D68   D(13,16,48,49)       -179.8993         estimate D2E/DX2                !
 ! D69   D(19,16,48,14)       -179.4437         estimate D2E/DX2                !
 ! D70   D(19,16,48,49)          0.1826         estimate D2E/DX2                !
 ! D71   D(10,20,21,23)       -177.5427         estimate D2E/DX2                !
 ! D72   D(10,20,21,24)          2.6242         estimate D2E/DX2                !
 ! D73   D(22,20,21,23)         -0.1633         estimate D2E/DX2                !
 ! D74   D(22,20,21,24)       -179.9964         estimate D2E/DX2                !
 ! D75   D(10,20,22,25)        177.4465         estimate D2E/DX2                !
 ! D76   D(10,20,22,26)         -2.9537         estimate D2E/DX2                !
 ! D77   D(21,20,22,25)         -0.0197         estimate D2E/DX2                !
 ! D78   D(21,20,22,26)        179.5801         estimate D2E/DX2                !
 ! D79   D(20,21,23,27)          0.2291         estimate D2E/DX2                !
 ! D80   D(20,21,23,28)       -179.6056         estimate D2E/DX2                !
 ! D81   D(24,21,23,27)       -179.9338         estimate D2E/DX2                !
 ! D82   D(24,21,23,28)          0.2315         estimate D2E/DX2                !
 ! D83   D(20,22,25,27)          0.1379         estimate D2E/DX2                !
 ! D84   D(20,22,25,29)        179.816          estimate D2E/DX2                !
 ! D85   D(26,22,25,27)       -179.4682         estimate D2E/DX2                !
 ! D86   D(26,22,25,29)          0.21           estimate D2E/DX2                !
 ! D87   D(21,23,27,25)         -0.1076         estimate D2E/DX2                !
 ! D88   D(21,23,27,30)       -179.8685         estimate D2E/DX2                !
 ! D89   D(28,23,27,25)        179.7262         estimate D2E/DX2                !
 ! D90   D(28,23,27,30)         -0.0347         estimate D2E/DX2                !
 ! D91   D(22,25,27,23)         -0.0733         estimate D2E/DX2                !
 ! D92   D(22,25,27,30)        179.6877         estimate D2E/DX2                !
 ! D93   D(29,25,27,23)       -179.7502         estimate D2E/DX2                !
 ! D94   D(29,25,27,30)          0.0108         estimate D2E/DX2                !
 ! D95   D(10,33,44,45)       -169.259          estimate D2E/DX2                !
 ! D96   D(10,33,44,46)        -50.1791         estimate D2E/DX2                !
 ! D97   D(10,33,44,47)         72.4133         estimate D2E/DX2                !
 ! D98   D(10,34,35,37)        178.0649         estimate D2E/DX2                !
 ! D99   D(10,34,35,38)         -1.8895         estimate D2E/DX2                !
 ! D100  D(36,34,35,37)         -0.6868         estimate D2E/DX2                !
 ! D101  D(36,34,35,38)        179.3588         estimate D2E/DX2                !
 ! D102  D(10,34,36,39)       -177.0113         estimate D2E/DX2                !
 ! D103  D(10,34,36,40)          2.7763         estimate D2E/DX2                !
 ! D104  D(35,34,36,39)          1.6694         estimate D2E/DX2                !
 ! D105  D(35,34,36,40)       -178.543          estimate D2E/DX2                !
 ! D106  D(34,35,37,41)        179.2716         estimate D2E/DX2                !
 ! D107  D(34,35,37,43)         -0.8354         estimate D2E/DX2                !
 ! D108  D(38,35,37,41)         -0.7733         estimate D2E/DX2                !
 ! D109  D(38,35,37,43)        179.1197         estimate D2E/DX2                !
 ! D110  D(34,36,39,42)        179.0972         estimate D2E/DX2                !
 ! D111  D(34,36,39,43)         -1.2988         estimate D2E/DX2                !
 ! D112  D(40,36,39,42)         -0.6959         estimate D2E/DX2                !
 ! D113  D(40,36,39,43)        178.9081         estimate D2E/DX2                !
 ! D114  D(35,37,43,39)          1.2651         estimate D2E/DX2                !
 ! D115  D(35,37,43,50)       -178.7349         estimate D2E/DX2                !
 ! D116  D(41,37,43,39)       -178.8378         estimate D2E/DX2                !
 ! D117  D(41,37,43,50)          1.1622         estimate D2E/DX2                !
 ! D118  D(36,39,43,37)         -0.1754         estimate D2E/DX2                !
 ! D119  D(36,39,43,50)        179.8246         estimate D2E/DX2                !
 ! D120  D(42,39,43,37)        179.4433         estimate D2E/DX2                !
 ! D121  D(42,39,43,50)         -0.5567         estimate D2E/DX2                !
 --------------------------------------------------------------------------------
 Trust Radius=3.00D-01 FncErr=1.00D-07 GrdErr=1.00D-06 EigMax=2.50D+02 EigMin=1.00D-04
 Number of steps in this run=    200 maximum allowed number of steps=    300.
 GradGradGradGradGradGradGradGradGradGradGradGradGradGradGradGradGradGrad

                          Input orientation:                          
 ---------------------------------------------------------------------
 Center     Atomic      Atomic             Coordinates (Angstroms)
 Number     Number       Type             X           Y           Z
 ---------------------------------------------------------------------
      1          6           0       -0.350515   -3.824170   -0.959370
      2          6           0        0.105279   -2.740421   -0.213489
      3          6           0       -0.356599   -1.450959   -0.495431
      4          6           0       -1.235251   -1.253204   -1.564290
      5          6           0       -1.657983   -2.332493   -2.335151
      6          1           0       -0.000562   -4.824463   -0.723840
      7          1           0        0.844115   -2.902650    0.566099
      8          1           0       -1.582195   -0.251527   -1.806881
      9          1           0       -2.321798   -2.167497   -3.178314
     10         15           0        0.221983    0.001469    0.462737
     11          6           0       -1.828952    0.306134    0.640703
     12          6           0       -2.590234    0.006392    1.784151
     13          6           0       -2.553471    0.716089   -0.496465
     14          6           0       -3.965870    0.089045    1.768695
     15          1           0       -2.099887   -0.296160    2.701142
     16          6           0       -3.924645    0.791787   -0.485661
     17          1           0       -2.038639    0.981277   -1.415257
     18          1           0       -4.594063   -0.135822    2.622823
     19          1           0       -4.522048    1.097534   -1.336295
     20          6           0        2.056249   -0.413569    0.335171
     21          6           0        2.519273   -1.691018    0.000357
     22          6           0        3.009033    0.572197    0.637509
     23          6           0        3.885085   -1.975027   -0.035227
     24          1           0        1.822530   -2.487528   -0.241543
     25          6           0        4.370679    0.292961    0.607053
     26          1           0        2.690060    1.579581    0.895939
     27          6           0        4.813656   -0.985424    0.268732
     28          1           0        4.218583   -2.972866   -0.304364
     29          1           0        5.087268    1.074400    0.842274
     30          1           0        5.876583   -1.205094    0.239180
     31          6           0       -1.228863   -3.621069   -2.022242
     32          1           0       -1.567023   -4.465190   -2.615456
     33          8           0        0.319184    1.473767   -0.252581
     34          6           0        0.105272   -0.065779    2.305085
     35          6           0        0.126995    1.136059    3.015444
     36          6           0       -0.030268   -1.249755    3.027046
     37          6           0       -0.001488    1.097444    4.401140
     38          1           0        0.240695    2.090822    2.508524
     39          6           0       -0.172345   -1.173585    4.412155
     40          1           0       -0.031542   -2.220975    2.543257
     41          1           0        0.024016    2.017666    4.979740
     42          1           0       -0.294641   -2.080965    4.998672
     43          7           0       -0.161835   -0.029748    5.098004
     44          6           0        1.494431    2.143064   -0.736621
     45          1           0        1.165409    3.160254   -0.955601
     46          1           0        2.286884    2.160205    0.013477
     47          1           0        1.861749    1.669434   -1.648414
     48          7           0       -4.599221    0.473012    0.642044
     49          1           0       -5.611520    0.529976    0.641456
     50          1           0       -0.269509   -0.017087    6.092109
 ---------------------------------------------------------------------
                    Distance matrix (angstroms):
                    1          2          3          4          5
     1  C    0.000000
     2  C    1.392336   0.000000
     3  C    2.418141   1.398404   0.000000
     4  C    2.785418   2.415263   1.397711   0.000000
     5  C    2.413989   2.788717   2.419767   1.392047   0.000000
     6  H    1.085600   2.148230   3.399920   3.871008   3.399012
     7  H    2.145553   1.086258   2.162398   3.403380   3.873348
     8  H    3.872866   3.403096   2.158848   1.087464   2.148310
     9  H    3.399152   3.874162   3.401955   2.149789   1.085725
    10  P    4.121366   2.826457   1.833682   2.794024   4.099979
    11  C    4.669628   3.708422   2.558515   2.765142   3.980865
    12  C    5.216939   4.336051   3.508488   3.825522   4.827848
    13  C    5.067667   4.369953   3.085830   2.599244   3.671037
    14  C    5.985514   5.339399   4.530421   4.512948   5.294501
    15  H    5.376477   4.396845   3.819776   4.456168   5.450337
    16  C    5.857121   5.365711   4.214375   3.546586   4.280128
    17  H    5.113699   4.460007   3.096952   2.379191   3.460083
    18  H    6.666612   6.075559   5.423024   5.482889   6.166639
    19  H    6.462734   6.115778   4.955082   4.047343   4.578828
    20  C    4.370418   3.085701   2.754617   3.891903   4.960686
    21  C    3.702310   2.640898   2.928152   4.090996   4.828618
    22  C    5.758874   4.486582   4.087076   5.118003   6.249397
    23  C    4.713139   3.860640   4.298641   5.392300   6.011907
    24  H    2.650286   1.735999   2.426425   3.552920   4.064628
    25  C    6.457099   5.297955   5.157895   6.207399   7.203772
    26  H    6.472078   5.155031   4.516881   5.430052   6.682046
    27  C    6.019583   5.047907   5.247114   6.326211   7.104710
    28  H    4.693656   4.120869   4.825453   5.855677   6.250456
    29  H    7.537334   6.362995   6.148380   7.154267   8.197643
    30  H    6.860965   5.989164   6.281135   7.337097   8.041635
    31  C    1.393715   2.413931   2.793094   2.411751   1.393730
    32  H    2.152537   3.397185   3.878817   3.395862   2.152961
    33  O    5.386667   4.219794   3.011591   3.401943   4.768007
    34  C    4.998992   3.673817   3.158313   4.263689   5.457000
    35  C    6.374248   5.045154   4.387798   5.342121   6.621621
    36  C    4.756226   3.569527   3.543278   4.746827   5.707445
    37  C    7.285546   6.002950   5.531444   6.529477   7.738608
    38  H    6.882075   5.546945   4.682384   5.472544   6.828754
    39  C    5.992548   4.891690   4.918870   6.070750   7.005449
    40  H    3.865278   2.808592   3.151540   4.388329   5.143598
    41  H    8.339087   7.043836   6.492590   7.423522   8.675289
    42  H    6.208072   5.268913   5.530453   6.681497   7.463707
    43  N    7.150176   5.969175   5.774450   6.858223   7.924195
    44  C    6.249906   5.104099   4.049875   4.435181   5.702948
    45  H    7.147043   6.040908   4.877659   5.060858   6.328110
    46  H    6.611736   5.369083   4.504164   5.152295   6.423579
    47  H    5.962263   4.958933   3.998411   4.259143   5.373596
    48  N    6.251544   5.761112   4.795347   4.377674   5.038395
    49  H    7.014229   6.641402   5.729818   5.215053   5.717025
    50  H    8.013976   6.878778   6.742348   7.815439   8.849162
                    6          7          8          9         10
     6  H    0.000000
     7  H    2.463897   0.000000
     8  H    4.958456   4.306561   0.000000
     9  H    4.297912   4.958235   2.469572   0.000000
    10  P    4.974646   2.971807   2.910366   4.942923   0.000000
    11  C    5.614981   4.176978   2.522408   4.576750   2.081064
    12  C    6.027734   4.662717   3.738740   5.424381   3.107205
    13  C    6.104650   5.076210   1.896536   3.944750   3.022233
    14  C    6.788148   5.790720   4.310759   5.680480   4.387631
    15  H    6.053362   4.474298   4.537870   6.174071   3.238846
    16  C    6.855466   6.123409   2.884649   4.310088   4.326498
    17  H    6.191803   5.226943   1.371683   3.619852   3.097950
    18  H    7.367751   6.438884   5.357893   6.553173   5.280068
    19  H    7.475893   6.958181   3.268662   4.346787   5.190733
    20  C    4.980759   2.778150   4.225271   5.881168   1.884957
    21  C    4.085646   2.143425   4.707471   5.810934   2.890649
    22  C    6.327311   4.094695   5.266207   7.105223   2.850250
    23  C    4.867414   3.235672   6.000030   6.959989   4.191995
    24  H    3.002922   1.334881   4.363730   5.089450   3.041853
    25  C    6.860543   4.759229   6.446724   8.072924   4.161427
    26  H    7.132665   4.858673   5.376835   7.467185   2.961335
    27  C    6.236995   4.418307   6.764147   8.012124   4.700538
    28  H    4.626614   3.485637   6.581206   7.189214   5.040627
    29  H    7.945773   5.822160   7.297797   9.031572   4.996622
    30  H    6.969079   5.321119   7.792883   8.934145   5.786214
    31  C    2.154699   3.393063   3.394855   2.154967   4.626322
    32  H    2.482154   4.286889   4.290569   2.483121   5.711992
    33  O    6.323924   4.483170   3.001287   5.365957   1.639752
    34  C    5.641867   3.408489   4.448631   6.354176   1.847266
    35  C    7.037495   4.777522   5.301089   7.434562   2.795108
    36  C    5.181560   3.090771   5.174146   6.678312   2.864415
    37  C    7.831628   5.605652   6.546593   8.572736   4.094157
    38  H    7.637247   5.391836   5.237580   7.552468   2.924208
    39  C    6.303718   4.337626   6.443157   7.951304   4.139342
    40  H    4.177682   2.267291   5.020652   6.163157   3.054847
    41  H    8.907646   6.660503   7.333988   9.464264   4.950511
    42  H    6.352984   4.649692   7.163811   8.424961   5.017782
    43  N    7.543816   5.459272   7.052945   8.816623   4.651235
    44  C    7.126120   5.251592   4.042913   6.253511   2.764780
    45  H    8.072726   6.259202   4.462539   6.744331   3.588824
    46  H    7.386584   5.293342   4.909167   7.082124   3.020892
    47  H    6.818631   5.181081   3.946638   5.879175   3.150857
    48  N    7.146785   6.405527   3.952801   5.172434   4.847526
    49  H    7.875081   7.311896   4.779180   5.717453   5.860121
    50  H    8.345080   6.332726   8.010752   9.735343   5.650818
                   11         12         13         14         15
    11  C    0.000000
    12  C    1.406012   0.000000
    13  C    1.409305   2.388772   0.000000
    14  C    2.426090   1.378203   2.742080   0.000000
    15  H    2.163694   1.082982   3.384535   2.121257   0.000000
    16  C    2.428268   2.747643   1.373304   2.361708   3.830024
    17  H    2.174111   3.389818   1.086073   3.827251   4.310492
    18  H    3.430738   2.176907   3.823575   1.083848   2.500551
    19  H    3.433308   3.828796   2.173962   3.311698   4.910208
    20  C    3.963093   4.885255   4.818430   6.210759   4.783834
    21  C    4.827600   5.671877   5.636819   6.953612   5.529603
    22  C    4.845297   5.743406   5.678737   7.082534   5.577965
    23  C    6.189572   7.011841   6.993558   8.315769   6.791627
    24  H    4.681477   5.458531   5.429321   6.647207   5.370926
    25  C    6.199736   7.065550   7.024289   8.419563   6.826456
    26  H    4.701945   5.580802   5.493544   6.876395   5.451674
    27  C    6.777221   7.622190   7.599686   8.971313   7.361303
    28  H    6.943895   7.719965   7.714014   8.980988   7.491387
    29  H    6.961678   7.808445   7.765404   9.153605   7.549107
    30  H    7.862589   8.691468   8.677438  10.044306   8.397112
    31  C    4.782709   5.431430   4.784717   5.968866   5.841580
    32  H    5.782449   6.355985   5.684088   6.761383   6.777239
    33  O    2.603038   3.842678   2.980889   4.936061   4.208209
    34  C    2.578703   2.746331   3.940675   4.109244   2.252257
    35  C    3.186519   3.189916   4.437880   4.404789   2.666279
    36  C    3.369079   3.110646   4.758805   4.343363   2.301930
    37  C    4.255195   3.839353   5.535755   4.864459   3.038981
    38  H    3.310182   3.589390   4.327495   4.716953   3.348598
    39  C    4.376959   3.760976   5.773663   4.793011   2.722657
    40  H    3.638224   3.476249   4.922030   4.627643   2.829822
    41  H    5.018972   4.592529   6.190830   5.472622   3.880305
    42  H    5.200408   4.467656   6.566762   5.349731   3.423899
    43  N    4.770705   4.108533   6.129786   5.056589   3.093859
    44  C    4.039332   5.253965   4.298772   6.349054   5.539598
    45  H    4.434004   5.617646   4.473793   6.571464   5.998394
    46  H    4.557532   5.617871   5.076864   6.816702   5.700967
    47  H    4.551914   5.862454   4.661547   6.937968   6.202963
    48  N    2.775291   2.357577   2.353802   1.348298   3.328390
    49  H    3.789185   3.272317   3.268205   2.042854   4.154079
    50  H    5.679275   4.893344   7.011657   5.689135   3.863525
                   16         17         18         19         20
    16  C    0.000000
    17  H    2.111178   0.000000
    18  H    3.312288   4.907565   0.000000
    19  H    1.083490   2.487382   4.147405   0.000000
    20  C    6.156114   4.666658   7.038263   6.953504   0.000000
    21  C    6.922761   5.469889   7.739219   7.690440   1.399417
    22  C    7.027490   5.464448   7.889856   7.803144   1.403902
    23  C    8.297592   6.762745   9.074352   9.045070   2.433102
    24  H    6.621444   5.321545   7.409978   7.369181   2.165301
    25  C    8.381841   6.755951   9.198575   9.138081   2.435096
    26  H    6.803217   5.297187   7.680051   7.565034   2.165369
    27  C    8.949050   7.325140   9.734924   9.698979   2.816865
    28  H    8.973162   7.484795   9.709787   9.696993   3.410967
    29  H    9.113608   7.475538   9.917820   9.853205   3.414423
    30  H   10.028808   8.376641  10.791641  10.766417   3.902650
    31  C    5.394592   4.712298   6.711792   5.794895   5.161144
    32  H    6.142493   5.597044   7.439487   6.427467   6.184653
    33  O    4.304591   2.674638   5.915971   4.975290   2.631517
    34  C    4.976336   4.419686   4.710585   6.002086   2.794250
    35  C    5.365822   4.934069   4.905122   6.368102   3.647908
    36  C    5.627893   5.361447   4.715132   6.687646   3.506986
    37  C    6.274186   6.163924   5.076919   7.304357   4.800994
    38  H    5.291757   4.671457   5.324086   6.201047   3.780433
    39  C    6.475419   6.487312   4.881624   7.557948   4.708084
    40  H    5.779907   5.472905   5.017050   6.799122   3.535708
    41  H    6.853125   6.798871   5.614199   7.836176   5.622535
    42  H    7.176876   7.318288   5.283301   8.252614   5.482256
    43  N    6.783139   6.853257   5.077639   7.853816   5.267997
    44  C    5.590645   3.780592   7.317714   6.136022   2.828559
    45  H    5.633750   3.901942   7.539281   6.061923   3.902807
    46  H    6.380031   4.705454   7.708946   7.022301   2.604034
    47  H    5.966960   3.967487   7.948580   6.416958   2.882939
    48  N    1.352179   3.323763   2.072243   2.076008   6.721271
    49  H    2.045601   4.147194   2.324720   2.328212   7.731673
    50  H    7.568445   7.777345   5.545431   8.631781   6.221631
                   21         22         23         24         25
    21  C    0.000000
    22  C    2.401660   0.000000
    23  C    1.395482   2.776399   0.000000
    24  H    1.085539   3.397416   2.135265   0.000000
    25  C    2.780640   1.390317   2.406677   3.865786   0.000000
    26  H    3.395299   1.087820   3.863987   4.311363   2.136194
    27  C    2.415384   2.412228   1.390665   3.385784   1.394617
    28  H    2.150266   3.862332   1.085973   2.445520   3.394030
    29  H    3.866647   2.147835   3.393266   4.951818   1.086037
    30  H    3.400689   3.397098   2.152710   4.279144   2.155747
    31  C    4.675952   6.528209   5.728014   3.710364   7.320361
    32  H    5.588946   7.543032   6.525640   4.586467   8.263224
    33  O    3.862672   2.973277   4.965589   4.236983   4.306726
    34  C    3.712220   3.408761   4.838313   3.911414   4.604965
    35  C    4.775574   3.778711   5.754015   5.158797   4.951769
    36  C    3.981924   4.273962   5.023298   3.955833   5.254015
    37  C    5.787629   4.848096   6.650329   6.142766   5.844496
    38  H    5.077906   3.670234   6.023568   5.570131   4.889240
    39  C    5.193891   5.236112   6.073241   5.230954   6.104803
    40  H    3.640584   4.547392   4.695640   3.356150   5.426629
    41  H    6.691405   5.463944   7.483271   7.126937   6.402225
    42  H    5.749202   6.080565   6.543812   5.666354   6.832792
    43  N    5.994511   5.505702   6.819951   6.203962   6.388776
    44  C    4.036536   2.578735   4.813092   4.668525   3.674390
    45  H    5.126563   3.554573   5.883437   5.730544   4.575698
    46  H    3.858250   1.852751   4.433595   4.677829   2.860269
    47  H    3.800450   2.783097   4.469715   4.388753   3.643698
    48  N    7.467780   7.608902   8.856356   7.126318   8.971775
    49  H    8.453024   8.620657   9.844717   8.071562   9.985072
    50  H    6.905708   6.391303   7.657574   7.113006   7.191197
                   26         27         28         29         30
    26  H    0.000000
    27  C    3.388554   0.000000
    28  H    4.949938   2.152319   0.000000
    29  H    2.450448   2.155618   4.295318   0.000000
    30  H    4.282485   1.085791   2.483832   2.486530   0.000000
    31  C    7.135860   6.979056   5.748560   8.375344   7.838260
    32  H    8.184858   7.819231   6.406357   9.323226   8.613039
    33  O    2.636541   5.149725   5.914435   4.908445   6.188926
    34  C    3.372541   5.211656   5.672716   5.316024   6.234904
    35  C    3.355341   5.831801   6.681727   5.415790   6.800471
    36  C    4.466200   5.580481   5.667463   6.030265   6.531851
    37  C    4.445595   6.678379   7.517858   6.209790   7.561436
    38  H    2.976775   5.949112   7.026868   5.224823   6.912034
    39  C    5.304438   6.485643   6.690531   6.742478   7.348758
    40  H    4.956309   5.493268   5.170865   6.321001   6.422361
    41  H    4.896646   7.358859   8.391756   6.606428   8.192169
    42  H    6.256233   7.047499   7.020461   7.496460   7.842443
    43  N    5.327344   6.999335   7.552190   6.847150   7.839139
    44  C    2.100546   4.670698   5.812107   4.067361   5.600500
    45  H    2.872506   5.656443   6.881943   4.792089   6.532911
    46  H    1.130670   4.042860   5.493715   3.115771   4.925660
    47  H    2.677294   4.408795   5.376996   4.118442   5.286285
    48  N    7.377166   9.532505   9.514380   9.707205  10.617006
    49  H    8.371539  10.541331  10.478330  10.714513  11.625352
    50  H    6.189393   7.790248   8.354309   7.579392   8.569865
                   31         32         33         34         35
    31  C    0.000000
    32  H    1.085724   0.000000
    33  O    5.611194   6.664245   0.000000
    34  C    5.757236   6.809047   2.992927   0.000000
    35  C    7.060234   8.121005   3.291044   1.396243   0.000000
    36  C    5.705705   6.673715   4.277341   1.393341   2.391020
    37  C    8.064159   9.089908   4.679911   2.399569   1.392175
    38  H    7.437280   8.514946   2.830304   2.170404   1.086953
    39  C    6.964760   7.884612   5.386078   2.396675   2.715670
    40  H    4.923172   5.831511   4.646593   2.172628   3.393784
    41  H    9.077048  10.111669   5.268789   3.391331   2.155527
    42  H    7.248306   8.079507   6.370915   3.387671   3.802658
    43  N    8.045746   9.008060   5.578592   2.805893   2.404076
    44  C    6.503412   7.521405   1.436475   4.007583   4.118487
    45  H    7.270255   8.268537   2.013598   4.707787   4.576557
    46  H    7.065957   8.103070   2.100911   3.868578   3.837421
    47  H    6.138489   7.094030   2.089532   4.661151   5.004541
    48  N    5.934579   6.647659   5.098291   5.018790   5.330082
    49  H    6.598041   7.205354   6.071515   5.983669   6.239688
    50  H    8.930383   9.863613   6.544027   3.805835   3.309506
                   36         37         38         39         40
    36  C    0.000000
    37  C    2.719983   0.000000
    38  H    3.391422   2.151150   0.000000
    39  C    1.394458   2.277474   3.801416   0.000000
    40  H    1.085044   3.803227   4.320522   2.147005   0.000000
    41  H    3.806837   1.087308   2.481776   3.247275   4.889337
    42  H    2.155948   3.247348   4.887865   1.087335   2.473437
    43  N    2.407196   1.334876   3.371091   1.333739   3.368261
    44  C    5.291608   5.452310   3.479303   6.347298   5.668423
    45  H    6.061296   5.857603   3.741517   7.027415   6.529343
    46  H    5.106723   5.061392   3.227532   6.042377   5.565035
    47  H    5.827634   6.355779   4.481687   6.996484   6.024112
    48  N    5.434289   5.971589   5.433769   6.043364   5.633460
    49  H    6.325256   6.777146   6.338029   6.834100   6.505439
    50  H    3.312298   2.042888   4.188755   2.041856   4.184269
                   41         42         43         44         45
    41  H    0.000000
    42  H    4.111043   0.000000
    43  N    2.059231   2.057910   0.000000
    44  C    5.903781   7.344166   6.442606   0.000000
    45  H    6.151144   8.065699   6.970210   1.091276   0.000000
    46  H    5.459364   7.035905   6.053472   1.091294   1.787992
    47  H    6.887013   7.930905   7.245430   1.091153   1.785336
    48  N    6.525021   6.635693   6.308624   6.467023   6.557797
    49  H    7.265893   7.353336   7.062094   7.415908   7.442831
    50  H    2.337465   2.335771   1.000000   7.376265   7.862869
                   46         47         48         49         50
    46  H    0.000000
    47  H    1.784230   0.000000
    48  N    7.117595   6.958574   0.000000
    49  H    8.089301   7.898837   1.013901   0.000000
    50  H    6.944459   8.203798   6.977808   7.651534   0.000000
 Stoichiometry    C23H23N2OP(2+)
 Framework group  C1[X(C23H23N2OP)]
 Deg. of freedom   144
 Full point group                 C1      NOp   1
 Largest Abelian subgroup         C1      NOp   1
 Largest concise Abelian subgroup C1      NOp   1
                         Standard orientation:                         
 ---------------------------------------------------------------------
 Center     Atomic      Atomic             Coordinates (Angstroms)
 Number     Number       Type             X           Y           Z
 ---------------------------------------------------------------------
      1          6           0        0.025454   -3.040013   -2.256125
      2          6           0       -0.340484   -1.866373   -1.602477
      3          6           0        0.214690   -1.554528   -0.357460
      4          6           0        1.095920   -2.454834    0.247916
      5          6           0        1.428999   -3.647319   -0.388349
      6          1           0       -0.396743   -3.267294   -3.230096
      7          1           0       -1.082274   -1.213701   -2.053834
      8          1           0        1.515157   -2.233092    1.226512
      9          1           0        2.095611   -4.352213    0.099044
     10         15           0       -0.243941   -0.019934    0.535327
     11          6           0        1.825671    0.189450    0.596105
     12          6           0        2.572633    1.040683   -0.237152
     13          6           0        2.568584   -0.669316    1.430816
     14          6           0        3.950386    1.005995   -0.243389
     15          1           0        2.069295    1.741863   -0.891252
     16          6           0        3.941604   -0.683557    1.406763
     17          1           0        2.066813   -1.346412    2.115887
     18          1           0        4.567638    1.638888   -0.870424
     19          1           0        4.552538   -1.328698    2.026846
     20          6           0       -2.105368   -0.243455    0.339912
     21          6           0       -2.666431   -1.099407   -0.614511
     22          6           0       -2.978312    0.511725    1.139044
     23          6           0       -4.050036   -1.201599   -0.764721
     24          1           0       -2.033967   -1.704372   -1.256695
     25          6           0       -4.357357    0.416083    0.990487
     26          1           0       -2.581945    1.183684    1.897144
     27          6           0       -4.898533   -0.444266    0.035560
     28          1           0       -4.460266   -1.878171   -1.508562
     29          1           0       -5.010808    1.009127    1.623557
     30          1           0       -5.975223   -0.524840   -0.079289
     31          6           0        0.906838   -3.932556   -1.648694
     32          1           0        1.174947   -4.856899   -2.151192
     33          8           0       -0.236417    0.012026    2.174751
     34          6           0       -0.115756    1.586433   -0.367747
     35          6           0       -0.040299    2.763395    0.379624
     36          6           0       -0.063253    1.689046   -1.756313
     37          6           0        0.097598    3.975283   -0.291541
     38          1           0       -0.086335    2.747907    1.465492
     39          6           0        0.096847    2.951702   -2.326035
     40          1           0       -0.139637    0.819049   -2.400200
     41          1           0        0.146846    4.907749    0.265523
     42          1           0        0.155756    3.059163   -3.406442
     43          7           0        0.178888    4.080139   -1.619807
     44          6           0       -1.362246   -0.067101    3.063405
     45          1           0       -0.959495    0.183449    4.046207
     46          1           0       -2.144245    0.642611    2.788252
     47          1           0       -1.772566   -1.078041    3.079263
     48          7           0        4.600532    0.148720    0.569197
     49          1           0        5.614197    0.131062    0.556284
     50          1           0        0.296315    4.967136   -2.066402
 ---------------------------------------------------------------------
 Rotational constants (GHZ):           0.2324653           0.1829138           0.1402798
 Standard basis: 6-31+G(d) (6D, 7F)
 There are   563 symmetry adapted cartesian basis functions of A   symmetry.
 There are   563 symmetry adapted basis functions of A   symmetry.
   563 basis functions,   980 primitive gaussians,   563 cartesian basis functions
    98 alpha electrons       98 beta electrons
       nuclear repulsion energy      2710.5501776926 Hartrees.
 NAtoms=   50 NActive=   50 NUniq=   50 SFac= 1.00D+00 NAtFMM=   60 NAOKFM=F Big=F
 Integral buffers will be    131072 words long.
 Raffenetti 2 integral format.
 Two-electron integral symmetry is turned on.
 Nuclear repulsion after empirical dispersion term =     2710.5039950664 Hartrees.
 ------------------------------------------------------------------------------
 Polarizable Continuum Model (PCM)
 =================================
 Model                : PCM.
 Atomic radii         : SMD-Coulomb.
 Polarization charges : Total charges.
 Charge compensation  : None.
 Solution method      : On-the-fly selection.
 Cavity type          : VdW (van der Waals Surface) (Alpha=1.000).
 Cavity algorithm     : GePol (No added spheres)
                        Default sphere list used, NSphG=   50.
                        Lebedev-Laikov grids with approx.  5.0 points / Ang**2.
                        Smoothing algorithm: York/Karplus (Gamma=1.0000).
                        Polarization charges: spherical gaussians, with
                                              point-specific exponents (IZeta= 3).
                        Self-potential: point-specific (ISelfS= 7).
                        Self-field    : sphere-specific E.n sum rule (ISelfD= 2).
 1st derivatives      : Analytical E(r).r(x)/FMM algorithm (CHGder, D1EAlg=3).
                        Cavity 1st derivative terms included.
 Solvent              : Ethanol, Eps=  24.852000 Eps(inf)=   1.852593
 ------------------------------------------------------------------------------
 ------------------------------------------------------------------------------
 Atomic radii for non-electrostatic terms: SMD-CDS.
 ------------------------------------------------------------------------------
 Nuclear repulsion after PCM non-electrostatic terms =     2710.5041973849 Hartrees.
 One-electron integrals computed using PRISM.
 NBasis=   563 RedAO= T EigKep=  1.05D-06  NBF=   563
 NBsUse=   560 1.00D-06 EigRej=  9.12D-07 NBFU=   560
 ExpMin= 3.48D-02 ExpMax= 1.94D+04 ExpMxC= 2.91D+03 IAcc=3 IRadAn=         5 AccDes= 0.00D+00
 Harris functional with IExCor= 4639 and IRadAn=       5 diagonalized for initial guess.
 HarFok:  IExCor= 4639 AccDes= 0.00D+00 IRadAn=         5 IDoV= 1 UseB2=F ITyADJ=14
 ICtDFT=  3500011 ScaDFX=  1.000000  1.000000  1.000000  1.000000
 FoFCou: FMM=F IPFlag=           0 FMFlag=      100000 FMFlg1=           0
         NFxFlg=           0 DoJE=T BraDBF=F KetDBF=T FulRan=T
         wScrn=  0.000000 ICntrl=       500 IOpCl=  0 I1Cent=   200000004 NGrid=           0
         NMat0=    1 NMatS0=      1 NMatT0=    0 NMatD0=    1 NMtDS0=    0 NMtDT0=    0
 Petite list used in FoFCou.
 Requested convergence on RMS density matrix=1.00D-08 within 128 cycles.
 Requested convergence on MAX density matrix=1.00D-06.
 Requested convergence on             energy=1.00D-06.
 No special actions if energy rises.
 Inv3:  Mode=1 IEnd=    36456588.
 Iteration    1 A*A^-1 deviation from unit magnitude is 6.44D-15 for   2551.
 Iteration    1 A*A^-1 deviation from orthogonality  is 2.71D-15 for   2538   2526.
 Iteration    1 A^-1*A deviation from unit magnitude is 4.88D-15 for   2551.
 Iteration    1 A^-1*A deviation from orthogonality  is 2.73D-15 for   2837    650.
 Error on total polarization charges =  0.05498
 SCF Done:  E(RwB97XD) =  -1415.55884456     A.U. after   16 cycles
            NFock= 16  Conv=0.98D-08     -V/T= 2.0077
 SMD-CDS (non-electrostatic) energy       (kcal/mol) =       0.13
 (included in total energy above)

 **********************************************************************

            Population analysis using the SCF density.

 **********************************************************************

 Orbital symmetries:
       Occupied  (A) (A) (A) (A) (A) (A) (A) (A) (A) (A) (A) (A)
                 (A) (A) (A) (A) (A) (A) (A) (A) (A) (A) (A) (A)
                 (A) (A) (A) (A) (A) (A) (A) (A) (A) (A) (A) (A)
                 (A) (A) (A) (A) (A) (A) (A) (A) (A) (A) (A) (A)
                 (A) (A) (A) (A) (A) (A) (A) (A) (A) (A) (A) (A)
                 (A) (A) (A) (A) (A) (A) (A) (A) (A) (A) (A) (A)
                 (A) (A) (A) (A) (A) (A) (A) (A) (A) (A) (A) (A)
                 (A) (A) (A) (A) (A) (A) (A) (A) (A) (A) (A) (A)
                 (A) (A)
       Virtual   (A) (A) (A) (A) (A) (A) (A) (A) (A) (A) (A) (A)
                 (A) (A) (A) (A) (A) (A) (A) (A) (A) (A) (A) (A)
                 (A) (A) (A) (A) (A) (A) (A) (A) (A) (A) (A) (A)
                 (A) (A) (A) (A) (A) (A) (A) (A) (A) (A) (A) (A)
                 (A) (A) (A) (A) (A) (A) (A) (A) (A) (A) (A) (A)
                 (A) (A) (A) (A) (A) (A) (A) (A) (A) (A) (A) (A)
                 (A) (A) (A) (A) (A) (A) (A) (A) (A) (A) (A) (A)
                 (A) (A) (A) (A) (A) (A) (A) (A) (A) (A) (A) (A)
                 (A) (A) (A) (A) (A) (A) (A) (A) (A) (A) (A) (A)
                 (A) (A) (A) (A) (A) (A) (A) (A) (A) (A) (A) (A)
                 (A) (A) (A) (A) (A) (A) (A) (A) (A) (A) (A) (A)
                 (A) (A) (A) (A) (A) (A) (A) (A) (A) (A) (A) (A)
                 (A) (A) (A) (A) (A) (A) (A) (A) (A) (A) (A) (A)
                 (A) (A) (A) (A) (A) (A) (A) (A) (A) (A) (A) (A)
                 (A) (A) (A) (A) (A) (A) (A) (A) (A) (A) (A) (A)
                 (A) (A) (A) (A) (A) (A) (A) (A) (A) (A) (A) (A)
                 (A) (A) (A) (A) (A) (A) (A) (A) (A) (A) (A) (A)
                 (A) (A) (A) (A) (A) (A) (A) (A) (A) (A) (A) (A)
                 (A) (A) (A) (A) (A) (A) (A) (A) (A) (A) (A) (A)
                 (A) (A) (A) (A) (A) (A) (A) (A) (A) (A) (A) (A)
                 (A) (A) (A) (A) (A) (A) (A) (A) (A) (A) (A) (A)
                 (A) (A) (A) (A) (A) (A) (A) (A) (A) (A) (A) (A)
                 (A) (A) (A) (A) (A) (A) (A) (A) (A) (A) (A) (A)
                 (A) (A) (A) (A) (A) (A) (A) (A) (A) (A) (A) (A)
                 (A) (A) (A) (A) (A) (A) (A) (A) (A) (A) (A) (A)
                 (A) (A) (A) (A) (A) (A) (A) (A) (A) (A) (A) (A)
                 (A) (A) (A) (A) (A) (A) (A) (A) (A) (A) (A) (A)
                 (A) (A) (A) (A) (A) (A) (A) (A) (A) (A) (A) (A)
                 (A) (A) (A) (A) (A) (A) (A) (A) (A) (A) (A) (A)
                 (A) (A) (A) (A) (A) (A) (A) (A) (A) (A) (A) (A)
                 (A) (A) (A) (A) (A) (A) (A) (A) (A) (A) (A) (A)
                 (A) (A) (A) (A) (A) (A) (A) (A) (A) (A) (A) (A)
                 (A) (A) (A) (A) (A) (A) (A) (A) (A) (A) (A) (A)
                 (A) (A) (A) (A) (A) (A) (A) (A) (A) (A) (A) (A)
                 (A) (A) (A) (A) (A) (A) (A) (A) (A) (A) (A) (A)
                 (A) (A) (A) (A) (A) (A) (A) (A) (A) (A) (A) (A)
                 (A) (A) (A) (A) (A) (A) (A) (A) (A) (A) (A) (A)
                 (A) (A) (A) (A) (A) (A) (A) (A) (A) (A) (A) (A)
                 (A) (A) (A) (A) (A) (A)
 The electronic state is 1-A.
 Alpha  occ. eigenvalues --  -77.38815 -19.32630 -14.58710 -14.56983 -10.40391
 Alpha  occ. eigenvalues --  -10.40320 -10.39063 -10.38616 -10.37808 -10.35999
 Alpha  occ. eigenvalues --  -10.35970 -10.34594 -10.34243 -10.33970 -10.33887
 Alpha  occ. eigenvalues --  -10.33082 -10.32435 -10.31967 -10.31960 -10.31716
 Alpha  occ. eigenvalues --  -10.31629 -10.31575 -10.31517 -10.31316 -10.31161
 Alpha  occ. eigenvalues --  -10.30988 -10.30659  -6.79564  -4.94629  -4.94417
 Alpha  occ. eigenvalues --   -4.94237  -1.16654  -1.15947  -1.13475  -0.99121
 Alpha  occ. eigenvalues --   -0.97786  -0.96849  -0.94749  -0.92325  -0.91485
 Alpha  occ. eigenvalues --   -0.89302  -0.87165  -0.86500  -0.85037  -0.84258
 Alpha  occ. eigenvalues --   -0.80382  -0.79555  -0.77880  -0.77157  -0.74765
 Alpha  occ. eigenvalues --   -0.73228  -0.72132  -0.71265  -0.70568  -0.70257
 Alpha  occ. eigenvalues --   -0.68746  -0.64556  -0.64077  -0.62742  -0.61916
 Alpha  occ. eigenvalues --   -0.61024  -0.60015  -0.59821  -0.59326  -0.58003
 Alpha  occ. eigenvalues --   -0.57195  -0.56723  -0.56061  -0.56011  -0.55584
 Alpha  occ. eigenvalues --   -0.55236  -0.54929  -0.54508  -0.54181  -0.53375
 Alpha  occ. eigenvalues --   -0.51131  -0.50505  -0.49757  -0.49418  -0.49366
 Alpha  occ. eigenvalues --   -0.47986  -0.47485  -0.46320  -0.46059  -0.45359
 Alpha  occ. eigenvalues --   -0.44156  -0.42974  -0.41940  -0.40968  -0.39912
 Alpha  occ. eigenvalues --   -0.39079  -0.38654  -0.37587  -0.34894  -0.34119
 Alpha  occ. eigenvalues --   -0.33707  -0.33397  -0.32690
 Alpha virt. eigenvalues --   -0.03388  -0.02076   0.00239   0.01818   0.02820
 Alpha virt. eigenvalues --    0.04484   0.04624   0.04862   0.05184   0.05717
 Alpha virt. eigenvalues --    0.06171   0.06610   0.07485   0.07966   0.08059
 Alpha virt. eigenvalues --    0.08263   0.08592   0.09014   0.09312   0.09459
 Alpha virt. eigenvalues --    0.09748   0.10113   0.10563   0.10620   0.10891
 Alpha virt. eigenvalues --    0.11708   0.11802   0.12425   0.12710   0.13157
 Alpha virt. eigenvalues --    0.13338   0.13541   0.13873   0.14493   0.14708
 Alpha virt. eigenvalues --    0.15058   0.15237   0.15558   0.15788   0.16037
 Alpha virt. eigenvalues --    0.16415   0.16685   0.17098   0.17392   0.17838
 Alpha virt. eigenvalues --    0.17898   0.18190   0.18419   0.18669   0.18930
 Alpha virt. eigenvalues --    0.19178   0.19415   0.19852   0.20138   0.20513
 Alpha virt. eigenvalues --    0.20545   0.20711   0.21114   0.21228   0.21673
 Alpha virt. eigenvalues --    0.21869   0.22090   0.22195   0.22570   0.22970
 Alpha virt. eigenvalues --    0.23217   0.23537   0.23607   0.23871   0.24060
 Alpha virt. eigenvalues --    0.24572   0.24768   0.24836   0.25316   0.25383
 Alpha virt. eigenvalues --    0.25698   0.25996   0.26237   0.26727   0.26981
 Alpha virt. eigenvalues --    0.27175   0.27253   0.27509   0.27591   0.28086
 Alpha virt. eigenvalues --    0.28328   0.28490   0.28811   0.28859   0.29013
 Alpha virt. eigenvalues --    0.29208   0.29629   0.29726   0.30099   0.30173
 Alpha virt. eigenvalues --    0.30288   0.30508   0.30965   0.31240   0.31667
 Alpha virt. eigenvalues --    0.31895   0.32142   0.32356   0.32380   0.32625
 Alpha virt. eigenvalues --    0.33040   0.33094   0.33631   0.33925   0.34365
 Alpha virt. eigenvalues --    0.34591   0.34742   0.34813   0.35322   0.35388
 Alpha virt. eigenvalues --    0.35603   0.35814   0.36408   0.36716   0.37028
 Alpha virt. eigenvalues --    0.37165   0.37602   0.37685   0.38150   0.38440
 Alpha virt. eigenvalues --    0.38576   0.38697   0.39161   0.39473   0.39711
 Alpha virt. eigenvalues --    0.39875   0.40165   0.40457   0.40671   0.41177
 Alpha virt. eigenvalues --    0.41512   0.41692   0.42351   0.42622   0.43103
 Alpha virt. eigenvalues --    0.43432   0.43771   0.44656   0.44751   0.45456
 Alpha virt. eigenvalues --    0.46051   0.46570   0.47055   0.47481   0.47925
 Alpha virt. eigenvalues --    0.48632   0.48947   0.50107   0.50689   0.50945
 Alpha virt. eigenvalues --    0.51389   0.53259   0.53949   0.54724   0.56126
 Alpha virt. eigenvalues --    0.57371   0.59674   0.61771   0.62214   0.63423
 Alpha virt. eigenvalues --    0.65097   0.65430   0.67524   0.68653   0.69497
 Alpha virt. eigenvalues --    0.70871   0.72572   0.73787   0.75450   0.76756
 Alpha virt. eigenvalues --    0.77076   0.77338   0.77843   0.78129   0.78476
 Alpha virt. eigenvalues --    0.79095   0.79676   0.79906   0.80774   0.80828
 Alpha virt. eigenvalues --    0.81289   0.81937   0.82253   0.82632   0.83466
 Alpha virt. eigenvalues --    0.83843   0.84344   0.85518   0.85754   0.85957
 Alpha virt. eigenvalues --    0.86887   0.87222   0.87807   0.88272   0.89047
 Alpha virt. eigenvalues --    0.89202   0.90363   0.90634   0.91084   0.91629
 Alpha virt. eigenvalues --    0.92495   0.93289   0.93955   0.94580   0.95230
 Alpha virt. eigenvalues --    0.95669   0.96846   0.97144   0.97945   0.98152
 Alpha virt. eigenvalues --    0.98823   0.99158   0.99683   1.00223   1.00661
 Alpha virt. eigenvalues --    1.01059   1.01610   1.01763   1.02243   1.02636
 Alpha virt. eigenvalues --    1.02765   1.03273   1.03865   1.04135   1.04376
 Alpha virt. eigenvalues --    1.05064   1.05659   1.06142   1.07103   1.08249
 Alpha virt. eigenvalues --    1.08973   1.09235   1.10218   1.10596   1.10852
 Alpha virt. eigenvalues --    1.11833   1.12403   1.13439   1.13803   1.14238
 Alpha virt. eigenvalues --    1.14887   1.15848   1.16138   1.16526   1.16752
 Alpha virt. eigenvalues --    1.17827   1.18069   1.19370   1.20037   1.20383
 Alpha virt. eigenvalues --    1.21677   1.22718   1.23306   1.23888   1.24260
 Alpha virt. eigenvalues --    1.24456   1.25560   1.26164   1.26985   1.27755
 Alpha virt. eigenvalues --    1.28653   1.28704   1.30316   1.31329   1.32038
 Alpha virt. eigenvalues --    1.33017   1.33227   1.34452   1.35084   1.35281
 Alpha virt. eigenvalues --    1.35648   1.37701   1.38906   1.40464   1.40803
 Alpha virt. eigenvalues --    1.41478   1.42319   1.43019   1.43603   1.44561
 Alpha virt. eigenvalues --    1.46380   1.47946   1.48125   1.49075   1.49706
 Alpha virt. eigenvalues --    1.50588   1.51025   1.51253   1.51756   1.52691
 Alpha virt. eigenvalues --    1.52944   1.53951   1.54028   1.54763   1.55159
 Alpha virt. eigenvalues --    1.55746   1.56228   1.56573   1.57376   1.57561
 Alpha virt. eigenvalues --    1.57964   1.58743   1.59206   1.60568   1.61095
 Alpha virt. eigenvalues --    1.63254   1.64057   1.64545   1.64964   1.66932
 Alpha virt. eigenvalues --    1.68300   1.69614   1.71371   1.72650   1.75643
 Alpha virt. eigenvalues --    1.76256   1.76995   1.80090   1.81004   1.82706
 Alpha virt. eigenvalues --    1.84284   1.86196   1.88251   1.89259   1.91362
 Alpha virt. eigenvalues --    1.94721   1.96348   1.97019   1.97466   1.98261
 Alpha virt. eigenvalues --    1.99352   2.00956   2.01515   2.03051   2.04768
 Alpha virt. eigenvalues --    2.06481   2.06736   2.06926   2.07724   2.08674
 Alpha virt. eigenvalues --    2.10779   2.11513   2.12742   2.14262   2.15471
 Alpha virt. eigenvalues --    2.16016   2.16761   2.17375   2.18417   2.20091
 Alpha virt. eigenvalues --    2.21107   2.21610   2.22239   2.22703   2.23237
 Alpha virt. eigenvalues --    2.23765   2.24053   2.24740   2.25477   2.25845
 Alpha virt. eigenvalues --    2.26184   2.26922   2.27232   2.27470   2.28124
 Alpha virt. eigenvalues --    2.28415   2.29219   2.29428   2.30392   2.31551
 Alpha virt. eigenvalues --    2.31977   2.32833   2.33920   2.34913   2.35377
 Alpha virt. eigenvalues --    2.36772   2.37719   2.38136   2.39202   2.39837
 Alpha virt. eigenvalues --    2.40107   2.41113   2.42164   2.43204   2.44085
 Alpha virt. eigenvalues --    2.44851   2.46843   2.49255   2.64986   2.66102
 Alpha virt. eigenvalues --    2.67931   2.68792   2.68849   2.69982   2.70792
 Alpha virt. eigenvalues --    2.71860   2.72161   2.72290   2.72754   2.74236
 Alpha virt. eigenvalues --    2.75193   2.76710   2.76855   2.77623   2.78556
 Alpha virt. eigenvalues --    2.78776   2.80466   2.80943   2.82426   2.84843
 Alpha virt. eigenvalues --    2.85239   2.87796   2.88474   2.88994   2.90343
 Alpha virt. eigenvalues --    2.91656   2.92430   2.94035   2.94799   2.96441
 Alpha virt. eigenvalues --    2.97437   3.01281   3.11237   3.15719   3.16300
 Alpha virt. eigenvalues --    3.20112   3.43463   3.47383   3.47837   3.48190
 Alpha virt. eigenvalues --    3.74404   4.27348   4.31640   4.36879   4.38477
 Alpha virt. eigenvalues --    4.40512   4.41216   4.42130   4.42653   4.44362
 Alpha virt. eigenvalues --    4.46152   4.48092   4.49093   4.50149   4.52170
 Alpha virt. eigenvalues --    4.52720   4.57672   4.59084   4.60751   4.62046
 Alpha virt. eigenvalues --    4.65110   4.67006   4.75225   4.76156   4.83072
 Alpha virt. eigenvalues --    4.85473   4.91682
          Condensed to atoms (all electrons):
               1          2          3          4          5          6
     1  C   13.935682  -7.986915  -0.926487   0.650802   0.594340   0.342468
     2  C   -7.986915  23.428533  -8.024854  -1.575434  -2.186327  -0.067100
     3  C   -0.926487  -8.024854  31.427809  -8.147231   0.363843  -0.017190
     4  C    0.650802  -1.575434  -8.147231  18.112253  -4.143453   0.022852
     5  C    0.594340  -2.186327   0.363843  -4.143453  10.971895  -0.013959
     6  H    0.342468  -0.067100  -0.017190   0.022852  -0.013959   0.440877
     7  H   -0.199660   0.267818   0.264281  -0.098969   0.022615  -0.003329
     8  H    0.014438  -0.026823   0.072258   0.079856   0.068483   0.000012
     9  H   -0.004386   0.008999   0.044938  -0.048871   0.309602  -0.000113
    10  P    0.925081   2.132225  -9.802030   0.356259   0.497132  -0.000672
    11  C    0.395265  -0.843788   0.279812  -0.195316  -0.293482   0.000370
    12  C   -0.536591   3.683105   0.738377  -4.916650  -0.074499  -0.001153
    13  C    0.357907  -4.034895  -0.748070   5.268381   0.732917   0.000957
    14  C   -0.065231   0.391825  -0.287861   0.138153  -0.094653  -0.000211
    15  H   -0.003935  -0.002813   0.010144  -0.014834   0.005085   0.000000
    16  C    0.057249   0.108968   0.734742  -0.166240  -0.495166  -0.000034
    17  H    0.005838   0.000377   0.062036  -0.062013  -0.046036  -0.000000
    18  H   -0.000385  -0.000870   0.001530   0.000853   0.000188  -0.000000
    19  H    0.000187   0.002413   0.014621  -0.004498  -0.012182  -0.000000
    20  C    0.055476   2.048705  -3.058957   1.119918  -0.174376   0.004661
    21  C    1.269304  -2.575855   2.432873  -0.780666   0.521780   0.002218
    22  C   -0.989094  -0.059998   1.343241  -0.348781  -0.193854  -0.000651
    23  C   -1.567541   0.980990  -0.789559   0.270305  -0.072081  -0.004474
    24  H    0.040641  -0.439104   0.452468  -0.110019   0.048786  -0.000609
    25  C   -0.000033  -0.090120   0.190091  -0.062675  -0.006210  -0.000257
    26  H   -0.000880   0.008188   0.029748  -0.008269  -0.000532  -0.000000
    27  C    0.014192  -0.049469   0.082511  -0.042239   0.012310  -0.000111
    28  H   -0.002313   0.004965  -0.000963   0.001412  -0.000429   0.000000
    29  H    0.000098  -0.000279   0.000682  -0.000125   0.000015  -0.000000
    30  H   -0.000323   0.001062  -0.001099   0.000240  -0.000040  -0.000000
    31  C    0.312186   0.727621  -2.524445   0.890579  -0.035526   0.047170
    32  H    0.015083  -0.029315  -0.021021   0.032261   0.006395  -0.002934
    33  O   -0.015853  -0.361353   1.055094  -0.040803  -0.049973   0.000012
    34  C    0.281720   0.908587  -1.097900  -0.268394   0.213423   0.000570
    35  C    0.505873   0.598235  -2.312495   0.371652   0.071182   0.000203
    36  C   -1.118839  -0.754158   3.809158  -0.592847  -0.094686  -0.002158
    37  C    0.043748   0.110557  -0.076456   0.010138  -0.016478   0.000008
    38  H   -0.000433  -0.000745   0.006096  -0.002405  -0.000416  -0.000000
    39  C   -0.363619  -0.357063   1.191252  -0.268892  -0.000889  -0.000399
    40  H    0.029888   0.040522  -0.027588  -0.002573  -0.005968  -0.000006
    41  H    0.000002   0.000165   0.000308  -0.000140  -0.000017   0.000000
    42  H   -0.001072  -0.000263  -0.000209   0.000133  -0.000089   0.000000
    43  N   -0.003888   0.009410  -0.017396   0.004861  -0.000023  -0.000001
    44  C    0.028835   0.113472  -0.374358   0.157161   0.004576   0.000050
    45  H    0.000134  -0.001577   0.000855   0.000623  -0.000247   0.000000
    46  H    0.000923   0.007495  -0.025811   0.004018   0.000850   0.000000
    47  H   -0.002959   0.002870   0.024052  -0.009702  -0.001630  -0.000000
    48  N   -0.001790   0.003153  -0.036898   0.048530  -0.027894   0.000002
    49  H    0.000056  -0.000691  -0.001975   0.000937   0.002202   0.000000
    50  H    0.000003   0.000042  -0.000127   0.000026   0.000006  -0.000000
               7          8          9         10         11         12
     1  C   -0.199660   0.014438  -0.004386   0.925081   0.395265  -0.536591
     2  C    0.267818  -0.026823   0.008999   2.132225  -0.843788   3.683105
     3  C    0.264281   0.072258   0.044938  -9.802030   0.279812   0.738377
     4  C   -0.098969   0.079856  -0.048871   0.356259  -0.195316  -4.916650
     5  C    0.022615   0.068483   0.309602   0.497132  -0.293482  -0.074499
     6  H   -0.003329   0.000012  -0.000113  -0.000672   0.000370  -0.001153
     7  H    0.513433  -0.000172   0.000016  -0.204639   0.005963   0.006612
     8  H   -0.000172   0.591617  -0.004940   0.005086   0.007717   0.040743
     9  H    0.000016  -0.004940   0.443439   0.004164   0.011847   0.006981
    10  P   -0.204639   0.005086   0.004164  38.473232  -4.040768   3.767984
    11  C    0.005963   0.007717   0.011847  -4.040768  26.019927 -12.278515
    12  C    0.006612   0.040743   0.006981   3.767984 -12.278515  32.616529
    13  C    0.002069  -0.012289  -0.017448  -4.049081  -2.518489 -13.068007
    14  C    0.001946   0.003458  -0.000820  -1.346553  -0.093450  -5.394507
    15  H    0.000006  -0.000010  -0.000000   0.126611  -0.202270   0.458040
    16  C    0.000756  -0.001954   0.002429  -0.470331   0.691707   0.142319
    17  H    0.000002   0.001954   0.000010   0.038646   0.072855  -0.060265
    18  H    0.000000   0.000001  -0.000000   0.006264   0.100158  -0.221651
    19  H   -0.000000  -0.000156  -0.000009   0.003111   0.105894   0.032652
    20  C    0.025948  -0.001764   0.000985  -4.499681   0.344784  -0.372263
    21  C    0.109725   0.017431  -0.000647  -2.036539  -0.074459  -0.009789
    22  C   -0.007675  -0.006279   0.000122   0.912568   0.585715   0.188235
    23  C   -0.021283   0.003159   0.000191   1.862638  -0.172390   0.026365
    24  H   -0.000377  -0.000018  -0.000001   0.018005   0.031544  -0.016321
    25  C   -0.001174  -0.002131   0.000001  -0.591117   0.587798  -0.137520
    26  H    0.000001   0.000000  -0.000000  -0.168535  -0.034377   0.019200
    27  C    0.000404   0.000365   0.000001  -0.096430   0.028088   0.006360
    28  H    0.000027   0.000000  -0.000000   0.008209  -0.000601   0.000059
    29  H   -0.000000   0.000000  -0.000000   0.006687  -0.000064  -0.000004
    30  H    0.000001  -0.000000   0.000000   0.002170   0.000035  -0.000020
    31  C   -0.033510   0.005204  -0.007582   0.124098  -0.137364  -0.037188
    32  H   -0.000138  -0.000145  -0.002749   0.007475   0.000253  -0.000214
    33  O    0.002080  -0.002520  -0.000067  -0.954017  -0.355309  -0.502725
    34  C   -0.020999   0.005260   0.000929  -0.005195  -1.629348   0.762284
    35  C    0.000148  -0.009697   0.000062  -3.375138   1.967299   1.011533
    36  C    0.087143   0.006531  -0.000332   0.073457  -1.937106  -0.467532
    37  C   -0.003947   0.000389  -0.000002  -0.752588   0.089696   0.062989
    38  H   -0.000000  -0.000001  -0.000000  -0.010436   0.041437  -0.014181
    39  C    0.037601  -0.000278  -0.000003  -1.965803   0.407358  -0.182237
    40  H    0.002520  -0.000002   0.000000   0.060384  -0.038294   0.032644
    41  H    0.000000   0.000000  -0.000000   0.000783  -0.004145   0.004368
    42  H   -0.000001  -0.000000   0.000000  -0.010241   0.001932   0.002835
    43  N    0.000171  -0.000006   0.000000  -0.063107  -0.133962   0.134449
    44  C    0.001618  -0.003732   0.000081  -0.550170  -0.131249   0.011817
    45  H    0.000000   0.000013  -0.000000  -0.007509  -0.006689  -0.005586
    46  H    0.000000  -0.000004   0.000000  -0.009531  -0.028980   0.009377
    47  H   -0.000001  -0.000054  -0.000000   0.022829   0.005093   0.003281
    48  N   -0.000001  -0.001032  -0.000196   0.017859  -0.002307   0.000362
    49  H    0.000000  -0.000001   0.000000  -0.004056  -0.020481   0.043703
    50  H    0.000000   0.000000   0.000000   0.000543   0.001280  -0.003682
              13         14         15         16         17         18
     1  C    0.357907  -0.065231  -0.003935   0.057249   0.005838  -0.000385
     2  C   -4.034895   0.391825  -0.002813   0.108968   0.000377  -0.000870
     3  C   -0.748070  -0.287861   0.010144   0.734742   0.062036   0.001530
     4  C    5.268381   0.138153  -0.014834  -0.166240  -0.062013   0.000853
[...]
 734,0.00001714,-0.00001312,0.00000146,-0.00000014,0.00000033,-0.006102
 89,0.01360057,0.01009710,0.00002639,-0.00007416,-0.00001285,-0.0000138
 7,0.00001578,-0.00002306,-0.00002039,-0.00001005,0.00001488,0.00000429
 ,-0.00001887,-0.00000382,0.00000396,-0.00000943,0.00000086,-0.00000456
 ,-0.00000121,-0.00001938,0.00000617,0.00000622,0.00000347,-0.00000072,
 0.00000039,-0.00000175,-0.00000144,-0.00000162,-0.00000164,-0.00000004
 ,0.00001142,0.00001071,0.06751799,-0.23042622,-0.12068801,0.00456802,-
 0.01443082,-0.01185617,0.00502017,-0.00797012,-0.00411771,-0.07081466,
 0.24010446,0.00000988,0.00004156,-0.00002921,0.00009806,0.00005093,0.0
 0011362,-0.00021078,0.00026368,-0.00014518,-0.00001854,0.00015460,0.00
 000017,0.00001666,-0.00001693,-0.00000856,-0.00000231,0.00001683,0.000
 01046,-0.00000568,-0.00000418,-0.00000227,-0.00010891,-0.00006158,0.00
 003711,0.00000186,0.00000508,0.00000935,0.00137969,-0.00540372,0.00163
 834,-0.00006237,0.00052497,-0.00003606,0.00018723,-0.00007188,0.000051
 97,0.00016456,-0.00006763,0.00001390,0.00001052,0.00002721,-0.00006120
 ,-0.00000644,0.00001658,0.00000605,-0.00012862,0.00000633,0.00002606,-
 0.00008901,0.00010442,-0.00008013,0.00002211,-0.00000868,-0.00000175,0
 .00001343,0.00000440,0.00000350,-0.00005872,0.00069217,-0.00066469,-0.
 00034389,0.00059684,-0.00013125,-0.00020629,-0.00039599,0.00007420,-0.
 00023549,-0.00001245,0.00003049,0.00001943,0.00004015,-0.00002704,0.00
 007761,-0.00002952,-0.00004643,0.00002439,0.00003942,0.00003364,0.0001
 0357,0.00011499,0.00006288,0.00000828,-0.00000721,-0.00001225,0.000015
 68,0.00001305,0.00000489,0.00001681,0.00000004,0.00000783,0.00000955,0
 .00001528,0.00000015,-0.00000169,0.00000419,0.00000286,0.01540227,-0.0
 0767275,-0.01848329,-0.00011949,0.00019422,0.00006576,0.00000382,-0.00
 002237,-0.00001126,0.00004034,-0.00003727,-0.00005912,0.00002053,-0.00
 000634,0.00006844,-0.00002056,0.00001973,0.00004296,-0.00001282,0.0000
 1516,0.00000076,-0.00000952,0.00000497,0.00000628,0.00000035,0.0000014
 8,-0.00000278,0.00000041,-0.00000282,-0.00000855,-0.00001792,0.0000372
 0,-0.00005197,0.04136876,-0.11362211,-0.12669144,-0.00642357,0.0155344
 0,0.01346057,0.00492044,-0.01397920,-0.00686983,-0.05596439,0.12282643
 ,0.13770084,0.00035326,0.00028899,0.00041202,-0.00021310,-0.00072193,0
 .00051689,-0.00180637,0.00146673,0.00028317,-0.00034156,0.00069927,-0.
 00018504,-0.00004758,-0.00036831,-0.00012347,0.00005144,0.00008976,0.0
 0001146,-0.00009358,-0.00002752,-0.00001662,0.00004591,-0.00002199,-0.
 00011061,0.00001792,0.00003068,0.00008519,0.00816133,-0.00150756,-0.00
 051806,0.00418882,-0.00805949,0.00241283,-0.02818929,0.03708589,-0.018
 50125,-0.04859054,-0.01946062,0.02325145,-0.18973941,0.09967584,-0.047
 77316,-0.00661937,0.00082103,0.00198238,-0.22321450,-0.09660717,0.0921
 0659,-0.00551403,0.00313493,0.00032798,0.01409763,-0.01762046,0.010112
 30,0.01333202,0.01037298,-0.00882735,-0.00025530,-0.00012509,0.0000694
 8,-0.00011989,-0.00006749,-0.00007002,-0.00013147,0.00013630,0.0000863
 4,-0.00003901,0.00002511,-0.00000048,0.00003230,-0.00002203,-0.0000223
 8,-0.00000839,-0.00002870,-0.00004146,0.00004136,-0.00000897,-0.000004
 92,-0.00007327,0.00002311,0.00001244,-0.00003791,0.00001724,0.00001007
 ,-0.00004209,-0.00000876,-0.00000793,-0.00002147,0.00000156,-0.0000012
 6,0.00000828,0.00046955,-0.00023942,0.00000013,0.00004728,0.00002886,-
 0.00317856,-0.00069156,0.00140794,-0.00119096,0.00080436,-0.00015137,-
 0.00016218,-0.00026100,-0.00073344,0.00003492,-0.00035441,-0.00046654,
 -0.00000508,-0.00021344,0.00071504,0.00005870,0.00035655,0.00010837,0.
 00006063,0.00017547,0.00000192,-0.00004441,-0.00000914,0.00003577,-0.0
 0003661,0.00000569,-0.00004174,0.00001654,-0.00002170,-0.00006658,-0.0
 0008877,0.00034705,-0.00058032,0.00066629,0.00025863,-0.00063929,-0.00
 008511,-0.00010724,0.00014799,-0.00020593,-0.00007863,0.00011488,-0.00
 014881,-0.00000341,0.00013485,0.90638757,-0.00012268,0.00016137,0.0000
 7103,0.00033449,0.00037221,-0.00024757,0.00125259,-0.00070824,-0.00070
 200,0.00029477,0.00002277,0.00038647,-0.00016154,-0.00018224,0.0000526
 6,0.00000775,-0.00003702,-0.00000118,0.00001477,0.00001146,0.00001842,
 0.00005878,0.00004934,-0.00008406,-0.00002424,-0.00000654,-0.00002678,
 -0.00111119,-0.00170566,0.00087631,-0.00920829,-0.05948057,0.03568618,
 0.08504844,0.00820145,-0.01286934,-0.06754019,0.04007724,-0.00920262,0
 .03891734,-0.25571561,0.12391474,0.00127585,0.00425871,0.00273698,-0.0
 3468448,-0.21866393,0.11097070,0.00245746,0.00371641,0.00307584,0.0148
 9079,-0.01684085,0.01050505,-0.02251611,-0.01540328,0.01610178,0.00003
 894,0.00012199,-0.00007706,0.00003170,-0.00002441,0.00000928,0.0000291
 2,-0.00002587,-0.00001243,0.00000729,0.00000167,-0.00000026,-0.0000010
 0,0.00001841,0.00001766,0.00001310,0.00001104,0.00001489,-0.00000264,-
 0.00000021,-0.00000130,0.00000772,-0.00000492,0.00000677,0.00000664,-0
 .00000227,-0.00000278,0.00001054,0.00000142,0.00000062,0.00000501,0.00
 000100,-0.00000004,-0.00010789,-0.00003625,-0.00021133,0.00002137,-0.0
 0001583,-0.00002311,-0.00030745,0.00027387,-0.00037941,0.00061002,-0.0
 0017723,0.00010002,0.00055673,0.00016247,0.00084346,0.00007281,0.00027
 131,-0.00024987,-0.00005697,0.00039263,-0.00091950,-0.00003433,-0.0000
 1368,0.00009082,-0.00014673,0.00014789,0.00011039,0.00001254,0.0000057
 9,-0.00000591,0.00000388,-0.00000863,0.00001378,-0.00000081,0.00000012
 ,0.00000895,0.00017214,-0.00052802,0.00042704,-0.00000620,0.00019994,-
 0.00010879,0.00001821,0.00000968,-0.00001009,-0.00002678,-0.00001911,0
 .00002070,-0.00003827,-0.00001550,0.00004416,-0.06901793,0.57882244,-0
 .00003787,-0.00018533,-0.00014410,-0.00029242,-0.00017036,0.00017103,-
 0.00050456,0.00026889,0.00066302,-0.00037138,-0.00005261,-0.00032146,0
 .00012780,0.00022169,-0.00000045,-0.00002091,0.00001233,-0.00000238,0.
 00005250,-0.00001123,-0.00001587,-0.00005330,-0.00003838,0.00006479,0.
 00000190,0.00000927,0.00001155,-0.00090069,0.00099744,-0.00121483,0.00
 383416,0.03509932,-0.03487446,-0.05167774,-0.00495114,0.02183662,0.056
 53846,-0.01717178,0.01275570,-0.00563567,0.11376499,-0.14190723,0.0017
 6473,0.00284516,0.00655066,0.04972977,0.12122099,-0.15792824,0.0008216
 2,0.00293580,0.00656784,-0.01223659,0.01600179,-0.00674704,0.01363848,
 0.01051284,-0.00709893,0.00002524,-0.00001488,0.00009322,-0.00001971,0
 .00000346,0.00003626,0.00002653,-0.00001982,-0.00000314,0.00000219,0.0
 0000518,-0.00001708,-0.00000658,-0.00001132,-0.00001352,-0.00000063,0.
 00000572,0.00000187,-0.00000450,-0.00000157,0.00000082,0.00000088,-0.0
 0000260,-0.00000487,0.00000114,-0.00000010,-0.00000029,0.00000432,-0.0
 0000043,-0.00000005,-0.00000015,-0.00000197,-0.00000054,0.00010056,-0.
 00006181,0.00021221,-0.00001013,0.00000379,0.00001021,0.00072000,-0.00
 007808,-0.00007881,-0.00028692,0.00011176,0.00001317,-0.00005913,0.000
 00942,-0.00026881,-0.00004606,-0.00007024,0.00017822,0.00001606,-0.000
 23899,0.00039797,0.00002004,-0.00010867,-0.00005701,0.00010305,-0.0000
 8915,-0.00009276,-0.00000913,-0.00000613,0.00000120,0.00001727,0.00000
 667,0.00001206,-0.00000086,0.00000017,0.00000099,-0.00005011,0.0002595
 3,-0.00010813,-0.00008294,-0.00017950,0.00020054,0.00000486,0.00000613
 ,-0.00001526,0.00005440,0.00003001,-0.00003679,0.00004828,0.00001540,-
 0.00005676,-0.08406251,-0.29798411,0.34672758,-0.00006198,-0.00004683,
 -0.00005507,0.00003054,0.00009688,-0.00010501,0.00036046,-0.00026885,-
 0.00002187,0.00002863,-0.00010639,0.00002216,0.00000833,0.00006097,0.0
 0002039,-0.00001031,-0.00001759,-0.00000185,0.00002087,0.00000392,0.00
 000534,-0.00000723,0.00000375,0.00001946,-0.00000361,-0.00000543,-0.00
 001508,-0.00175258,0.00019343,0.00008786,0.00051401,-0.00035039,0.0000
 0186,0.00342729,0.00170138,-0.00055178,0.00252758,-0.00215556,0.002273
 92,-0.00695119,0.00242926,-0.00048428,-0.00000805,-0.00019946,0.000214
 47,-0.01302276,0.00132417,0.00134836,-0.00018147,0.00034346,-0.0001127
 0,0.00097791,-0.00068639,-0.00034639,0.00104245,-0.00017839,-0.0007467
 2,0.00006523,0.00005084,-0.00001988,0.00001562,0.00001575,0.00001061,0
 .00002855,-0.00002439,-0.00000805,0.00000098,-0.00000210,0.00000369,-0
 .00000784,0.00000505,0.00000333,-0.00000155,0.00000239,0.00000392,-0.0
 0000813,0.00000167,0.00000048,0.00001944,-0.00000593,-0.00000289,0.000
 00797,-0.00000359,-0.00000188,0.00000871,0.00000180,0.00000147,0.00000
 452,-0.00000035,0.00000004,-0.00000418,-0.00007817,0.00003447,0.000000
 89,-0.00000905,-0.00000601,0.00050930,0.00027215,-0.00037832,0.0002522
 5,-0.00015882,0.00004712,0.00002084,0.00004703,0.00015070,-0.00000989,
 0.00006610,0.00009456,-0.00000318,0.00005639,-0.00015871,-0.00001041,-
 0.00004999,-0.00001874,-0.00001492,-0.00003451,0.00000135,0.00000837,0
 .00000034,-0.00000666,0.00000193,-0.00000300,0.00000557,-0.00000194,0.
 00000522,0.00001317,0.00002217,-0.00007496,0.00011800,-0.00011978,-0.0
 0000573,0.00009361,0.00002509,0.00001686,-0.00002868,0.00003675,0.0000
 1467,-0.00001995,0.00002434,-0.00000194,-0.00002201,-0.43731343,0.0589
 4510,0.02873076,0.44950518,-0.00000932,-0.00000448,-0.00000112,0.00000
 507,-0.00000337,0.00001295,0.00001923,-0.00000727,0.00006021,0.0000047
 3,0.00000134,-0.00001766,-0.00000891,0.00001135,-0.00000202,0.00000060
 ,-0.00000046,-0.00000092,0.00000657,0.00000314,-0.00000553,0.00001130,
 0.00000325,-0.00000648,0.00000454,-0.00000014,-0.00000108,0.00014470,-
 0.00036645,-0.00030976,-0.00043308,-0.00206794,0.00045545,0.00247888,-
 0.00167918,0.00552547,-0.00271773,-0.00026601,0.00567242,0.02885799,-0
 .00080320,-0.00457240,0.00118241,0.00016620,0.00003804,-0.02533481,0.0
 0776514,-0.00107067,-0.00089758,0.00049374,0.00021187,-0.00038498,-0.0
 0084148,-0.00191439,-0.00049741,-0.00097179,-0.00195793,-0.00001670,0.
 00002809,0.00002916,-0.00000717,0.00000309,-0.00001080,0.00000250,0.00
 000749,0.00000494,-0.00000307,-0.00000169,0.00000292,0.00000188,-0.000
 00023,-0.00000017,-0.00000050,-0.00000180,-0.00000176,0.00000297,-0.00
 000046,-0.00000109,-0.00000193,0.00000192,0.00000067,-0.00000165,0.000
 00071,0.00000014,-0.00000155,-0.00000007,-0.00000060,-0.00000075,0.000
 00014,-0.00000010,-0.00000004,-0.00000632,0.00000668,0.00000382,-0.000
 00060,-0.00000151,-0.00022383,0.00004523,-0.00002635,-0.00011449,0.000
 08431,-0.00001609,-0.00000646,-0.00001006,0.00000614,0.00002334,-0.000
 01077,-0.00003344,0.00002273,0.00001017,-0.00001493,0.00001298,0.00002
 105,0.00002188,0.00000595,0.00001766,-0.00003092,-0.00000642,-0.000001
 34,0.00000140,-0.00000585,-0.00000011,-0.00000371,0.00000170,-0.000001
 21,-0.00000469,-0.00001118,0.00000605,0.00000876,0.00004787,0.00004086
 ,-0.00004339,0.00000254,-0.00000550,0.00001008,-0.00001162,-0.00000376
 ,0.00000455,-0.00000759,-0.00000269,0.00000982,0.05904543,-0.06767657,
 0.01710083,-0.06118384,0.06602203,-0.00003292,-0.00003751,-0.00003329,
 -0.00001795,-0.00001001,0.00001873,0.00003420,-0.00003656,0.00013484,-
 0.00001952,-0.00002031,-0.00006709,0.00000472,0.00005211,0.00000487,-0
 .00000344,0.00000038,-0.00000124,0.00001772,-0.00000178,-0.00000242,0.
 00001267,0.00000297,0.00000687,0.00000714,-0.00000226,-0.00000337,-0.0
 0001117,-0.00030530,-0.00056528,0.00000530,0.00042033,-0.00178946,-0.0
 0107400,0.00564193,0.00322308,0.00265260,0.00560344,0.00309841,-0.0187
 1073,-0.00005387,0.00293940,-0.00072926,0.00025211,0.00045795,0.019690
 80,-0.00559356,0.00035678,0.00075033,0.00000639,0.00044092,-0.00053242
 ,-0.00186837,-0.00236074,-0.00052536,-0.00202067,-0.00250651,0.0000028
 2,0.00001583,0.00006001,-0.00001064,0.00001501,-0.00001289,0.00000862,
 0.00000720,-0.00000415,0.00000010,-0.00000642,0.00000463,0.00000014,-0
 .00000293,0.00000037,-0.00000121,-0.00000070,0.00000154,0.00000146,-0.
 00000059,0.00000050,0.00000055,0.00000333,-0.00000358,-0.00000075,-0.0
 0000054,0.00000045,-0.00000025,-0.00000003,-0.00000002,-0.00000033,-0.
 00000045,0.00000042,0.00000917,-0.00003062,0.00004448,0.00000444,-0.00
 000151,0.00000003,0.00000808,-0.00011431,0.00000908,-0.00007110,0.0001
 2226,-0.00000581,-0.00002200,-0.00000405,0.00000196,0.00000582,-0.0000
 2447,-0.00003385,0.00002513,0.00000078,0.00001500,0.00001590,0.0000168
 6,0.00002084,0.00000282,0.00001775,-0.00001595,-0.00000301,-0.00000247
 ,0.00000272,-0.00000874,-0.00000078,-0.00000434,0.00000287,-0.00000052
 ,-0.00000445,-0.00001884,0.00001371,-0.00001668,0.00000853,-0.00001877
 ,0.00003207,-0.00000692,0.00000286,0.00000582,0.00000060,0.00000174,-0
 .00000265,0.00000500,-0.00000048,-0.00000168,0.02869365,0.01709681,-0.
 04552252,-0.03016834,-0.01913428,0.04207188,0.00001036,-0.00000656,0.0
 0000618,-0.00000602,0.00000788,0.00000276,0.00002454,0.00006811,-0.000
 07160,-0.00001554,-0.00003213,-0.00000679,0.00000360,0.00000707,-0.000
 00814,0.00000160,-0.00000083,-0.00000119,-0.00000884,-0.00001542,0.000
 00386,0.00000159,-0.00000069,0.00000109,-0.00000115,-0.00000225,-0.000
 00090,-0.00083769,-0.00027917,-0.00006915,0.00004233,0.00007895,-0.000
 08355,0.00001164,-0.00000801,-0.00002769,-0.00002206,-0.00000830,0.000
 00861,-0.00000416,0.00002152,0.00003346,0.00002398,0.00000936,0.000010
 29,-0.00001314,0.00001904,0.00000181,0.00000357,-0.00000324,-0.0000027
 4,-0.00000495,-0.00000258,-0.00000695,-0.00000258,0.00000048,0.0000019
 9,0.00002055,0.00013615,0.00017899,-0.00008073,-0.00001920,-0.00003674
 ,0.00000604,0.00005224,-0.00000199,-0.00000583,0.00001354,0.00002721,0
 .00000478,-0.00000111,0.00000056,-0.00000056,-0.00001861,-0.00000491,0
 .00001711,-0.00001030,0.00001641,-0.00000226,0.00001608,-0.00000300,-0
 .00000787,0.00000374,-0.00000429,-0.00001063,-0.00000203,0.00000229,-0
 .00000188,-0.00000101,0.00000251,-0.00000533,0.00000254,0.00000357,-0.
 00000004,-0.00000054,0.00000105,0.00000500,-0.00001867,0.00002341,-0.0
 0119453,-0.00018496,0.00008094,0.00580256,0.00398120,-0.00178237,0.005
 73867,0.00404566,0.00098812,0.00051476,-0.00227370,-0.01215812,0.00033
 980,0.00007167,-0.00048765,0.00148018,-0.00063419,0.01166714,0.0003310
 7,0.00017905,0.00041027,-0.00347356,-0.00139644,0.00026749,-0.00336802
 ,-0.00138644,0.00030682,-0.03653693,0.01238928,-0.01833294,0.00002746,
 0.00000143,-0.00000079,-0.00000421,-0.00000060,0.00000275,-0.00000173,
 0.00000106,-0.00000218,-0.00000033,0.00000256,-0.00000209,0.00000293,-
 0.00000018,-0.00001451,-0.00000176,-0.00000124,-0.00000229,0.03119822,
 0.00000178,0.00000684,-0.00000903,0.00000314,-0.00000737,0.00003378,-0
 .00001456,0.00001063,-0.00000346,-0.00000076,-0.00000237,-0.00000213,0
 .00000410,0.00000168,-0.00000288,0.00000082,-0.00000067,-0.00000064,0.
 00000890,0.00003590,0.00000815,-0.00000132,0.00000018,-0.00000081,-0.0
 0000024,0.00000042,0.00000048,-0.00018030,-0.00015676,-0.00013189,-0.0
 0002725,0.00001135,-0.00001364,0.00002607,-0.00000316,-0.00000339,0.00
 001479,0.00001035,0.00001476,-0.00004224,0.00003365,0.00001347,0.00001
 076,0.00000667,0.00000636,-0.00002344,0.00000520,-0.00000082,0.0000013
 4,-0.00000040,-0.00000208,-0.00000132,-0.00000015,-0.00000204,0.000000
 37,-0.00000020,0.00000068,0.00002744,0.00003589,0.00003336,-0.00005225
 ,0.00001305,-0.00001032,-0.00000816,0.00001898,-0.00002735,0.00000915,
 0.00001100,0.00001480,0.00000144,-0.00000099,0.00000122,-0.00001766,-0
 .00000235,0.00001057,0.00001656,0.00000641,0.00000665,0.00000187,-0.00
 000558,-0.00000900,-0.00000259,-0.00000012,-0.00000087,-0.00000328,0.0
 0000076,0.00000014,0.00000012,0.00000068,0.00000011,-0.00000302,-0.000
 00122,0.00000035,-0.00000065,0.00000037,-0.00000115,-0.00002988,-0.000
 01268,0.00003675,0.00057709,-0.00245879,0.00021914,0.00397103,-0.00297
 894,0.00355085,0.00388584,-0.00366432,-0.00304860,-0.00047807,0.006947
 63,0.03073275,0.00016174,0.00041321,0.00119614,-0.00305999,0.00256319,
 -0.03244309,0.00000171,0.00028355,-0.00126428,-0.00138617,-0.00012162,
 0.00025407,-0.00140704,-0.00014070,0.00007547,0.01277225,-0.07340900,-
 0.02574876,0.00002379,0.00000727,-0.00001068,-0.00000443,-0.00000108,0
 .00000398,-0.00000300,-0.00000046,-0.00000164,-0.00000242,0.00000106,0
 .00000228,0.00003512,-0.00002022,0.00000162,-0.00000695,0.00000202,0.0
 0000032,-0.01480022,0.07256125,-0.00000496,0.00000452,0.00000836,0.000
 02383,-0.00003826,-0.00000648,0.00002791,-0.00017230,0.00011602,-0.000
 00135,0.00012585,0.00000131,0.00001309,-0.00001299,0.00003174,0.000002
 45,0.00001019,0.00000183,-0.00001541,-0.00004305,-0.00001882,-0.000002
 35,-0.00000629,-0.00000823,0.00000600,0.00001109,0.00001141,-0.0001464
 1,0.00024798,-0.00169651,0.00001552,0.00000251,0.00029851,0.00017051,0
 .00001742,-0.00002849,0.00013969,0.00001933,-0.00003761,-0.00013228,0.
 00007866,-0.00000942,-0.00003284,-0.00004365,0.00001218,-0.00002300,-0
 .00004127,-0.00000024,-0.00000602,0.00000367,0.00000894,0.00001011,-0.
 00000249,0.00000258,0.00001570,0.00000100,-0.00000121,-0.00004639,0.00
 011152,0.00046561,-0.00008414,-0.00011316,-0.00006552,-0.00006475,-0.0
 0000168,0.00003033,-0.00007159,0.00003858,-0.00000709,0.00001118,-0.00
 000034,0.00001296,0.00005889,-0.00001290,0.00001440,0.00004354,0.00005
 304,-0.00000533,-0.00003807,0.00005726,0.00003293,-0.00002304,0.000014
 33,-0.00000032,-0.00001207,-0.00000811,-0.00000572,-0.00001308,0.00000
 407,0.00000168,0.00000042,0.00001686,0.00001126,0.00000203,0.00000477,
 0.00000406,-0.00011561,-0.00022610,0.00023885,0.00015328,0.00005968,0.
 00076077,-0.00104091,0.00233714,0.00243063,0.00033972,-0.00173972,0.00
 298587,-0.00089409,0.00031626,-0.01168260,0.00008864,-0.00028466,-0.00
 012797,0.00025201,-0.00215914,-0.00817590,-0.00014878,0.00020991,-0.00
 003403,0.00035935,-0.00017873,0.00111405,0.00019201,0.00046027,0.00111
 531,-0.01822929,-0.02558695,-0.44770412,0.00012385,0.00004018,-0.00007
 875,-0.00001527,-0.00001252,0.00001948,-0.00002111,-0.00000064,0.00000
 544,-0.00001954,0.00000109,0.00000963,0.00011540,-0.00008198,0.0000237
 9,-0.00002579,-0.00000057,0.00000434,0.01906302,0.02652031,0.45992011\
 \0.00000181,0.00000312,-0.00000873,0.00000115,0.00000198,-0.00000538,0
 .00000347,0.00000736,-0.00001152,0.00000695,0.00000730,-0.00000016,0.0
 0000227,0.00000962,-0.00000602,0.00000083,0.00000238,-0.00001280,0.000
 00068,-0.00000035,-0.00000580,-0.00000039,0.00000517,-0.00000534,0.000
 00340,0.00001071,-0.00000607,-0.00000568,-0.00000453,0.00000664,-0.000
 00004,0.00000219,0.00000139,0.00000004,-0.00000350,-0.00000293,-0.0000
 0075,0.00000219,0.00000179,0.00000040,-0.00000296,-0.00000045,-0.00000
 122,-0.00000335,-0.00000391,-0.00000039,0.00000280,0.00000331,0.000001
 32,0.00000317,0.00000665,-0.00000076,-0.00000379,-0.00000484,0.0000011
 7,0.00000230,0.00000399,0.00000282,0.00000185,0.00000398,0.00000182,0.
 00000200,-0.00000072,-0.00000364,-0.00000331,0.00000379,-0.00000112,0.
 00000187,-0.00000135,-0.00000061,0.00000296,-0.00000354,0.00000101,-0.
 00000223,0.00000445,-0.00000202,-0.00000076,0.00000695,0.00000113,0.00
 000261,0.00000390,0.00000153,0.00000449,-0.00000179,-0.00000122,-0.000
 00212,0.00000702,0.00000012,0.00000087,0.00000294,0.00000238,0.0000069
 0,-0.00000967,0.00000281,0.00000866,-0.00001235,-0.00000221,0.00000219
 ,0.00001033,0.00000094,-0.00000147,-0.00000159,-0.00000118,-0.00000519
 ,0.00000556,-0.00000171,-0.00000674,-0.00000508,-0.00000376,-0.0000099
 9,0.00000104,-0.00000099,-0.00000490,0.00000487,-0.00000536,-0.0000044
 9,0.00000180,-0.00000034,-0.00000516,-0.00000475,-0.00000300,-0.000011
 77,0.00000733,-0.00000314,-0.00001138,-0.00000253,-0.00000066,-0.00001
 641,0.00000603,0.00000500,0.00000573,0.00000098,0.00000118,0.00000653,
 0.00000884,0.00000065,0.00000397,0.00000992,0.00000088,0.00000704,0.00
 000519,-0.00000124,0.00000096,-0.00000135,-0.00000001,-0.00000117,-0.0
 0000019,-0.00000432,-0.00001332,0.00000014\\\@


 GETTING A SIMPLE ANSWER FROM A PROFESSOR IS LIKE
 GETTING A THIMBLE OF WATER FROM A FIRE HYDRANT.
     -- PROF. LEN SHAPIRO, NDSU
 Job cpu time:       1 days 18 hours 39 minutes 58.9 seconds.
 Elapsed time:       0 days  1 hours 46 minutes 52.7 seconds.
 File lengths (MBytes):  RWF=   2320 Int=      0 D2E=      0 Chk=     48 Scr=     16
 Normal termination of Gaussian 16 at Thu Mar 15 18:36:55 2018.
