Job Start Time: Mon Mar 26 20:56:39 MDT 2018
SLURM Job ID: 728743
SLURM Job Name: postTS_Int3_1Pyrax_SMD_c
 Entering Gaussian System, Link 0=/projects/user/g16/g16
 Initial command:
 /projects/user/g16/l1.exe "/gpfs/summit/scratch/user/728743/Gau-137757.inp" -scrdir="/gpfs/summit/scratch/user/728743/"
 Entering Link 1 = /projects/user/g16/l1.exe PID=    137758.
  
 Copyright (c) 1988,1990,1992,1993,1995,1998,2003,2009,2016,
            Gaussian, Inc.  All Rights Reserved.
  
 This is part of the Gaussian(R) 16 program.  It is based on
 the Gaussian(R) 09 system (copyright 2009, Gaussian, Inc.),
 the Gaussian(R) 03 system (copyright 2003, Gaussian, Inc.),
 the Gaussian(R) 98 system (copyright 1998, Gaussian, Inc.),
 the Gaussian(R) 94 system (copyright 1995, Gaussian, Inc.),
 the Gaussian 92(TM) system (copyright 1992, Gaussian, Inc.),
 the Gaussian 90(TM) system (copyright 1990, Gaussian, Inc.),
 the Gaussian 88(TM) system (copyright 1988, Gaussian, Inc.),
 the Gaussian 86(TM) system (copyright 1986, Carnegie Mellon
 University), and the Gaussian 82(TM) system (copyright 1983,
 Carnegie Mellon University). Gaussian is a federally registered
 trademark of Gaussian, Inc.
  
 This software contains proprietary and confidential information,
 including trade secrets, belonging to Gaussian, Inc.
  
 This software is provided under written license and may be
 used, copied, transmitted, or stored only in accord with that
 written license.
  
 The following legend is applicable only to US Government
 contracts under FAR:
  
                    RESTRICTED RIGHTS LEGEND
  
 Use, reproduction and disclosure by the US Government is
 subject to restrictions as set forth in subparagraphs (a)
 and (c) of the Commercial Computer Software - Restricted
 Rights clause in FAR 52.227-19.
  
 Gaussian, Inc.
 340 Quinnipiac St., Bldg. 40, Wallingford CT 06492
  
  
 ---------------------------------------------------------------
 Warning -- This program may not be used in any manner that
 competes with the business of Gaussian, Inc. or will provide
 assistance to any competitor of Gaussian, Inc.  The licensee
 of this program is prohibited from giving any competitor of
 Gaussian, Inc. access to this program.  By using this program,
 the user acknowledges that Gaussian, Inc. is engaged in the
 business of creating and licensing software in the field of
 computational chemistry and represents and warrants to the
 licensee that it is not a competitor of Gaussian, Inc. and that
 it will not use this program in any manner prohibited above.
 ---------------------------------------------------------------
  

 Cite this work as:
 Gaussian 16, Revision A.03,
 M. J. Frisch, G. W. Trucks, H. B. Schlegel, G. E. Scuseria, 
 M. A. Robb, J. R. Cheeseman, G. Scalmani, V. Barone, 
 G. A. Petersson, H. Nakatsuji, X. Li, M. Caricato, A. V. Marenich, 
 J. Bloino, B. G. Janesko, R. Gomperts, B. Mennucci, H. P. Hratchian, 
 J. V. Ortiz, A. F. Izmaylov, J. L. Sonnenberg, D. Williams-Young, 
 F. Ding, F. Lipparini, F. Egidi, J. Goings, B. Peng, A. Petrone, 
 T. Henderson, D. Ranasinghe, V. G. Zakrzewski, J. Gao, N. Rega, 
 G. Zheng, W. Liang, M. Hada, M. Ehara, K. Toyota, R. Fukuda, 
 J. Hasegawa, M. Ishida, T. Nakajima, Y. Honda, O. Kitao, H. Nakai, 
 T. Vreven, K. Throssell, J. A. Montgomery, Jr., J. E. Peralta, 
 F. Ogliaro, M. J. Bearpark, J. J. Heyd, E. N. Brothers, K. N. Kudin, 
 V. N. Staroverov, T. A. Keith, R. Kobayashi, J. Normand, 
 K. Raghavachari, A. P. Rendell, J. C. Burant, S. S. Iyengar, 
 J. Tomasi, M. Cossi, J. M. Millam, M. Klene, C. Adamo, R. Cammi, 
 J. W. Ochterski, R. L. Martin, K. Morokuma, O. Farkas, 
 J. B. Foresman, and D. J. Fox, Gaussian, Inc., Wallingford CT, 2016.
 
 ******************************************
 Gaussian 16:  ES64L-G16RevA.03 25-Dec-2016
                26-Mar-2018 
 ******************************************
 %mem=98GB
 %nprocshared=24
 Will use up to   24 processors via shared memory.
 %chk=Int3cv_b.chk
 ----------------------------------------------------------------------
 # wb97xd/6-31+g(d) opt=(maxcycles=200) scrf=(solvent=ethanol,smd) freq
 =noraman geom=connectivity
 ----------------------------------------------------------------------
 1/6=200,18=20,19=15,26=3,38=1,57=2/1,3;
 2/9=110,12=2,17=6,18=5,40=1/2;
 3/5=1,6=6,7=11,11=2,25=1,30=1,70=32201,71=1,72=4,74=-58/1,2,3;
 4//1;
 5/5=2,38=5,53=4/2;
 6/7=2,8=2,9=2,10=2,28=1/1;
 7//1,2,3,16;
 1/6=200,18=20,19=15,26=3/3(2);
 2/9=110/2;
 99//99;
 2/9=110/2;
 3/5=1,6=6,7=11,11=2,25=1,30=1,70=32205,71=1,72=4,74=-58/1,2,3;
 4/5=5,16=3,69=1/1;
 5/5=2,38=5,53=4/2;
 7//1,2,3,16;
 1/6=200,18=20,19=15,26=3/3(-5);
 2/9=110/2;
 6/7=2,8=2,9=2,10=2,19=2,28=1/1;
 99/9=1/99;
 -------------------
 Title Card Required
 -------------------
 Symbolic Z-matrix:
 Charge =  2 Multiplicity = 1
 C                     1.83953  -3.78508  -0.37934 
 C                     1.3403   -2.57883  -0.85815 
 C                     1.36814  -1.43712  -0.04318 
 C                     1.94313  -1.50335   1.22955 
 C                     2.44514  -2.71435   1.69919 
 H                     1.80613  -4.66777  -1.01096 
 H                     0.94071  -2.5312   -1.86695 
 H                     2.00728  -0.63069   1.866 
 H                     2.88433  -2.76228   2.69121 
 P                     0.69804   0.0804   -0.74932 
 C                     1.17936   1.58643   0.13905 
 C                     1.62813   2.65672  -0.64841 
 C                     1.12242   1.73538   1.53246 
 C                     2.01693   3.8515   -0.04899 
 H                     1.67449   2.5669   -1.72918 
 C                     1.51966   2.92964   2.12398 
 H                     0.7464    0.94025   2.1671 
 H                     2.35868   4.67418  -0.67 
 H                     1.47171   3.03064   3.20419 
 C                    -1.45509  -0.14914   0.69431 
 C                    -2.1303    0.89962   1.31274 
 C                    -1.64051  -1.42375   1.23156 
 C                    -2.92859   0.6448    2.42381 
 H                    -2.04776   1.91657   0.93947 
 C                    -2.46075  -1.58475   2.34232 
 H                    -1.16299  -2.29944   0.80002 
 H                    -3.45934   1.45876   2.9131 
 H                    -2.6119   -2.57434   2.76802 
 C                     2.38341  -3.85598   0.90277 
 H                     2.7697   -4.79999   1.27649 
 O                     1.38111   0.19868  -2.20283 
 C                    -1.07853   0.04655  -1.00318 
 C                    -1.70811  -1.11143  -1.68418 
 C                    -1.65485   1.32353  -1.49318 
 C                    -2.95767  -0.95471  -2.21674 
 H                    -1.24894  -2.09276  -1.65891 
 C                    -2.90708   1.31282  -2.04335 
 H                    -1.13935   2.26519  -1.3315 
 H                    -3.46345  -1.83993  -2.60425 
 H                    -3.36727   2.27031  -2.29178 
 C                     2.80595   0.07902  -2.39348 
 H                     3.07801  -0.97715  -2.45972 
 H                     3.02574   0.58269  -3.33525 
 H                     3.36018   0.55708  -1.58071 
 N                    -3.11079  -0.57668   2.94017 
 N                    -3.63965   0.21407  -2.36333 
 C                     1.96851   3.98846   1.33634 
 H                     2.27634   4.92003   1.80279 
 H                    -4.58831   0.25973  -2.67631 
 H                    -3.70209  -0.72931   3.73205 
 
 Add virtual bond connecting atoms C32        and C20        Dist= 3.31D+00.

 GradGradGradGradGradGradGradGradGradGradGradGradGradGradGradGradGradGrad
 Berny optimization.
 Initialization pass.
                           ----------------------------
                           !    Initial Parameters    !
                           ! (Angstroms and Degrees)  !
 --------------------------                            --------------------------
 ! Name  Definition              Value          Derivative Info.                !
 --------------------------------------------------------------------------------
 ! R1    R(1,2)                  1.3905         estimate D2E/DX2                !
 ! R2    R(1,6)                  1.0859         estimate D2E/DX2                !
 ! R3    R(1,29)                 1.3945         estimate D2E/DX2                !
 ! R4    R(2,3)                  1.403          estimate D2E/DX2                !
 ! R5    R(2,7)                  1.0861         estimate D2E/DX2                !
 ! R6    R(3,4)                  1.3982         estimate D2E/DX2                !
 ! R7    R(3,10)                 1.8029         estimate D2E/DX2                !
 ! R8    R(4,5)                  1.3925         estimate D2E/DX2                !
 ! R9    R(4,8)                  1.082          estimate D2E/DX2                !
 ! R10   R(5,9)                  1.086          estimate D2E/DX2                !
 ! R11   R(5,29)                 1.3933         estimate D2E/DX2                !
 ! R12   R(10,11)                1.8136         estimate D2E/DX2                !
 ! R13   R(10,31)                1.6104         estimate D2E/DX2                !
 ! R14   R(10,32)                1.7949         estimate D2E/DX2                !
 ! R15   R(11,12)                1.4025         estimate D2E/DX2                !
 ! R16   R(11,13)                1.4025         estimate D2E/DX2                !
 ! R17   R(12,14)                1.3921         estimate D2E/DX2                !
 ! R18   R(12,15)                1.0855         estimate D2E/DX2                !
 ! R19   R(13,16)                1.3907         estimate D2E/DX2                !
 ! R20   R(13,17)                1.0846         estimate D2E/DX2                !
 ! R21   R(14,18)                1.0859         estimate D2E/DX2                !
 ! R22   R(14,47)                1.3929         estimate D2E/DX2                !
 ! R23   R(16,19)                1.086          estimate D2E/DX2                !
 ! R24   R(16,47)                1.3939         estimate D2E/DX2                !
 ! R25   R(20,21)                1.3922         estimate D2E/DX2                !
 ! R26   R(20,22)                1.3956         estimate D2E/DX2                !
 ! R27   R(20,32)                1.7497         estimate D2E/DX2                !
 ! R28   R(21,23)                1.3916         estimate D2E/DX2                !
 ! R29   R(21,24)                1.0864         estimate D2E/DX2                !
 ! R30   R(22,25)                1.3901         estimate D2E/DX2                !
 ! R31   R(22,26)                1.0868         estimate D2E/DX2                !
 ! R32   R(23,27)                1.088          estimate D2E/DX2                !
 ! R33   R(23,45)                1.3386         estimate D2E/DX2                !
 ! R34   R(25,28)                1.0878         estimate D2E/DX2                !
 ! R35   R(25,45)                1.3402         estimate D2E/DX2                !
 ! R36   R(29,30)                1.0863         estimate D2E/DX2                !
 ! R37   R(31,41)                1.4425         estimate D2E/DX2                !
 ! R38   R(32,33)                1.4836         estimate D2E/DX2                !
 ! R39   R(32,34)                1.4842         estimate D2E/DX2                !
 ! R40   R(33,35)                1.3673         estimate D2E/DX2                !
 ! R41   R(33,36)                1.0837         estimate D2E/DX2                !
 ! R42   R(34,37)                1.3678         estimate D2E/DX2                !
 ! R43   R(34,38)                1.0856         estimate D2E/DX2                !
 ! R44   R(35,39)                1.0907         estimate D2E/DX2                !
 ! R45   R(35,46)                1.3611         estimate D2E/DX2                !
 ! R46   R(37,40)                1.091          estimate D2E/DX2                !
 ! R47   R(37,46)                1.3588         estimate D2E/DX2                !
 ! R48   R(41,42)                1.0927         estimate D2E/DX2                !
 ! R49   R(41,43)                1.0904         estimate D2E/DX2                !
 ! R50   R(41,44)                1.0938         estimate D2E/DX2                !
 ! R51   R(45,50)                1.0            estimate D2E/DX2                !
 ! R52   R(46,49)                1.0            estimate D2E/DX2                !
 ! R53   R(47,48)                1.0864         estimate D2E/DX2                !
 ! A1    A(2,1,6)              119.5915         estimate D2E/DX2                !
 ! A2    A(2,1,29)             120.0473         estimate D2E/DX2                !
 ! A3    A(6,1,29)             120.3608         estimate D2E/DX2                !
 ! A4    A(1,2,3)              119.919          estimate D2E/DX2                !
 ! A5    A(1,2,7)              119.3381         estimate D2E/DX2                !
 ! A6    A(3,2,7)              120.7403         estimate D2E/DX2                !
 ! A7    A(2,3,4)              119.8929         estimate D2E/DX2                !
 ! A8    A(2,3,10)             116.7468         estimate D2E/DX2                !
 ! A9    A(4,3,10)             123.3155         estimate D2E/DX2                !
 ! A10   A(3,4,5)              119.766          estimate D2E/DX2                !
 ! A11   A(3,4,8)              121.4415         estimate D2E/DX2                !
 ! A12   A(5,4,8)              118.7924         estimate D2E/DX2                !
 ! A13   A(4,5,9)              119.4906         estimate D2E/DX2                !
 ! A14   A(4,5,29)             120.2513         estimate D2E/DX2                !
 ! A15   A(9,5,29)             120.2581         estimate D2E/DX2                !
 ! A16   A(3,10,11)            114.109          estimate D2E/DX2                !
 ! A17   A(3,10,31)            104.9328         estimate D2E/DX2                !
 ! A18   A(3,10,32)            114.041          estimate D2E/DX2                !
 ! A19   A(11,10,31)           105.579          estimate D2E/DX2                !
 ! A20   A(11,10,32)           110.3421         estimate D2E/DX2                !
 ! A21   A(31,10,32)           107.0711         estimate D2E/DX2                !
 ! A22   A(10,11,12)           116.3345         estimate D2E/DX2                !
 ! A23   A(10,11,13)           124.3387         estimate D2E/DX2                !
 ! A24   A(12,11,13)           119.3262         estimate D2E/DX2                !
 ! A25   A(11,12,14)           120.1696         estimate D2E/DX2                !
 ! A26   A(11,12,15)           120.6341         estimate D2E/DX2                !
 ! A27   A(14,12,15)           119.1961         estimate D2E/DX2                !
 ! A28   A(11,13,16)           120.145          estimate D2E/DX2                !
 ! A29   A(11,13,17)           121.1686         estimate D2E/DX2                !
 ! A30   A(16,13,17)           118.6664         estimate D2E/DX2                !
 ! A31   A(12,14,18)           119.4623         estimate D2E/DX2                !
 ! A32   A(12,14,47)           120.1929         estimate D2E/DX2                !
 ! A33   A(18,14,47)           120.3448         estimate D2E/DX2                !
 ! A34   A(13,16,19)           119.3632         estimate D2E/DX2                !
 ! A35   A(13,16,47)           120.2627         estimate D2E/DX2                !
 ! A36   A(19,16,47)           120.3733         estimate D2E/DX2                !
 ! A37   A(21,20,22)           116.9079         estimate D2E/DX2                !
 ! A38   A(21,20,32)           116.8125         estimate D2E/DX2                !
 ! A39   A(22,20,32)           120.279          estimate D2E/DX2                !
 ! A40   A(20,21,23)           119.6644         estimate D2E/DX2                !
 ! A41   A(20,21,24)           121.0416         estimate D2E/DX2                !
 ! A42   A(23,21,24)           119.2935         estimate D2E/DX2                !
 ! A43   A(20,22,25)           119.457          estimate D2E/DX2                !
 ! A44   A(20,22,26)           121.6465         estimate D2E/DX2                !
 ! A45   A(25,22,26)           118.8956         estimate D2E/DX2                !
 ! A46   A(21,23,27)           120.1266         estimate D2E/DX2                !
 ! A47   A(21,23,45)           123.5833         estimate D2E/DX2                !
 ! A48   A(27,23,45)           116.2831         estimate D2E/DX2                !
 ! A49   A(22,25,28)           120.0023         estimate D2E/DX2                !
 ! A50   A(22,25,45)           123.7455         estimate D2E/DX2                !
 ! A51   A(28,25,45)           116.2493         estimate D2E/DX2                !
 ! A52   A(1,29,5)             120.0758         estimate D2E/DX2                !
 ! A53   A(1,29,30)            119.9453         estimate D2E/DX2                !
 ! A54   A(5,29,30)            119.9752         estimate D2E/DX2                !
 ! A55   A(10,31,41)           122.1525         estimate D2E/DX2                !
 ! A56   A(10,32,20)            94.4681         estimate D2E/DX2                !
 ! A57   A(10,32,33)           119.9774         estimate D2E/DX2                !
 ! A58   A(10,32,34)           114.5064         estimate D2E/DX2                !
 ! A59   A(20,32,33)           105.4676         estimate D2E/DX2                !
 ! A60   A(20,32,34)           109.447          estimate D2E/DX2                !
 ! A61   A(33,32,34)           110.8071         estimate D2E/DX2                !
 ! A62   A(32,33,35)           118.4983         estimate D2E/DX2                !
 ! A63   A(32,33,36)           121.0826         estimate D2E/DX2                !
 ! A64   A(35,33,36)           120.0043         estimate D2E/DX2                !
 ! A65   A(32,34,37)           118.7866         estimate D2E/DX2                !
 ! A66   A(32,34,38)           120.8456         estimate D2E/DX2                !
 ! A67   A(37,34,38)           120.0928         estimate D2E/DX2                !
 ! A68   A(33,35,39)           117.9786         estimate D2E/DX2                !
 ! A69   A(33,35,46)           126.7451         estimate D2E/DX2                !
 ! A70   A(39,35,46)           115.2346         estimate D2E/DX2                !
 ! A71   A(34,37,40)           118.0921         estimate D2E/DX2                !
 ! A72   A(34,37,46)           126.486          estimate D2E/DX2                !
 ! A73   A(40,37,46)           115.3814         estimate D2E/DX2                !
 ! A74   A(31,41,42)           109.5196         estimate D2E/DX2                !
 ! A75   A(31,41,43)           105.9582         estimate D2E/DX2                !
 ! A76   A(31,41,44)           111.4722         estimate D2E/DX2                !
 ! A77   A(42,41,43)           110.1173         estimate D2E/DX2                !
 ! A78   A(42,41,44)           109.9605         estimate D2E/DX2                !
 ! A79   A(43,41,44)           109.7418         estimate D2E/DX2                !
 ! A80   A(23,45,25)           116.632          estimate D2E/DX2                !
 ! A81   A(23,45,50)           121.684          estimate D2E/DX2                !
 ! A82   A(25,45,50)           121.684          estimate D2E/DX2                !
 ! A83   A(35,46,37)           113.508          estimate D2E/DX2                !
 ! A84   A(35,46,49)           123.246          estimate D2E/DX2                !
 ! A85   A(37,46,49)           123.246          estimate D2E/DX2                !
 ! A86   A(14,47,16)           119.9002         estimate D2E/DX2                !
 ! A87   A(14,47,48)           120.0989         estimate D2E/DX2                !
 ! A88   A(16,47,48)           120.0006         estimate D2E/DX2                !
 ! D1    D(6,1,2,3)            179.3816         estimate D2E/DX2                !
 ! D2    D(6,1,2,7)             -1.2038         estimate D2E/DX2                !
 ! D3    D(29,1,2,3)            -0.8498         estimate D2E/DX2                !
 ! D4    D(29,1,2,7)           178.5648         estimate D2E/DX2                !
 ! D5    D(2,1,29,5)            -0.9192         estimate D2E/DX2                !
 ! D6    D(2,1,29,30)          179.7808         estimate D2E/DX2                !
 ! D7    D(6,1,29,5)           178.8476         estimate D2E/DX2                !
 ! D8    D(6,1,29,30)           -0.4525         estimate D2E/DX2                !
 ! D9    D(1,2,3,4)              2.3869         estimate D2E/DX2                !
 ! D10   D(1,2,3,10)          -179.9646         estimate D2E/DX2                !
 ! D11   D(7,2,3,4)           -177.0194         estimate D2E/DX2                !
 ! D12   D(7,2,3,10)             0.6291         estimate D2E/DX2                !
 ! D13   D(2,3,4,5)             -2.1521         estimate D2E/DX2                !
 ! D14   D(2,3,4,8)            177.9667         estimate D2E/DX2                !
 ! D15   D(10,3,4,5)          -179.6391         estimate D2E/DX2                !
 ! D16   D(10,3,4,8)             0.4797         estimate D2E/DX2                !
 ! D17   D(2,3,10,11)         -163.5484         estimate D2E/DX2                !
 ! D18   D(2,3,10,31)          -48.4696         estimate D2E/DX2                !
 ! D19   D(2,3,10,32)           68.3798         estimate D2E/DX2                !
 ! D20   D(4,3,10,11)           14.012          estimate D2E/DX2                !
 ! D21   D(4,3,10,31)          129.0908         estimate D2E/DX2                !
 ! D22   D(4,3,10,32)         -114.0599         estimate D2E/DX2                !
 ! D23   D(3,4,5,9)           -179.5619         estimate D2E/DX2                !
 ! D24   D(3,4,5,29)             0.3873         estimate D2E/DX2                !
 ! D25   D(8,4,5,9)              0.3225         estimate D2E/DX2                !
 ! D26   D(8,4,5,29)          -179.7283         estimate D2E/DX2                !
 ! D27   D(4,5,29,1)             1.1543         estimate D2E/DX2                !
 ! D28   D(4,5,29,30)         -179.5459         estimate D2E/DX2                !
 ! D29   D(9,5,29,1)          -178.8969         estimate D2E/DX2                !
 ! D30   D(9,5,29,30)            0.4029         estimate D2E/DX2                !
 ! D31   D(3,10,11,12)         133.4034         estimate D2E/DX2                !
 ! D32   D(3,10,11,13)         -46.8909         estimate D2E/DX2                !
 ! D33   D(31,10,11,12)         18.7045         estimate D2E/DX2                !
 ! D34   D(31,10,11,13)       -161.5898         estimate D2E/DX2                !
 ! D35   D(32,10,11,12)        -96.6611         estimate D2E/DX2                !
 ! D36   D(32,10,11,13)         83.0446         estimate D2E/DX2                !
 ! D37   D(3,10,31,41)         -50.3212         estimate D2E/DX2                !
 ! D38   D(11,10,31,41)         70.5581         estimate D2E/DX2                !
 ! D39   D(32,10,31,41)       -171.8523         estimate D2E/DX2                !
 ! D40   D(3,10,32,20)          62.113          estimate D2E/DX2                !
 ! D41   D(3,10,32,33)         -48.6126         estimate D2E/DX2                !
 ! D42   D(3,10,32,34)         175.856          estimate D2E/DX2                !
 ! D43   D(11,10,32,20)        -67.8586         estimate D2E/DX2                !
 ! D44   D(11,10,32,33)       -178.5843         estimate D2E/DX2                !
 ! D45   D(11,10,32,34)         45.8843         estimate D2E/DX2                !
 ! D46   D(31,10,32,20)        177.7175         estimate D2E/DX2                !
 ! D47   D(31,10,32,33)         66.9918         estimate D2E/DX2                !
 ! D48   D(31,10,32,34)        -68.5396         estimate D2E/DX2                !
 ! D49   D(10,11,12,14)        179.9569         estimate D2E/DX2                !
 ! D50   D(10,11,12,15)          0.1288         estimate D2E/DX2                !
 ! D51   D(13,11,12,14)          0.2356         estimate D2E/DX2                !
 ! D52   D(13,11,12,15)       -179.5924         estimate D2E/DX2                !
 ! D53   D(10,11,13,16)        179.7093         estimate D2E/DX2                !
 ! D54   D(10,11,13,17)         -1.9383         estimate D2E/DX2                !
 ! D55   D(12,11,13,16)         -0.5933         estimate D2E/DX2                !
 ! D56   D(12,11,13,17)        177.7591         estimate D2E/DX2                !
 ! D57   D(11,12,14,18)       -179.7504         estimate D2E/DX2                !
 ! D58   D(11,12,14,47)          0.3077         estimate D2E/DX2                !
 ! D59   D(15,12,14,18)          0.0801         estimate D2E/DX2                !
 ! D60   D(15,12,14,47)       -179.8618         estimate D2E/DX2                !
 ! D61   D(11,13,16,19)       -179.9104         estimate D2E/DX2                !
 ! D62   D(11,13,16,47)          0.4098         estimate D2E/DX2                !
 ! D63   D(17,13,16,19)          1.6962         estimate D2E/DX2                !
 ! D64   D(17,13,16,47)       -177.9836         estimate D2E/DX2                !
 ! D65   D(12,14,47,16)         -0.4958         estimate D2E/DX2                !
 ! D66   D(12,14,47,48)        179.7356         estimate D2E/DX2                !
 ! D67   D(18,14,47,16)        179.5628         estimate D2E/DX2                !
 ! D68   D(18,14,47,48)         -0.2058         estimate D2E/DX2                !
 ! D69   D(13,16,47,14)          0.1367         estimate D2E/DX2                !
 ! D70   D(13,16,47,48)        179.9055         estimate D2E/DX2                !
 ! D71   D(19,16,47,14)       -179.5398         estimate D2E/DX2                !
 ! D72   D(19,16,47,48)          0.229          estimate D2E/DX2                !
 ! D73   D(22,20,21,23)          0.821          estimate D2E/DX2                !
 ! D74   D(22,20,21,24)       -178.9353         estimate D2E/DX2                !
 ! D75   D(32,20,21,23)        153.6988         estimate D2E/DX2                !
 ! D76   D(32,20,21,24)        -26.0575         estimate D2E/DX2                !
 ! D77   D(21,20,22,25)         -0.6365         estimate D2E/DX2                !
 ! D78   D(21,20,22,26)        179.0313         estimate D2E/DX2                !
 ! D79   D(32,20,22,25)       -152.5275         estimate D2E/DX2                !
 ! D80   D(32,20,22,26)         27.1403         estimate D2E/DX2                !
 ! D81   D(21,20,32,10)        114.4205         estimate D2E/DX2                !
 ! D82   D(21,20,32,33)       -122.7842         estimate D2E/DX2                !
 ! D83   D(21,20,32,34)         -3.5374         estimate D2E/DX2                !
 ! D84   D(22,20,32,10)        -93.6627         estimate D2E/DX2                !
 ! D85   D(22,20,32,33)         29.1326         estimate D2E/DX2                !
 ! D86   D(22,20,32,34)        148.3794         estimate D2E/DX2                !
 ! D87   D(20,21,23,27)        179.9808         estimate D2E/DX2                !
 ! D88   D(20,21,23,45)         -1.0135         estimate D2E/DX2                !
 ! D89   D(24,21,23,27)         -0.2587         estimate D2E/DX2                !
 ! D90   D(24,21,23,45)        178.747          estimate D2E/DX2                !
 ! D91   D(20,22,25,28)        179.9695         estimate D2E/DX2                !
 ! D92   D(20,22,25,45)          0.6173         estimate D2E/DX2                !
 ! D93   D(26,22,25,28)          0.2925         estimate D2E/DX2                !
 ! D94   D(26,22,25,45)       -179.0597         estimate D2E/DX2                !
 ! D95   D(21,23,45,25)          0.9245         estimate D2E/DX2                !
 ! D96   D(21,23,45,50)       -179.0755         estimate D2E/DX2                !
 ! D97   D(27,23,45,25)        179.9654         estimate D2E/DX2                !
 ! D98   D(27,23,45,50)         -0.0346         estimate D2E/DX2                !
 ! D99   D(22,25,45,23)         -0.7267         estimate D2E/DX2                !
 ! D100  D(22,25,45,50)        179.2733         estimate D2E/DX2                !
 ! D101  D(28,25,45,23)        179.8988         estimate D2E/DX2                !
 ! D102  D(28,25,45,50)         -0.1012         estimate D2E/DX2                !
 ! D103  D(10,31,41,42)         83.6344         estimate D2E/DX2                !
 ! D104  D(10,31,41,43)       -157.6204         estimate D2E/DX2                !
 ! D105  D(10,31,41,44)        -38.2795         estimate D2E/DX2                !
 ! D106  D(10,32,33,35)       -160.828          estimate D2E/DX2                !
 ! D107  D(10,32,33,36)         26.5647         estimate D2E/DX2                !
 ! D108  D(20,32,33,35)         94.5209         estimate D2E/DX2                !
 ! D109  D(20,32,33,36)        -78.0864         estimate D2E/DX2                !
 ! D110  D(34,32,33,35)        -23.819          estimate D2E/DX2                !
 ! D111  D(34,32,33,36)        163.5737         estimate D2E/DX2                !
 ! D112  D(10,32,34,37)        163.1997         estimate D2E/DX2                !
 ! D113  D(10,32,34,38)        -22.818          estimate D2E/DX2                !
 ! D114  D(20,32,34,37)        -92.2191         estimate D2E/DX2                !
 ! D115  D(20,32,34,38)         81.7632         estimate D2E/DX2                !
 ! D116  D(33,32,34,37)         23.6765         estimate D2E/DX2                !
 ! D117  D(33,32,34,38)       -162.3413         estimate D2E/DX2                !
 ! D118  D(32,33,35,39)       -172.5243         estimate D2E/DX2                !
 ! D119  D(32,33,35,46)          9.9475         estimate D2E/DX2                !
 ! D120  D(36,33,35,39)          0.165          estimate D2E/DX2                !
 ! D121  D(36,33,35,46)       -177.3631         estimate D2E/DX2                !
 ! D122  D(32,34,37,40)        172.9275         estimate D2E/DX2                !
 ! D123  D(32,34,37,46)         -9.5029         estimate D2E/DX2                !
 ! D124  D(38,34,37,40)         -1.1012         estimate D2E/DX2                !
 ! D125  D(38,34,37,46)        176.4684         estimate D2E/DX2                !
 ! D126  D(33,35,46,37)          6.2984         estimate D2E/DX2                !
 ! D127  D(33,35,46,49)       -173.7016         estimate D2E/DX2                !
 ! D128  D(39,35,46,37)       -171.2883         estimate D2E/DX2                !
 ! D129  D(39,35,46,49)          8.7117         estimate D2E/DX2                !
 ! D130  D(34,37,46,35)         -6.5312         estimate D2E/DX2                !
 ! D131  D(34,37,46,49)        173.4688         estimate D2E/DX2                !
 ! D132  D(40,37,46,35)        171.0956         estimate D2E/DX2                !
 ! D133  D(40,37,46,49)         -8.9044         estimate D2E/DX2                !
 --------------------------------------------------------------------------------
 Trust Radius=3.00D-01 FncErr=1.00D-07 GrdErr=1.00D-06 EigMax=2.50D+02 EigMin=1.00D-04
 Number of steps in this run=    200 maximum allowed number of steps=    300.
 GradGradGradGradGradGradGradGradGradGradGradGradGradGradGradGradGradGrad

                          Input orientation:                          
 ---------------------------------------------------------------------
 Center     Atomic      Atomic             Coordinates (Angstroms)
 Number     Number       Type             X           Y           Z
 ---------------------------------------------------------------------
      1          6           0        1.839525   -3.785082   -0.379341
      2          6           0        1.340297   -2.578828   -0.858152
      3          6           0        1.368139   -1.437123   -0.043176
      4          6           0        1.943132   -1.503349    1.229548
      5          6           0        2.445137   -2.714345    1.699192
      6          1           0        1.806127   -4.667768   -1.010961
      7          1           0        0.940714   -2.531199   -1.866951
      8          1           0        2.007282   -0.630689    1.865998
      9          1           0        2.884327   -2.762284    2.691214
     10         15           0        0.698043    0.080398   -0.749321
     11          6           0        1.179362    1.586434    0.139047
     12          6           0        1.628131    2.656715   -0.648414
     13          6           0        1.122419    1.735377    1.532464
     14          6           0        2.016933    3.851498   -0.048993
     15          1           0        1.674490    2.566897   -1.729176
     16          6           0        1.519661    2.929642    2.123980
     17          1           0        0.746396    0.940252    2.167103
     18          1           0        2.358681    4.674177   -0.670002
     19          1           0        1.471712    3.030644    3.204194
     20          6           0       -1.455085   -0.149136    0.694305
     21          6           0       -2.130301    0.899620    1.312737
     22          6           0       -1.640510   -1.423753    1.231563
     23          6           0       -2.928586    0.644797    2.423805
     24          1           0       -2.047761    1.916572    0.939469
     25          6           0       -2.460745   -1.584753    2.342318
     26          1           0       -1.162989   -2.299443    0.800023
     27          1           0       -3.459342    1.458760    2.913100
     28          1           0       -2.611904   -2.574343    2.768024
     29          6           0        2.383410   -3.855975    0.902769
     30          1           0        2.769699   -4.799987    1.276489
     31          8           0        1.381111    0.198675   -2.202828
     32          6           0       -1.078529    0.046550   -1.003185
     33          6           0       -1.708108   -1.111430   -1.684176
     34          6           0       -1.654852    1.323525   -1.493178
     35          6           0       -2.957672   -0.954709   -2.216743
     36          1           0       -1.248941   -2.092763   -1.658909
     37          6           0       -2.907083    1.312822   -2.043353
     38          1           0       -1.139350    2.265193   -1.331504
     39          1           0       -3.463454   -1.839934   -2.604252
     40          1           0       -3.367273    2.270306   -2.291777
     41          6           0        2.805953    0.079021   -2.393475
     42          1           0        3.078013   -0.977153   -2.459722
     43          1           0        3.025739    0.582690   -3.335245
     44          1           0        3.360184    0.557083   -1.580709
     45          7           0       -3.110788   -0.576679    2.940174
     46          7           0       -3.639647    0.214071   -2.363327
     47          6           0        1.968508    3.988457    1.336342
     48          1           0        2.276342    4.920028    1.802790
     49          1           0       -4.588306    0.259732   -2.676314
     50          1           0       -3.702086   -0.729313    3.732051
 ---------------------------------------------------------------------
                    Distance matrix (angstroms):
                    1          2          3          4          5
     1  C    0.000000
     2  C    1.390517   0.000000
     3  C    2.418289   1.403015   0.000000
     4  C    2.793844   2.424573   1.398152   0.000000
     5  C    2.415273   2.789094   2.413932   1.392511   0.000000
     6  H    1.085907   2.145698   3.400810   3.879716   3.401342
     7  H    2.143144   1.086099   2.169297   3.413154   3.874817
     8  H    3.875550   3.414836   2.168821   1.081998   2.135688
     9  H    3.400887   3.875008   3.395845   2.146447   1.085953
    10  P    4.047444   2.737849   1.802925   2.823902   4.105867
    11  C    5.436702   4.285990   3.034920   3.364416   4.746887
    12  C    6.450879   5.247642   4.146495   4.575161   5.918364
    13  C    5.885975   4.937092   3.550743   3.354799   4.645149
    14  C    7.645780   6.516262   5.328272   5.505861   6.808069
    15  H    6.495916   5.229613   4.355298   5.039159   6.343431
    16  C    7.173315   6.266460   4.877311   4.542108   5.735115
    17  H    5.477964   4.678548   3.305119   2.877911   4.057184
    18  H    8.480157   7.326567   6.222706   6.476326   7.759563
    19  H    7.709159   6.927200   5.524227   4.967752   6.018097
    20  C    5.022676   4.015929   3.189574   3.697061   4.775126
    21  C    6.369386   5.371909   4.420175   4.730120   5.843349
    22  C    4.503502   3.819204   3.267584   3.584526   4.310083
    23  C    7.086349   6.275855   5.374219   5.456594   6.378542
    24  H    7.025604   5.909230   4.886843   5.263766   6.496823
    25  C    5.544475   5.067456   4.513616   4.543018   5.075162
    26  H    3.551494   3.015633   2.803781   3.235158   3.741553
    27  H    8.149604   7.318538   6.358481   6.387109   7.331524
    28  H    5.584534   5.363680   5.003684   4.925677   5.170654
    29  C    1.394504   2.412474   2.788625   2.415673   1.393348
    30  H    2.153376   3.396090   3.874886   3.399006   2.152654
    31  O    4.405175   3.086153   2.709262   3.872203   4.984335
    32  C    4.856503   3.572725   3.018126   4.064200   5.228920
    33  C    4.629979   3.482577   3.501750   4.687744   5.591597
    34  C    6.288813   4.960094   4.343059   5.324466   6.580694
    35  C    5.865165   4.791249   4.865158   6.016295   6.900812
    36  H    3.746980   2.753475   3.144768   4.345103   5.030847
    37  C    7.161554   5.881316   5.462639   6.493634   7.672742
    38  H    6.810737   5.462348   4.653432   5.501145   6.843206
    39  H    6.070866   5.164383   5.483216   6.636451   7.361771
    40  H    8.211935   6.908733   6.420698   7.405444   8.634737
    41  C    4.463408   3.401401   3.144822   4.046560   4.968199
    42  H    3.707601   2.854829   2.995820   3.895581   4.551366
    43  H    5.405729   4.355675   4.202975   5.134290   6.045916
    44  H    4.755006   3.799470   3.210780   3.761776   4.722002
    45  N    6.768946   6.184500   5.449911   5.415447   6.080950
    46  N    7.067585   5.904717   5.760856   6.857529   7.880627
    47  C    7.961665   6.952675   5.630314   5.492903   6.729516
    48  H    8.985068   8.011843   6.681751   6.457508   7.636941
    49  H    7.934332   6.819932   6.729931   7.811779   8.801108
    50  H    7.546570   7.065147   6.360858   6.223355   6.772091
                    6          7          8          9         10
     6  H    0.000000
     7  H    2.458981   0.000000
     8  H    4.961387   4.322547   0.000000
     9  H    4.301103   4.960635   2.448242   0.000000
    10  P    4.882764   2.851039   3.009924   4.969704   0.000000
    11  C    6.389867   4.586489   2.929752   5.322763   1.813563
    12  C    7.335610   5.373251   4.156086   6.488196   2.740922
    13  C    6.923636   5.458270   2.548038   4.967492   2.850543
    14  C    8.575996   6.723246   4.874144   7.211326   4.055999
    15  H    7.271419   5.152474   4.822923   7.028778   2.845390
    16  C    8.223780   6.788482   3.602816   5.880654   4.129056
    17  H    6.532458   5.325629   2.036751   4.307460   3.040924
    18  H    9.364481   7.440481   5.890363   8.177715   4.885367
    19  H    8.783218   7.545367   3.934840   5.984701   4.993275
    20  C    5.827647   4.239588   3.686834   5.444877   2.602442
    21  C    7.203530   5.595719   4.446070   6.360521   3.594821
    22  C    5.237543   4.182098   3.786535   4.939271   3.413972
    23  C    7.901802   6.593104   5.128431   6.743120   4.851774
    24  H    7.874653   6.048937   4.877537   7.020384   3.709850
    25  C    6.241447   5.493963   4.593515   5.484351   4.723230
    26  H    4.207645   3.404707   3.737868   4.491280   3.395225
    27  H    8.980967   7.624248   5.945267   7.622899   5.709383
    28  H    6.179171   5.840030   5.091986   5.499980   5.511362
    29  C    2.157458   3.392308   3.386998   2.155368   4.589651
    30  H    2.485635   4.286467   4.279234   2.483308   5.675722
    31  O    5.028265   2.785494   4.199438   5.914269   1.610358
    32  C    5.526852   3.386477   4.267680   6.102652   1.794938
    33  C    5.044859   3.010882   5.161295   6.554374   2.843232
    34  C    6.935885   4.662142   5.339873   7.403183   2.763115
    35  C    6.159099   4.219608   6.436189   7.841194   4.072963
    36  H    4.047706   2.242788   5.016534   6.037858   3.056260
    37  C    7.684246   5.441797   6.573526   8.518394   4.023720
    38  H    7.539531   5.255354   5.339611   7.592612   2.913465
    39  H    6.188999   4.518645   7.167591   8.317873   4.944340
    40  H    8.748796   6.464803   7.388417   9.446675   4.868435
    41  C    5.044106   3.251091   4.391432   5.825223   2.673299
    42  H    4.163801   2.708225   4.469715   5.454938   3.115789
    43  H    5.870014   4.024863   5.437138   6.893987   3.515319
    44  H    5.480764   3.933606   3.888565   5.430834   2.829387
    45  N    7.518280   6.583560   5.229858   6.385942   5.343343
    46  N    7.437587   5.363078   7.105534   8.773216   4.630166
    47  C    8.970308   7.336441   4.649575   6.945999   4.608362
    48  H   10.003206   8.412591   5.557594   7.757375   5.694411
    49  H    8.242720   6.246153   8.057743   9.684172   5.629472
    50  H    8.267285   7.493411   6.007393   6.971166   6.332414
                   11         12         13         14         15
    11  C    0.000000
    12  C    1.402494   0.000000
    13  C    1.402511   2.420917   0.000000
    14  C    2.422271   1.392113   2.789109   0.000000
    15  H    2.167191   1.085478   3.410939   2.142541   0.000000
    16  C    2.420738   2.787907   1.390669   2.412242   3.873289
    17  H    2.172101   3.413332   1.084612   3.873074   4.322999
    18  H    3.402868   2.145768   3.875016   1.085930   2.455727
    19  H    3.400932   3.873871   2.143456   3.399161   4.959266
    20  C    3.203252   4.379716   3.301125   5.349063   4.800452
    21  C    3.578146   4.589042   3.365555   5.269482   5.148736
    22  C    4.266907   5.555947   4.207662   6.545608   5.973315
    23  C    4.793958   5.852351   4.288880   6.391856   6.490765
    24  H    3.341256   4.072022   3.230250   4.608984   4.625985
    25  C    5.306714   6.607075   4.951585   7.437795   7.135365
    26  H    4.585143   5.869568   4.694607   6.976160   6.174901
    27  H    5.406408   6.324702   4.793246   6.669991   7.009631
    28  H    6.212671   7.550756   5.834849   8.405543   8.064139
    29  C    5.626084   6.737340   5.766267   7.774657   6.977319
    30  H    6.679021   7.785296   6.744630   8.784745   8.031468
    31  O    2.729644   2.918764   4.047318   4.287935   2.432877
    32  C    2.962095   3.776881   3.758434   4.996999   3.802410
    33  C    4.352022   5.138308   5.144217   6.417196   4.997408
    34  C    3.281166   3.642664   4.127634   4.685971   3.561767
    35  C    5.396499   6.044140   6.159566   7.248825   5.839208
    36  H    4.760860   5.644128   5.519318   6.970796   5.501256
    37  C    4.640772   4.931538   5.403879   5.887978   4.760486
    38  H    2.828367   2.877300   3.687630   3.758101   2.857773
    39  H    6.389165   7.068903   7.136210   8.303998   6.825276
    40  H    5.200815   5.272951   5.921850   6.043172   5.081718
    41  C    3.366268   3.328214   4.581572   4.511178   2.812655
    42  H    4.114663   4.311379   5.207659   5.500307   3.881219
    43  H    4.060457   3.670688   5.352187   4.743653   2.888323
    44  H    2.961943   2.877088   4.010962   3.873454   2.627348
    45  N    5.561543   6.766842   5.024668   7.405227   7.388084
    46  N    5.600723   6.054496   6.337889   7.112237   5.846194
    47  C    2.797496   2.414260   2.414684   1.392931   3.391855
    48  H    3.883845   3.398700   3.398031   2.153636   4.286518
    49  H    6.553807   6.964338   7.245945   7.964470   6.741120
    50  H    6.488521   7.685368   5.847113   8.245442   8.342516
                   16         17         18         19         20
    16  C    0.000000
    17  H    2.134823   0.000000
    18  H    3.399072   4.958914   0.000000
    19  H    1.085985   2.443641   4.300850   0.000000
    20  C    4.513531   2.863987   6.298452   4.997668   0.000000
    21  C    4.254565   3.001163   6.191082   4.592752   1.392215
    22  C    5.452993   3.487273   7.536195   5.780904   1.395592
    23  C    5.009722   3.695765   7.332308   5.065955   2.406804
    24  H    3.893055   3.204309   5.441646   4.330915   2.162989
    25  C    6.022546   4.085597   8.454297   6.124454   2.405888
    26  H    6.024351   4.001285   7.949497   6.413386   2.172629
    27  H    5.251350   4.302743   7.551617   5.183710   3.394912
    28  H    6.912197   4.898129   9.437573   6.948528   3.394138
    29  C    6.948526   5.223232   8.673968   7.318010   5.340239
    30  H    7.875786   6.151202   9.680782   8.168207   6.310163
    31  O    5.118461   4.477622   4.830664   6.104436   4.069196
    32  C    4.984172   3.765605   5.774111   5.754180   1.749731
    33  C    6.422679   5.006629   7.144268   7.152915   2.578217
    34  C    5.073557   4.394377   5.292725   5.895334   2.644564
    35  C    7.346875   6.043931   7.895592   8.055373   3.373561
    36  H    6.870223   5.274364   7.732034   7.569744   3.059052
    37  C    6.291012   5.587008   6.396333   7.047092   3.426425
    38  H    4.410465   4.189482   4.298489   5.289245   3.167424
    39  H    8.362803   6.943925   8.948308   9.045244   4.215783
    40  H    6.619347   6.210711   6.418356   7.362037   4.292650
    41  C    5.494360   5.077634   4.928070   6.467316   5.267152
    42  H    6.221080   5.524526   5.971438   7.121979   5.584127
    43  H    6.130220   5.966497   4.928362   7.153443   6.070472
    44  H    4.768782   4.585281   4.333920   5.707900   5.372267
    45  N    5.865281   4.216229   8.397616   5.837961   2.822778
    46  N    7.357222   6.347402   7.664192   8.065753   3.775360
    47  C    1.393889   3.387518   2.155890   2.157101   5.408593
    48  H    2.153454   4.279261   2.486347   2.486189   6.391300
    49  H    8.214530   7.237461   8.471909   8.887190   4.620099
    50  H    6.575750   5.002550   9.236270   6.417484   3.822764
                   21         22         23         24         25
    21  C    0.000000
    22  C    2.375825   0.000000
    23  C    1.391641   2.712836   0.000000
    24  H    1.086431   3.377713   2.143949   0.000000
    25  C    2.709491   1.390138   2.279563   3.794446   0.000000
    26  H    3.381209   1.086778   3.797703   4.310110   2.138604
    27  H    2.154101   3.800605   1.087956   2.469286   3.253607
    28  H    3.797133   2.151320   3.252943   4.881617   1.087825
    29  C    6.569425   4.713358   7.126556   7.277288   5.540450
    30  H    7.516438   5.554360   7.964450   8.272464   6.231474
    31  O    5.018021   4.853608   6.338631   4.958060   6.212795
    32  C    2.682806   2.733443   3.940161   2.865362   3.970398
    33  C    3.633739   2.933198   4.631351   4.020905   4.123488
    34  C    2.877309   3.869361   4.174425   2.534532   4.880428
    35  C    4.071892   3.720985   4.908559   4.362782   4.629139
    36  H    4.308344   2.992612   5.194612   4.844012   4.211456
    37  C    3.469505   4.451755   4.516882   3.162305   5.275345
    38  H    3.136684   4.519823   4.464235   2.470641   5.483169
    39  H    4.962384   4.267295   5.633944   5.354763   5.053622
    40  H    4.049864   5.389036   5.007139   3.508161   6.095745
    41  C    6.227037   5.930452   7.510741   6.167953   7.275575
    42  H    6.699273   6.007453   7.909411   6.797183   7.355719
    43  H    6.949024   6.830478   8.283991   6.767039   8.187432
    44  H    6.215689   6.069557   7.456035   6.119263   7.338993
    45  N    2.406110   2.408029   1.338596   3.368850   1.340224
    46  N    4.032561   4.427443   4.858782   4.042409   5.173845
    47  C    5.132417   6.505998   6.028612   4.536588   7.189641
    48  H    5.985176   7.477405   6.764210   5.335161   8.064940
    49  H    4.729035   5.176401   5.377189   4.719468   5.754590
    50  H    3.313158   3.314330   2.048900   4.187603   2.050381
                   26         27         28         29         30
    26  H    0.000000
    27  H    4.884918   0.000000
    28  H    2.459259   4.123726   0.000000
    29  C    3.874312   8.150190   5.484060   0.000000
    30  H    4.684632   8.980610   6.011640   1.086299   0.000000
    31  O    4.661561   7.154755   6.952925   5.204760   6.246635
    32  C    2.960131   4.795821   4.841729   5.554042   6.595051
    33  C    2.807094   5.550463   4.772740   5.564650   6.513198
    34  C    4.315854   4.763377   5.853816   6.991090   8.046434
    35  C    3.758999   5.691379   5.252682   6.831973   7.732504
    36  H    2.469099   6.196971   4.656965   4.781745   5.665253
    37  C    4.916819   4.989260   6.192458   7.961496   8.978510
    38  H    5.037844   4.904015   6.511194   7.407463   8.485226
    39  H    4.134293   6.428264   5.488701   7.109813   7.916708
    40  H    5.941439   5.268570   7.045764   8.989260  10.019181
    41  C    5.622101   8.325704   7.939432   5.150530   6.105298
    42  H    5.510035   8.805561   7.890215   4.480674   5.354287
    43  H    6.553821   9.047961   8.888181   6.170502   7.092733
    44  H    5.855486   8.216646   8.023911   5.157212   6.100037
    45  N    3.367801   2.065244   2.066200   6.714984   7.428614
    46  N    4.739026   5.424246   5.929778   7.969308   8.914525
    47  C    7.044970   6.192503   8.130205   7.867353   8.825091
    48  H    8.059485   6.790525   8.999568   8.822683   9.746747
    49  H    5.510634   5.826987   6.448175   8.851763   9.765534
    50  H    4.184389   2.348887   2.349889   7.403656   8.030204
                   31         32         33         34         35
    31  O    0.000000
    32  C    2.740824   0.000000
    33  C    3.395386   1.483589   0.000000
    34  C    3.314508   1.484219   2.443015   0.000000
    35  C    4.489491   2.450800   1.367333   2.722359   0.000000
    36  H    3.530398   2.244031   1.083738   3.444308   2.127465
    37  C    4.433437   2.455403   2.728286   1.367805   2.274713
    38  H    3.373785   2.243629   3.442302   1.085642   3.802330
    39  H    5.271326   3.436583   2.111515   3.809593   1.090689
    40  H    5.181382   3.441498   3.815514   2.113419   3.251788
    41  C    1.442511   4.125913   4.721973   4.717850   5.858260
    42  H    2.080395   4.521760   4.850408   5.350452   6.040616
    43  H    2.033381   4.750891   5.292011   5.084288   6.278204
    44  H    2.105283   4.505147   5.336874   5.074020   6.527278
    45  N    6.872321   4.479796   4.861901   5.038366   5.173021
    46  N    5.023346   2.904716   2.439066   2.434637   1.361111
    47  C    5.218545   5.504221   6.974947   5.313829   7.831127
    48  H    6.256004   6.548240   8.025787   6.265184   8.835388
    49  H    5.988477   3.894014   3.340653   3.337157   2.084476
    50  H    7.869107   5.468773   5.784244   5.975645   5.999425
                   36         37         38         39         40
    36  H    0.000000
    37  C    3.807262   0.000000
    38  H    4.371611   2.130404   0.000000
    39  H    2.421087   3.250235   4.886043   0.000000
    40  H    4.891239   1.090993   2.426065   4.123223   0.000000
    41  C    4.658154   5.855223   4.633848   6.559899   6.551396
    42  H    4.539650   6.421738   5.437999   6.599702   7.219135
    43  H    5.314230   6.115591   4.918715   6.965133   6.693839
    44  H    5.317126   6.329598   4.819289   7.304476   6.978498
    45  N    5.188116   5.333596   5.496366   5.697442   5.961914
    46  N    3.396051   1.358781   3.394591   2.075578   2.075430
    47  C    7.503649   6.507899   4.443627   8.888455   6.677264
    48  H    8.578474   7.394095   5.342181   9.902745   7.459014
    49  H    4.209597   2.082342   4.210188   2.383083   2.383527
    50  H    6.077776   6.177187   6.416718   6.437325   6.737679
                   41         42         43         44         45
    41  C    0.000000
    42  H    1.092661   0.000000
    43  H    1.090376   1.789520   0.000000
    44  H    1.093757   1.790577   1.786311   0.000000
    45  N    7.992845   8.223169   8.853360   7.974790   0.000000
    46  N    6.447085   6.823142   6.745952   7.051793   5.388144
    47  C    5.467773   6.348101   5.877135   4.713839   7.015126
    48  H    6.428412   7.320412   6.765612   5.626550   7.780013
    49  H    7.401873   7.768478   7.649325   8.029151   5.867502
    50  H    8.973854   9.185272   9.845388   8.930616   1.000000
                   46         47         48         49         50
    46  N    0.000000
    47  C    7.706163   0.000000
    48  H    8.631424   1.086352   0.000000
    49  H    1.000000   8.543805   9.428898   0.000000
    50  H    6.168266   7.755799   8.448592   6.544519   0.000000
 Stoichiometry    C23H23N2OP(2+)
 Framework group  C1[X(C23H23N2OP)]
 Deg. of freedom   144
 Full point group                 C1      NOp   1
 Largest Abelian subgroup         C1      NOp   1
 Largest concise Abelian subgroup C1      NOp   1
                         Standard orientation:                         
 ---------------------------------------------------------------------
 Center     Atomic      Atomic             Coordinates (Angstroms)
 Number     Number       Type             X           Y           Z
 ---------------------------------------------------------------------
      1          6           0        1.805508   -3.815154   -0.425749
      2          6           0        1.333266   -2.592819   -0.890961
      3          6           0        1.380618   -1.462587   -0.061031
      4          6           0        1.948190   -1.557074    1.213239
      5          6           0        2.423155   -2.784087    1.669235
      6          1           0        1.757035   -4.688707   -1.068982
      7          1           0        0.939453   -2.523939   -1.900801
      8          1           0        2.027181   -0.694236    1.861306
      9          1           0        2.856638   -2.853872    2.662470
     10         15           0        0.744965    0.077371   -0.750243
     11          6           0        1.252795    1.561586    0.159826
     12          6           0        1.727005    2.632569   -0.611609
     13          6           0        1.192402    1.693586    1.554805
     14          6           0        2.137330    3.811264    0.005068
     15          1           0        1.776565    2.555840   -1.693237
     16          6           0        1.611191    2.871693    2.163608
     17          1           0        0.797256    0.898170    2.177345
     18          1           0        2.498707    4.634751   -0.603634
     19          1           0        1.560272    2.959642    3.244827
     20          6           0       -1.419119   -0.126702    0.680769
     21          6           0       -2.075650    0.927560    1.309865
     22          6           0       -1.633048   -1.404112    1.200516
     23          6           0       -2.884153    0.674760    2.413985
     24          1           0       -1.970612    1.947362    0.950275
     25          6           0       -2.461578   -1.562662    2.305452
     26          1           0       -1.171505   -2.283732    0.759684
     27          1           0       -3.400450    1.493013    2.911526
     28          1           0       -2.634906   -2.554384    2.717530
     29          6           0        2.341840   -3.913791    0.857708
     30          1           0        2.707015   -4.870285    1.220766
     31          8           0        1.437085    0.200465   -2.199060
     32          6           0       -1.030723    0.083220   -1.012346
     33          6           0       -1.680639   -1.052692   -1.711165
     34          6           0       -1.578547    1.377980   -1.488155
     35          6           0       -2.924241   -0.863513   -2.247137
     36          1           0       -1.241736   -2.043471   -1.696694
     37          6           0       -2.828153    1.400067   -2.043931
     38          1           0       -1.044677    2.306714   -1.311931
     39          1           0       -3.446185   -1.733092   -2.648395
     40          1           0       -3.267523    2.369918   -2.281854
     41          6           0        2.860060    0.054129   -2.384979
     42          1           0        3.110795   -1.006450   -2.463813
     43          1           0        3.094484    0.565357   -3.319115
     44          1           0        3.420141    0.510158   -1.563607
     45          7           0       -3.093677   -0.549319    2.913553
     46          7           0       -3.581506    0.320795   -2.381447
     47          6           0        2.085245    3.931213    1.391847
     48          1           0        2.409863    4.850156    1.871771
     49          1           0       -4.527563    0.389935   -2.697984
     50          1           0       -3.691661   -0.700062    3.700758
 ---------------------------------------------------------------------
 Rotational constants (GHZ):           0.2005325           0.1891329           0.1605674
 Standard basis: 6-31+G(d) (6D, 7F)
 There are   563 symmetry adapted cartesian basis functions of A   symmetry.
 There are   563 symmetry adapted basis functions of A   symmetry.
   563 basis functions,   980 primitive gaussians,   563 cartesian basis functions
    98 alpha electrons       98 beta electrons
       nuclear repulsion energy      2708.3289966457 Hartrees.
 NAtoms=   50 NActive=   50 NUniq=   50 SFac= 1.00D+00 NAtFMM=   60 NAOKFM=F Big=F
 Integral buffers will be    131072 words long.
 Raffenetti 2 integral format.
 Two-electron integral symmetry is turned on.
 Nuclear repulsion after empirical dispersion term =     2708.2805063644 Hartrees.
 ------------------------------------------------------------------------------
 Polarizable Continuum Model (PCM)
 =================================
 Model                : PCM.
 Atomic radii         : SMD-Coulomb.
 Polarization charges : Total charges.
 Charge compensation  : None.
 Solution method      : On-the-fly selection.
 Cavity type          : VdW (van der Waals Surface) (Alpha=1.000).
 Cavity algorithm     : GePol (No added spheres)
                        Default sphere list used, NSphG=   50.
                        Lebedev-Laikov grids with approx.  5.0 points / Ang**2.
                        Smoothing algorithm: York/Karplus (Gamma=1.0000).
                        Polarization charges: spherical gaussians, with
                                              point-specific exponents (IZeta= 3).
                        Self-potential: point-specific (ISelfS= 7).
                        Self-field    : sphere-specific E.n sum rule (ISelfD= 2).
 1st derivatives      : Analytical E(r).r(x)/FMM algorithm (CHGder, D1EAlg=3).
                        Cavity 1st derivative terms included.
 Solvent              : Ethanol, Eps=  24.852000 Eps(inf)=   1.852593
 ------------------------------------------------------------------------------
 ------------------------------------------------------------------------------
 Atomic radii for non-electrostatic terms: SMD-CDS.
 ------------------------------------------------------------------------------
 Nuclear repulsion after PCM non-electrostatic terms =     2708.2799078000 Hartrees.
 One-electron integrals computed using PRISM.
 NBasis=   563 RedAO= T EigKep=  1.17D-06  NBF=   563
 NBsUse=   560 1.00D-06 EigRej=  9.14D-07 NBFU=   560
 ExpMin= 3.48D-02 ExpMax= 1.94D+04 ExpMxC= 2.91D+03 IAcc=3 IRadAn=         5 AccDes= 0.00D+00
 Harris functional with IExCor= 4639 and IRadAn=       5 diagonalized for initial guess.
 HarFok:  IExCor= 4639 AccDes= 0.00D+00 IRadAn=         5 IDoV= 1 UseB2=F ITyADJ=14
 ICtDFT=  3500011 ScaDFX=  1.000000  1.000000  1.000000  1.000000
 FoFCou: FMM=F IPFlag=           0 FMFlag=      100000 FMFlg1=           0
         NFxFlg=           0 DoJE=T BraDBF=F KetDBF=T FulRan=T
         wScrn=  0.000000 ICntrl=       500 IOpCl=  0 I1Cent=   200000004 NGrid=           0
         NMat0=    1 NMatS0=      1 NMatT0=    0 NMatD0=    1 NMtDS0=    0 NMtDT0=    0
 Petite list used in FoFCou.
 Requested convergence on RMS density matrix=1.00D-08 within 128 cycles.
 Requested convergence on MAX density matrix=1.00D-06.
 Requested convergence on             energy=1.00D-06.
 No special actions if energy rises.
 Inv3:  Mode=1 IEnd=    38944827.
 Iteration    1 A*A^-1 deviation from unit magnitude is 1.05D-14 for    151.
 Iteration    1 A*A^-1 deviation from orthogonality  is 3.22D-15 for   2876   1502.
 Iteration    1 A^-1*A deviation from unit magnitude is 1.05D-14 for    151.
 Iteration    1 A^-1*A deviation from orthogonality  is 1.49D-14 for   2742   2733.
 Error on total polarization charges =  0.05694
 SCF Done:  E(RwB97XD) =  -1415.69950215     A.U. after   18 cycles
            NFock= 18  Conv=0.25D-08     -V/T= 2.0082
 SMD-CDS (non-electrostatic) energy       (kcal/mol) =      -0.38
 (included in total energy above)

 **********************************************************************

            Population analysis using the SCF density.

 **********************************************************************

 Orbital symmetries:
       Occupied  (A) (A) (A) (A) (A) (A) (A) (A) (A) (A) (A) (A)
                 (A) (A) (A) (A) (A) (A) (A) (A) (A) (A) (A) (A)
                 (A) (A) (A) (A) (A) (A) (A) (A) (A) (A) (A) (A)
                 (A) (A) (A) (A) (A) (A) (A) (A) (A) (A) (A) (A)
                 (A) (A) (A) (A) (A) (A) (A) (A) (A) (A) (A) (A)
                 (A) (A) (A) (A) (A) (A) (A) (A) (A) (A) (A) (A)
                 (A) (A) (A) (A) (A) (A) (A) (A) (A) (A) (A) (A)
                 (A) (A) (A) (A) (A) (A) (A) (A) (A) (A) (A) (A)
                 (A) (A)
       Virtual   (A) (A) (A) (A) (A) (A) (A) (A) (A) (A) (A) (A)
                 (A) (A) (A) (A) (A) (A) (A) (A) (A) (A) (A) (A)
                 (A) (A) (A) (A) (A) (A) (A) (A) (A) (A) (A) (A)
                 (A) (A) (A) (A) (A) (A) (A) (A) (A) (A) (A) (A)
                 (A) (A) (A) (A) (A) (A) (A) (A) (A) (A) (A) (A)
                 (A) (A) (A) (A) (A) (A) (A) (A) (A) (A) (A) (A)
                 (A) (A) (A) (A) (A) (A) (A) (A) (A) (A) (A) (A)
                 (A) (A) (A) (A) (A) (A) (A) (A) (A) (A) (A) (A)
                 (A) (A) (A) (A) (A) (A) (A) (A) (A) (A) (A) (A)
                 (A) (A) (A) (A) (A) (A) (A) (A) (A) (A) (A) (A)
                 (A) (A) (A) (A) (A) (A) (A) (A) (A) (A) (A) (A)
                 (A) (A) (A) (A) (A) (A) (A) (A) (A) (A) (A) (A)
                 (A) (A) (A) (A) (A) (A) (A) (A) (A) (A) (A) (A)
                 (A) (A) (A) (A) (A) (A) (A) (A) (A) (A) (A) (A)
                 (A) (A) (A) (A) (A) (A) (A) (A) (A) (A) (A) (A)
                 (A) (A) (A) (A) (A) (A) (A) (A) (A) (A) (A) (A)
                 (A) (A) (A) (A) (A) (A) (A) (A) (A) (A) (A) (A)
                 (A) (A) (A) (A) (A) (A) (A) (A) (A) (A) (A) (A)
                 (A) (A) (A) (A) (A) (A) (A) (A) (A) (A) (A) (A)
                 (A) (A) (A) (A) (A) (A) (A) (A) (A) (A) (A) (A)
                 (A) (A) (A) (A) (A) (A) (A) (A) (A) (A) (A) (A)
                 (A) (A) (A) (A) (A) (A) (A) (A) (A) (A) (A) (A)
                 (A) (A) (A) (A) (A) (A) (A) (A) (A) (A) (A) (A)
                 (A) (A) (A) (A) (A) (A) (A) (A) (A) (A) (A) (A)
                 (A) (A) (A) (A) (A) (A) (A) (A) (A) (A) (A) (A)
                 (A) (A) (A) (A) (A) (A) (A) (A) (A) (A) (A) (A)
                 (A) (A) (A) (A) (A) (A) (A) (A) (A) (A) (A) (A)
                 (A) (A) (A) (A) (A) (A) (A) (A) (A) (A) (A) (A)
                 (A) (A) (A) (A) (A) (A) (A) (A) (A) (A) (A) (A)
                 (A) (A) (A) (A) (A) (A) (A) (A) (A) (A) (A) (A)
                 (A) (A) (A) (A) (A) (A) (A) (A) (A) (A) (A) (A)
                 (A) (A) (A) (A) (A) (A) (A) (A) (A) (A) (A) (A)
                 (A) (A) (A) (A) (A) (A) (A) (A) (A) (A) (A) (A)
                 (A) (A) (A) (A) (A) (A) (A) (A) (A) (A) (A) (A)
                 (A) (A) (A) (A) (A) (A) (A) (A) (A) (A) (A) (A)
                 (A) (A) (A) (A) (A) (A) (A) (A) (A) (A) (A) (A)
                 (A) (A) (A) (A) (A) (A) (A) (A) (A) (A) (A) (A)
                 (A) (A) (A) (A) (A) (A) (A) (A) (A) (A) (A) (A)
                 (A) (A) (A) (A) (A) (A)
 The electronic state is 1-A.
 Alpha  occ. eigenvalues --  -77.38802 -19.33850 -14.58269 -14.52012 -10.39848
 Alpha  occ. eigenvalues --  -10.39791 -10.39257 -10.37905 -10.36483 -10.36443
 Alpha  occ. eigenvalues --  -10.36103 -10.35421 -10.35218 -10.35171 -10.35082
 Alpha  occ. eigenvalues --  -10.33781 -10.33742 -10.33690 -10.33627 -10.32921
 Alpha  occ. eigenvalues --  -10.32817 -10.32573 -10.32513 -10.32491 -10.32470
 Alpha  occ. eigenvalues --  -10.32433 -10.32304  -6.80674  -4.95715  -4.95334
 Alpha  occ. eigenvalues --   -4.95282  -1.18636  -1.15217  -1.09960  -0.99834
 Alpha  occ. eigenvalues --   -0.98606  -0.98161  -0.93979  -0.91725  -0.90009
 Alpha  occ. eigenvalues --   -0.88484  -0.87637  -0.87430  -0.87050  -0.84154
 Alpha  occ. eigenvalues --   -0.80973  -0.78922  -0.77363  -0.75083  -0.74852
 Alpha  occ. eigenvalues --   -0.72881  -0.72618  -0.71777  -0.71647  -0.68701
 Alpha  occ. eigenvalues --   -0.68393  -0.64132  -0.63369  -0.63203  -0.62937
 Alpha  occ. eigenvalues --   -0.60102  -0.59335  -0.59162  -0.58642  -0.57519
 Alpha  occ. eigenvalues --   -0.56730  -0.56576  -0.56544  -0.56050  -0.55517
 Alpha  occ. eigenvalues --   -0.55447  -0.55375  -0.54220  -0.53325  -0.52912
 Alpha  occ. eigenvalues --   -0.52179  -0.51933  -0.51727  -0.49651  -0.49084
 Alpha  occ. eigenvalues --   -0.48196  -0.48058  -0.47056  -0.46734  -0.45969
 Alpha  occ. eigenvalues --   -0.45291  -0.44616  -0.44040  -0.43416  -0.41673
 Alpha  occ. eigenvalues --   -0.40910  -0.38811  -0.36580  -0.35992  -0.35882
 Alpha  occ. eigenvalues --   -0.35490  -0.35311  -0.29573
 Alpha virt. eigenvalues --   -0.03999  -0.00088   0.01197   0.01783   0.03382
 Alpha virt. eigenvalues --    0.03614   0.04664   0.04784   0.05882   0.05970
 Alpha virt. eigenvalues --    0.06602   0.06978   0.07249   0.07717   0.08174
 Alpha virt. eigenvalues --    0.08228   0.08397   0.08626   0.09389   0.09845
 Alpha virt. eigenvalues --    0.10029   0.10267   0.10523   0.10809   0.11046
 Alpha virt. eigenvalues --    0.11387   0.11741   0.12170   0.12661   0.12893
 Alpha virt. eigenvalues --    0.13190   0.13543   0.13567   0.13846   0.14352
 Alpha virt. eigenvalues --    0.14586   0.14951   0.15375   0.15758   0.16110
 Alpha virt. eigenvalues --    0.16204   0.16646   0.16773   0.17100   0.17320
 Alpha virt. eigenvalues --    0.17539   0.18146   0.18427   0.18528   0.18758
 Alpha virt. eigenvalues --    0.18956   0.19226   0.19847   0.19906   0.20276
 Alpha virt. eigenvalues --    0.20358   0.20904   0.21131   0.21234   0.21399
 Alpha virt. eigenvalues --    0.21862   0.21936   0.22256   0.22441   0.22599
 Alpha virt. eigenvalues --    0.22951   0.23154   0.23239   0.23718   0.23821
 Alpha virt. eigenvalues --    0.24233   0.24436   0.24794   0.25032   0.25152
 Alpha virt. eigenvalues --    0.25370   0.25513   0.25682   0.26172   0.26313
 Alpha virt. eigenvalues --    0.26589   0.26977   0.27098   0.27456   0.27613
 Alpha virt. eigenvalues --    0.27820   0.27987   0.28268   0.28464   0.28893
 Alpha virt. eigenvalues --    0.28995   0.29327   0.29488   0.29802   0.30059
 Alpha virt. eigenvalues --    0.30279   0.30495   0.30896   0.30915   0.31257
 Alpha virt. eigenvalues --    0.31683   0.31754   0.32149   0.32321   0.32431
 Alpha virt. eigenvalues --    0.32639   0.33047   0.33367   0.33586   0.33666
 Alpha virt. eigenvalues --    0.34144   0.34283   0.34527   0.34749   0.35065
 Alpha virt. eigenvalues --    0.35476   0.35592   0.35942   0.36207   0.36694
 Alpha virt. eigenvalues --    0.37078   0.37257   0.37603   0.37796   0.37893
 Alpha virt. eigenvalues --    0.37996   0.38602   0.38902   0.39062   0.39452
 Alpha virt. eigenvalues --    0.39715   0.39880   0.40210   0.40696   0.40764
 Alpha virt. eigenvalues --    0.41153   0.41806   0.42005   0.42793   0.42942
 Alpha virt. eigenvalues --    0.43304   0.43753   0.44073   0.44411   0.44702
 Alpha virt. eigenvalues --    0.45350   0.45632   0.46004   0.46718   0.46898
 Alpha virt. eigenvalues --    0.47107   0.47656   0.48541   0.49395   0.50317
 Alpha virt. eigenvalues --    0.50836   0.52127   0.54236   0.55131   0.55813
 Alpha virt. eigenvalues --    0.57393   0.59621   0.60325   0.61678   0.63151
 Alpha virt. eigenvalues --    0.64272   0.64930   0.65497   0.66327   0.68498
 Alpha virt. eigenvalues --    0.71195   0.73431   0.74248   0.74485   0.76100
 Alpha virt. eigenvalues --    0.76403   0.77050   0.77903   0.78679   0.79004
 Alpha virt. eigenvalues --    0.79641   0.80431   0.80550   0.81272   0.81667
 Alpha virt. eigenvalues --    0.82152   0.82331   0.82918   0.83052   0.83692
 Alpha virt. eigenvalues --    0.84096   0.84237   0.84534   0.85259   0.85585
 Alpha virt. eigenvalues --    0.86011   0.86936   0.87389   0.87986   0.88466
 Alpha virt. eigenvalues --    0.88798   0.89032   0.89794   0.90215   0.90866
 Alpha virt. eigenvalues --    0.92912   0.93376   0.93910   0.94868   0.95686
 Alpha virt. eigenvalues --    0.96274   0.96998   0.97113   0.97734   0.98306
 Alpha virt. eigenvalues --    0.98992   0.99343   1.00169   1.00492   1.00911
 Alpha virt. eigenvalues --    1.01193   1.01272   1.01415   1.02068   1.02237
 Alpha virt. eigenvalues --    1.02922   1.03240   1.03884   1.04336   1.05122
 Alpha virt. eigenvalues --    1.05435   1.06277   1.06718   1.07159   1.07542
 Alpha virt. eigenvalues --    1.07931   1.08072   1.09182   1.09838   1.10425
 Alpha virt. eigenvalues --    1.10976   1.11877   1.12502   1.12753   1.13350
 Alpha virt. eigenvalues --    1.14314   1.15066   1.15200   1.15642   1.17123
 Alpha virt. eigenvalues --    1.18289   1.18832   1.19322   1.19634   1.20279
 Alpha virt. eigenvalues --    1.20597   1.21796   1.22313   1.22903   1.22944
 Alpha virt. eigenvalues --    1.23884   1.24620   1.26456   1.26517   1.26990
 Alpha virt. eigenvalues --    1.27822   1.28591   1.29396   1.30420   1.30910
 Alpha virt. eigenvalues --    1.31407   1.32285   1.32739   1.33709   1.34193
 Alpha virt. eigenvalues --    1.34791   1.35341   1.36719   1.37693   1.38679
 Alpha virt. eigenvalues --    1.39678   1.40996   1.42318   1.42870   1.43916
 Alpha virt. eigenvalues --    1.45665   1.47142   1.47704   1.48467   1.49069
 Alpha virt. eigenvalues --    1.49455   1.49959   1.50659   1.51216   1.51862
 Alpha virt. eigenvalues --    1.53010   1.53582   1.53876   1.54216   1.54723
 Alpha virt. eigenvalues --    1.55141   1.55577   1.55782   1.56791   1.56898
 Alpha virt. eigenvalues --    1.57319   1.57477   1.58451   1.59007   1.59610
 Alpha virt. eigenvalues --    1.60965   1.61509   1.62380   1.65294   1.66412
 Alpha virt. eigenvalues --    1.66781   1.69494   1.70898   1.72760   1.73507
 Alpha virt. eigenvalues --    1.74470   1.75927   1.78530   1.80697   1.81648
 Alpha virt. eigenvalues --    1.85896   1.87980   1.89762   1.91187   1.92111
 Alpha virt. eigenvalues --    1.92877   1.93635   1.96350   1.96852   1.97579
 Alpha virt. eigenvalues --    1.98176   1.99369   1.99671   2.01680   2.04221
 Alpha virt. eigenvalues --    2.06308   2.06685   2.07844   2.08672   2.10088
 Alpha virt. eigenvalues --    2.10236   2.11179   2.12300   2.13066   2.14135
 Alpha virt. eigenvalues --    2.15562   2.16016   2.16714   2.17806   2.18536
 Alpha virt. eigenvalues --    2.19823   2.21147   2.21427   2.21820   2.21936
 Alpha virt. eigenvalues --    2.22284   2.22666   2.23196   2.23395   2.23865
 Alpha virt. eigenvalues --    2.24896   2.26143   2.26423   2.27195   2.28025
 Alpha virt. eigenvalues --    2.28708   2.29448   2.30061   2.30861   2.31343
 Alpha virt. eigenvalues --    2.33137   2.33385   2.34437   2.35142   2.36005
 Alpha virt. eigenvalues --    2.36476   2.36801   2.37968   2.38564   2.39841
 Alpha virt. eigenvalues --    2.40353   2.40597   2.41231   2.43380   2.45770
 Alpha virt. eigenvalues --    2.46743   2.49553   2.53457   2.64163   2.65111
 Alpha virt. eigenvalues --    2.66137   2.66951   2.68000   2.68989   2.69847
 Alpha virt. eigenvalues --    2.70217   2.70820   2.70969   2.71820   2.72761
 Alpha virt. eigenvalues --    2.73148   2.74063   2.76585   2.78465   2.79384
 Alpha virt. eigenvalues --    2.79953   2.80605   2.80653   2.84256   2.84442
 Alpha virt. eigenvalues --    2.85089   2.85882   2.87541   2.87845   2.88214
 Alpha virt. eigenvalues --    2.88900   2.91670   2.92474   2.95186   2.96272
 Alpha virt. eigenvalues --    2.98060   2.99948   3.11380   3.11603   3.14034
 Alpha virt. eigenvalues --    3.15813   3.40407   3.44814   3.46365   3.48448
 Alpha virt. eigenvalues --    3.71882   4.30662   4.32843   4.36552   4.37397
 Alpha virt. eigenvalues --    4.39545   4.41112   4.42526   4.43820   4.45055
 Alpha virt. eigenvalues --    4.46034   4.47116   4.48657   4.49560   4.52275
 Alpha virt. eigenvalues --    4.52797   4.55517   4.55619   4.59097   4.60751
 Alpha virt. eigenvalues --    4.64339   4.70036   4.71653   4.77030   4.77937
 Alpha virt. eigenvalues --    4.79881   4.84703
          Condensed to atoms (all electrons):
               1          2          3          4          5          6
     1  C   11.203676  -0.914982  -0.760986  -4.319894   1.404752   0.267643
     2  C   -0.914982  12.230614  -2.899802  -2.751030  -0.114113  -0.009776
     3  C   -0.760986  -2.899802  19.107286  -6.352708   0.218109   0.034409
     4  C   -4.319894  -2.751030  -6.352708  27.134976  -9.296470   0.017595
     5  C    1.404752  -0.114113   0.218109  -9.296470  14.031426  -0.012049
     6  H    0.267643  -0.009776   0.034409   0.017595  -0.012049   0.429072
     7  H    0.038727   0.316618  -0.043562  -0.013554  -0.011502  -0.003119
     8  H    0.012846  -0.020982   0.024574   0.169447   0.038091   0.000011
     9  H    0.007140  -0.010662   0.053684  -0.053789   0.327525  -0.000104
    10  P    0.209648  -0.581490   2.163410  -3.300146   0.424555   0.002023
    11  C   -0.049251   0.271003  -0.704061  -0.213800  -0.015528  -0.000103
    12  C    0.478822   1.569602   2.568015  -3.785168   0.139314  -0.000113
    13  C   -0.473975  -1.876523  -3.673496   5.826308  -0.015008   0.000287
    14  C    0.001943   0.088741   0.651080  -0.475245  -0.080121  -0.000001
    15  H   -0.000607  -0.005396   0.017550  -0.004790  -0.001111   0.000000
    16  C    0.035177  -0.300998   0.914004  -0.626452  -0.483509   0.000043
    17  H   -0.001670   0.011535   0.028809  -0.031582  -0.008649  -0.000000
    18  H   -0.000002   0.000070  -0.000119  -0.000106  -0.000019  -0.000000
    19  H    0.000039   0.000084   0.003988  -0.005268  -0.000910  -0.000000
    20  C   -0.037183   2.129758  -1.719856   0.228061  -0.833938  -0.001453
    21  C   -0.127676  -0.226135  -0.963284  -0.193412   0.593622  -0.000209
    22  C    0.339661  -0.345313   1.878338  -0.071620  -0.665981   0.001476
    23  C   -0.042280  -0.107042  -0.134876   0.346140  -0.006248   0.000002
    24  H    0.000175   0.001718   0.000112  -0.004844   0.000134  -0.000000
    25  C    0.124548   0.008854  -0.081181   0.127746  -0.132136   0.000166
    26  H   -0.017406  -0.015355   0.010682   0.018246  -0.003145   0.000000
    27  H   -0.000013  -0.000083   0.000673  -0.000282  -0.000174   0.000000
    28  H    0.000741   0.000166   0.001735  -0.004501   0.000221  -0.000000
    29  C   -0.097574  -0.115469  -1.749278   2.193972  -0.455333   0.012223
    30  H    0.009572  -0.008109  -0.003089   0.002567   0.004418  -0.002762
    31  O    0.023344  -0.144203  -0.095968   0.091865   0.053207   0.000006
    32  C   -0.834408  -0.592080  -2.403698   1.396401   1.555805  -0.002340
    33  C    0.499755   0.990268   0.034216  -0.627528  -0.171866   0.001874
    34  C   -0.301550  -0.109913  -0.549869   0.328878  -0.036344  -0.000053
    35  C   -0.066275  -0.578178   0.488798   0.131266   0.004309   0.000475
    36  H   -0.019286  -0.029893   0.031007   0.028423  -0.002704   0.000002
    37  C   -0.001069  -0.127845   0.498637  -0.085119  -0.026094  -0.000022
    38  H   -0.000260  -0.001256  -0.006107   0.004518   0.000321  -0.000000
    39  H   -0.000060  -0.001067   0.000024   0.000036   0.000022  -0.000000
    40  H   -0.000006  -0.000031  -0.000183  -0.000067   0.000018  -0.000000
    41  C   -0.010087   0.084794  -0.231841  -0.022651   0.057366  -0.000463
    42  H   -0.046338  -0.011094   0.049907   0.018990  -0.003699  -0.000011
    43  H    0.002957   0.000801   0.016295  -0.001169  -0.001121   0.000000
    44  H    0.014703   0.028243  -0.066266  -0.035102   0.013201  -0.000000
    45  N    0.003365   0.006201   0.009808  -0.014001  -0.011265   0.000001
    46  N   -0.006306   0.019018  -0.053146   0.015208   0.000713  -0.000000
    47  C    0.002854   0.002575  -0.112209   0.117231   0.030732  -0.000002
    48  H   -0.000001  -0.000060  -0.000487   0.000436   0.000084   0.000000
    49  H    0.000025   0.000325  -0.000117  -0.000017  -0.000007   0.000000
    50  H   -0.000014   0.000008  -0.000358   0.000458   0.000051   0.000000
               7          8          9         10         11         12
     1  C    0.038727   0.012846   0.007140   0.209648  -0.049251   0.478822
     2  C    0.316618  -0.020982  -0.010662  -0.581490   0.271003   1.569602
     3  C   -0.043562   0.024574   0.053684   2.163410  -0.704061   2.568015
     4  C   -0.013554   0.169447  -0.053789  -3.300146  -0.213800  -3.785168
     5  C   -0.011502   0.038091   0.327525   0.424555  -0.015528   0.139314
     6  H   -0.003119   0.000011  -0.000104   0.002023  -0.000103  -0.000113
     7  H    0.429263  -0.000104   0.000012   0.001492   0.000018   0.001986
     8  H   -0.000104   0.452673  -0.003756   0.113340  -0.000153  -0.003461
     9  H    0.000012  -0.003756   0.429845   0.006182   0.002031   0.001068
    10  P    0.001492   0.113340   0.006182  26.766034  -2.422082  -3.056276
    11  C    0.000018  -0.000153   0.002031  -2.422082  25.720616  -9.450918
    12  C    0.001986  -0.003461   0.001068  -3.056276  -9.450918  27.762826
    13  C    0.001447  -0.053224  -0.003083   0.408909  -0.924757 -13.167099
    14  C    0.000165   0.001432   0.000110   0.408071  -3.140834  -0.031841
    15  H   -0.000000  -0.000005  -0.000000  -0.024247  -0.135519   0.413669
    16  C    0.000124   0.061097   0.001546   2.892210  -1.859453   0.053616
    17  H   -0.000000   0.003864  -0.000011   0.028636   0.137012  -0.014040
    18  H    0.000000   0.000000  -0.000000   0.004869   0.083313  -0.035031
    19  H    0.000000  -0.000011  -0.000000   0.007968   0.036477  -0.005344
    20  C   -0.017104  -0.045043  -0.002637  -0.633676  -0.561899  -0.587021
    21  C   -0.002170   0.015784   0.000071   3.958599  -0.242471  -2.789490
    22  C    0.005009   0.000587   0.002820  -2.356954   0.341772   2.099826
    23  C    0.000008  -0.001470  -0.000043  -0.654254   0.041719  -0.041299
    24  H    0.000000   0.000003  -0.000000   0.017711   0.002166   0.012116
    25  C   -0.000143  -0.006354  -0.001581  -0.643803   0.250349   0.102468
    26  H    0.000010  -0.000001   0.000000   0.005619   0.001029   0.000638
    27  H   -0.000000  -0.000000   0.000000  -0.000664  -0.000690   0.000587
    28  H    0.000000   0.000000  -0.000000   0.011302  -0.001760  -0.000221
    29  C    0.001107  -0.019557  -0.015911  -0.326146  -0.079951  -0.186290
    30  H   -0.000109  -0.000113  -0.002662  -0.004385   0.000068  -0.000024
    31  O    0.008045   0.000429   0.000016  -0.335969   0.436215  -0.310156
    32  C   -0.034985   0.002260  -0.000825  -7.025762  -0.235242   3.927454
    33  C    0.046526   0.000786   0.000302  -0.502723  -1.699551   0.799273
    34  C   -0.011179  -0.003860  -0.000040  -2.514912   1.862273  -0.988775
    35  C    0.002441   0.000116  -0.000003   1.409050   0.388081  -0.469258
    36  H    0.001650  -0.000002  -0.000000  -0.041319   0.000126  -0.003210
    37  C   -0.000680  -0.000227   0.000001   0.549360  -0.139306   0.331194
    38  H   -0.000001  -0.000000  -0.000000   0.049487   0.055455  -0.063097
    39  H   -0.000005  -0.000000   0.000000  -0.001549   0.000110   0.000211
[...]
 0.00003237,-0.00027318,-0.00018874,0.00069462,-0.00039549,0.00009624,-
 0.00029497,-0.00006001,-0.00025689,-0.00000593,0.00009953,-0.00003493,
 0.00002698,-0.00024600,0.00029212,-0.00000546,-0.00001668,-0.00001349,
 0.00002447,0.00004940,0.00009886,0.00002295,0.00000087,0.00000127,0.00
 001538,-0.00000133,-0.00001817,0.00000423,0.00000541,-0.00001193,-0.00
 020896,0.00017580,0.00016225,0.00001505,-0.00001082,0.00002495,0.00001
 936,0.00001126,-0.00000343,0.00003471,0.00001953,0.00003047,-0.0000303
 3,0.00004459,0.00005996,-0.00002565,0.00015343,-0.00022330,0.19192525,
 0.67731927,0.00003549,-0.00003183,-0.00000746,-0.00003115,-0.00001144,
 0.00015999,-0.00040509,0.00004267,-0.00028458,0.00007406,0.00022976,-0
 .00003842,0.00008402,0.00009663,0.00004319,0.00002089,-0.00000714,-0.0
 0000388,-0.00000741,0.00001173,0.00000190,0.00007947,-0.00008029,0.000
 14263,0.00000057,0.00000023,-0.00000040,0.00137627,0.00318923,-0.00177
 865,0.01673373,0.02542083,-0.05773010,-0.02584726,-0.07986764,-0.02178
 759,0.00271150,0.03146059,0.07221517,0.04334261,0.01579911,-0.34904334
 ,0.00005599,-0.00219277,0.00074006,0.03640762,0.04985875,-0.19466131,-
 0.00023378,-0.00378126,-0.00098142,0.00068511,-0.00403977,-0.01092065,
 0.01161547,0.02579806,-0.01023226,-0.00011072,-0.00000417,0.00010553,-
 0.00017966,-0.00006051,0.00002332,-0.00006628,-0.00004891,0.00007748,0
 .00002995,0.00003033,-0.00010172,0.00001426,-0.00000369,0.00002552,0.0
 0001860,-0.00000815,-0.00006938,0.00000199,0.00000149,-0.00000325,-0.0
 0001290,-0.00000698,-0.00000435,0.00000377,0.00000184,-0.00000007,-0.0
 0003921,0.00000008,-0.00003540,-0.00000976,0.00000286,0.00001518,0.000
 12299,-0.00040798,-0.00022868,0.00011500,0.00010852,0.00000008,-0.0000
 3460,0.00005358,0.00003218,-0.00004505,0.00001946,0.00008136,-0.000002
 19,-0.00002579,-0.00005751,0.00001390,-0.00000124,-0.00000101,-0.00004
 197,-0.00005207,-0.00008042,-0.00009518,-0.00011457,-0.00004788,0.0000
 0710,0.00000199,-0.00000693,-0.00001323,-0.00000112,-0.00000892,-0.000
 14549,-0.00007382,0.00011190,0.00001205,-0.00000997,-0.00007532,0.0000
 0801,-0.00000820,-0.00001846,-0.00004857,-0.00002447,-0.00005529,0.000
 01696,0.00000938,0.00005612,0.00002097,0.00001646,0.00008151,-0.053888
 87,0.05477921,0.69937119,-0.00001279,0.00001270,0.00000544,-0.00000069
 ,0.00002284,-0.00004043,0.00011879,0.00012551,0.00006337,0.00000374,-0
 .00000498,0.00002149,-0.00000350,-0.00001738,-0.00001080,-0.00000520,0
 .00000208,0.00000089,0.00000243,0.00000040,-0.00000378,-0.00001512,-0.
 00000434,-0.00000645,0.00000149,0.00000098,-0.00000109,-0.00094666,0.0
 0044214,-0.00000541,-0.00092551,0.00032645,0.00013764,0.00684018,-0.00
 216074,0.00175596,0.00585957,-0.00374312,0.00230883,0.00603938,0.00299
 264,0.00256405,-0.00020669,0.00029412,0.00009139,0.00247651,-0.0095088
 0,-0.00590100,-0.00035996,-0.00028760,-0.00035446,-0.00358945,0.001512
 88,-0.00072057,-0.00341002,0.00175674,-0.00059443,0.00001435,0.0000050
 1,-0.00001979,-0.00000845,0.00000068,0.00001597,-0.00002074,-0.0000080
 0,0.00001743,0.00000790,0.00000514,-0.00001400,-0.00000158,-0.00000288
 ,-0.00000213,0.00000650,-0.00000712,-0.00002079,0.00000077,0.00000169,
 -0.00000049,-0.00000211,-0.00000138,0.00000239,0.00000048,0.00000064,0
 .00000069,0.00000576,0.00000340,0.00001162,0.00000087,-0.00000087,-0.0
 0000157,0.00003640,0.00002824,-0.00002610,0.00003205,-0.00020819,-0.00
 003189,-0.00008763,0.00000940,-0.00002407,0.00001764,0.00000067,0.0000
 0440,0.00000293,-0.00005718,0.00004132,0.00000026,-0.00000450,-0.00000
 209,-0.00000272,0.00000129,0.00000346,0.00000571,-0.00000305,0.0000011
 7,0.00000539,-0.00000016,-0.00000609,0.00000009,0.00000118,-0.00000351
 ,0.00000549,-0.00001542,-0.00000924,0.00000008,-0.00000245,-0.00000435
 ,0.00000344,-0.00000133,-0.00000101,-0.00000139,-0.00000355,-0.0000151
 9,-0.00000240,0.00000619,0.00001714,-0.00000526,0.00003955,-0.00003025
 ,-0.06334235,-0.06792040,-0.03235811,0.05145971,0.00000790,-0.00002282
 ,-0.00000587,0.00002655,-0.00001155,0.00004990,-0.00010043,-0.00011666
 ,-0.00005948,0.00000904,0.00001508,-0.00000632,-0.00000384,-0.00000423
 ,-0.00001098,0.00000392,-0.00000695,0.00000013,-0.00000441,0.00000228,
 0.00000112,-0.00003734,0.00002562,-0.00002035,0.00000248,-0.00000298,0
 .00000380,0.00047342,0.00026444,0.00031720,0.00027136,-0.00002173,0.00
 050426,-0.00205918,0.00232980,-0.00002477,-0.00373565,-0.00127652,0.00
 303085,-0.00098730,0.00324103,0.00159736,0.00008405,-0.00003606,0.0001
 3682,-0.00556173,-0.01448653,-0.01324914,-0.00012752,-0.00085548,-0.00
 068197,0.00160751,0.00005834,0.00000645,0.00169220,0.00043779,0.000220
 12,0.00003698,0.00000963,-0.00000019,-0.00001116,-0.00000890,0.0000162
 0,-0.00002515,0.00000315,0.00000722,0.00000260,0.00000605,-0.00002252,
 0.00000356,-0.00000051,-0.00000127,0.00000839,-0.00000262,-0.00002106,
 0.00000319,0.00000301,-0.00000073,0.00000052,-0.00000035,0.00000116,0.
 00000033,0.00000120,0.00000094,0.00000008,-0.00001079,-0.00000476,-0.0
 0000046,-0.00000436,0.00000083,0.00002037,-0.00010490,-0.00018436,0.00
 006447,0.00000268,0.00002842,-0.00001735,-0.00000228,-0.00002008,-0.00
 002791,0.00000821,-0.00001846,-0.00000114,-0.00001889,0.00002009,0.000
 00165,-0.00000225,-0.00000206,0.00000463,0.00002209,0.00003576,0.00000
 520,-0.00000590,-0.00000140,0.00000063,-0.00000053,-0.00000264,0.00000
 092,0.00000075,-0.00000237,-0.00007958,0.00002171,0.00004739,0.0000100
 5,-0.00000426,-0.00000386,0.00000643,0.00000030,-0.00000512,0.00000406
 ,0.00000222,0.00000742,-0.00000076,-0.00000072,0.00002100,-0.00000534,
 -0.00000693,-0.00003457,-0.06794109,-0.26574363,-0.11606883,0.07637106
 ,0.27630465,-0.00000286,-0.00000239,-0.00000673,0.00001907,-0.00001303
 ,0.00001587,-0.00003156,-0.00002791,-0.00003908,-0.00000808,0.00000032
 ,-0.00000853,0.00000188,-0.00000647,0.00000333,0.00000064,-0.00000333,
 0.00000114,-0.00000115,0.00000289,0.00000079,0.00000318,0.00000479,0.0
 0000115,0.00000089,-0.00000115,0.00000133,-0.00006117,0.00024480,0.000
 03787,0.00014260,0.00050686,-0.00064625,0.00182244,0.00019947,-0.00547
 362,0.00225844,0.00281320,-0.00118561,-0.00831269,-0.02752186,-0.00906
 347,-0.00045544,-0.00131688,-0.00049694,0.00498288,0.01588649,0.012171
 07,0.00021476,0.00081070,0.00045593,-0.00052059,0.00052793,0.00120263,
 -0.00080071,-0.00033617,0.00073099,-0.00001025,0.00000143,-0.00003280,
 -0.00000631,0.00000030,0.00001358,0.00000777,-0.00000113,0.00000237,0.
 00000156,0.00000386,-0.00000550,0.00000109,-0.00000138,-0.00000118,-0.
 00000071,0.00000242,0.00000600,0.00000004,0.00000091,-0.00000258,0.000
 00037,-0.00000007,0.00000146,-0.00000016,-0.00000021,0.00000072,0.0000
 0372,0.00000071,0.00000315,0.00000078,-0.00000061,0.00000055,0.0000030
 7,-0.00010105,-0.00001091,0.00005088,-0.00007272,-0.00002236,-0.000047
 63,0.00000549,-0.00001500,-0.00001826,0.00001076,-0.00000348,-0.000000
 39,-0.00002917,0.00002427,0.00000203,-0.00000261,-0.00000159,0.0000006
 4,0.00000916,0.00002284,0.00000415,-0.00000601,-0.00000383,0.00000258,
 -0.00000045,-0.00000346,0.00000059,0.00000053,-0.00000168,-0.00004353,
 0.00004099,0.00005776,-0.00000090,-0.00000700,-0.00000556,0.00000455,0
 .00000349,-0.00000152,-0.00000570,-0.00000074,-0.00001024,-0.00000250,
 -0.00000555,0.00000267,-0.00000146,0.00000819,-0.00002779,-0.03234438,
 -0.11602841,-0.12500427,0.03314360,0.12440045,0.12731267,0.00002943,-0
 .00003142,0.00004926,-0.00003602,0.00001360,-0.00002728,0.00001881,0.0
 0006200,-0.00006053,0.00000636,-0.00004622,0.00003452,-0.00001027,0.00
 004376,0.00000753,0.00000038,-0.00000322,-0.00000134,0.00004322,0.0000
 0670,0.00000854,0.00000360,0.00000132,-0.00000255,0.00000622,-0.000001
 08,0.00000057,0.00025891,-0.00007959,0.00010022,0.00008386,-0.00002394
 ,-0.00002861,-0.00002527,0.00001853,0.00002584,-0.00002230,0.00000940,
 -0.00003042,0.00001099,0.00000600,0.00000032,-0.00000265,-0.00000813,0
 .00000016,0.00000303,0.00000617,0.00000821,0.00000083,-0.00000500,-0.0
 0000269,-0.00000019,0.00000332,0.00000034,0.00000055,0.00000258,0.0000
 0331,0.00019220,-0.00002771,-0.00028630,-0.00003623,0.00002856,-0.0000
 3655,0.00005502,-0.00002218,-0.00000171,-0.00000466,0.00001905,-0.0000
 0079,-0.00001469,0.00001451,0.00000498,-0.00004158,0.00000327,0.000022
 50,0.00002082,0.00002436,0.00001547,0.00000947,0.00000418,-0.00000069,
 -0.00000345,-0.00000247,-0.00000337,-0.00002475,-0.00003123,-0.0000324
 0,0.00000564,-0.00000199,-0.00000078,0.00002416,0.00000970,0.00003014,
 -0.00095231,-0.00008438,0.00007699,0.00243065,-0.00022903,0.00045750,0
 .00240026,-0.00059418,0.00006122,-0.00545733,-0.00025755,0.00356437,0.
 00153391,-0.00025239,-0.00054729,-0.00680564,0.00137713,0.00082380,0.0
 0155266,0.00012005,-0.00062287,-0.00117640,0.00022160,0.00089519,-0.00
 129485,-0.00008777,0.00088906,-0.00003507,0.00001907,0.00000127,-0.000
 01008,0.00000138,-0.00000130,-0.00000696,-0.00000895,-0.00000152,0.000
 00373,0.00000258,0.00000791,0.00000845,-0.00001415,-0.00001332,-0.0886
 0889,0.01255743,-0.18832493,0.00000027,0.00000033,0.00000235,0.0000010
 6,0.00000177,0.00000117,0.09586040,0.00001055,0.00000807,0.00001224,-0
 .00001008,-0.00002492,-0.00005058,-0.00014358,-0.00000755,0.00001268,0
 .00000011,0.00001790,0.00001564,0.00000771,0.00001700,-0.00000606,0.00
 000029,0.00000152,-0.00000003,-0.00002086,0.00002839,0.00002565,-0.000
 00414,-0.00000153,0.00000511,-0.00000039,0.00000305,-0.00000220,0.0000
 9987,0.00002948,-0.00000173,0.00007477,0.00000189,-0.00001575,0.000009
 33,0.00001588,0.00000298,-0.00000717,0.00000759,0.00001704,-0.00001000
 ,0.00001023,0.00000123,0.00000497,0.00000099,-0.00000256,-0.00000516,-
 0.00000196,-0.00000230,0.00000111,-0.00000185,0.00000251,-0.00000030,-
 0.00000116,-0.00000075,0.00000031,-0.00000059,-0.00000022,0.00000289,0
 .00024262,-0.00008964,0.00000509,-0.00004644,0.00000712,0.00004762,-0.
 00005647,-0.00003051,-0.00003188,0.00001749,0.00001217,-0.00005216,0.0
 0004148,0.00006536,0.00001178,0.00002690,-0.00005327,-0.00001210,0.000
 02637,-0.00002288,0.00000155,0.00000207,-0.00000139,0.00000480,0.00000
 052,-0.00000342,-0.00000873,-0.00000009,-0.00000546,0.00000052,0.00000
 051,0.00000188,-0.00005394,0.00004769,0.00003466,0.00006540,-0.0007521
 3,0.00005694,-0.00039636,-0.00606209,0.00106479,-0.00054524,-0.0055241
 0,-0.00219325,0.01581323,0.00256991,0.03087826,0.00036681,0.00008736,0
 .00142400,-0.01440564,0.00783902,-0.02906278,-0.00032592,0.00025347,-0
 .00138122,0.00000875,0.00060438,-0.00029279,0.00004395,0.00054534,0.00
 021021,0.00002051,0.00001331,-0.00002132,-0.00000803,0.00000146,0.0000
 0282,-0.00000053,0.00000106,0.00000313,-0.00000371,0.00000031,-0.00000
 108,-0.00002089,0.00003156,0.00000019,0.01222870,-0.07531720,0.0286945
 8,0.00000621,0.00000193,-0.00000137,0.00000063,-0.00000083,-0.00000050
 ,-0.01276943,0.07529598,0.00000333,-0.00002999,0.00006648,0.00001559,0
 .00001146,0.00001236,0.00033791,0.00008048,-0.00011486,-0.00000087,-0.
 00009841,-0.00004504,-0.00002687,-0.00000109,0.00003417,0.00000079,-0.
 00001465,0.00000107,-0.00000737,0.00004196,-0.00000007,0.00000599,0.00
 001341,-0.00001033,0.00000922,-0.00001019,0.00000869,-0.00013256,-0.00
 012654,0.00059204,0.00026824,0.00002183,-0.00013991,0.00000741,0.00000
 916,0.00009952,0.00002168,0.00002248,-0.00004448,-0.00002146,0.0000510
 0,0.00001219,0.00001301,-0.00001644,0.00000113,-0.00000898,-0.00000018
 ,0.00000190,-0.00000588,-0.00000643,-0.00000993,0.00000142,0.00001766,
 0.00000441,0.00000089,0.00000690,0.00000864,0.00026865,0.00006007,0.00
 008455,-0.00005710,-0.00005114,0.00022290,-0.00003533,0.00000523,0.000
 17518,0.00000831,0.00005361,-0.00011973,0.00002974,-0.00002317,-0.0000
 7457,0.00004437,-0.00008166,-0.00011620,0.00001125,0.00001550,-0.00002
 572,0.00000396,-0.00000360,0.00002222,-0.00000517,0.00000543,0.0000186
 3,0.00000106,-0.00004907,-0.00000593,0.00001145,-0.00000447,-0.0000021
 0,0.00023318,-0.00001012,-0.00024479,-0.00042353,0.00006313,-0.0002150
 9,0.00016830,0.00096761,0.00354122,-0.00007441,-0.00218590,0.00333119,
 -0.00116946,0.00155365,-0.00920663,-0.00073217,-0.00011441,0.00015574,
 -0.00309525,0.00058662,-0.01333164,-0.00072914,0.00022812,-0.00004021,
 0.00106086,-0.00037807,0.00031754,0.00111100,0.00025297,0.00042305,-0.
 00016675,0.00003496,0.00009568,0.00002567,-0.00001304,-0.00000879,0.00
 002678,-0.00000160,-0.00001731,0.00002045,-0.00000300,-0.00000444,-0.0
 0003964,-0.00000851,0.00016412,-0.17993658,0.02840299,-0.37842261,0.00
 001448,0.00002947,-0.00000605,0.00000398,0.00000424,0.00000375,0.18293
 320,-0.02930695,0.39284064,-0.00001331,-0.00000700,0.00001112,0.000015
 49,0.00000827,-0.00000422,-0.00000850,0.00000131,-0.00000793,0.0000154
 9,-0.00000554,-0.00001858,-0.00000113,-0.00000686,0.00000202,0.0000005
 8,-0.00000248,-0.00000105,-0.00000087,0.00000302,-0.00000187,-0.000017
 44,-0.00000234,0.00000935,-0.00000347,0.00000137,0.00000124,-0.0001166
 4,0.00002332,0.00011643,0.00001933,0.00000572,0.00000078,-0.00000964,0
 .00000913,0.00000246,0.00002424,-0.00004357,0.00000841,-0.00000026,0.0
 0000218,-0.00000868,0.00000019,0.00000070,-0.00000244,-0.00000720,0.00
 001631,-0.00000546,-0.00001524,0.00002278,-0.00000914,0.00000141,0.000
 00230,-0.00000147,-0.00000522,-0.00000752,-0.00000214,-0.00086285,0.00
 075061,-0.00031993,0.00559787,0.00387986,-0.00006245,0.00436757,0.0045
 0679,0.00236956,0.00416854,-0.00130290,-0.00989775,0.00054129,0.000181
 90,-0.00034862,-0.00390632,-0.00306657,0.01509142,0.00028836,-0.000074
 13,0.00062455,-0.00287742,-0.00137382,-0.00135927,-0.00276573,-0.00145
 212,-0.00127545,0.00000955,0.00000256,-0.00000757,0.00000005,-0.000000
 85,0.00000106,0.00002719,0.00000005,-0.00003616,-0.00090380,-0.0004621
 3,-0.00013584,0.00011537,0.00007764,-0.00015028,-0.00001309,-0.0000186
 6,-0.00005571,0.00001240,-0.00013572,0.00002828,-0.00000481,-0.0000335
 0,-0.00001158,0.00003101,0.00005183,0.00003965,-0.00001362,-0.00001594
 ,0.00001396,-0.00003183,0.00000917,-0.00000809,0.00000162,0.00000067,-
 0.00001230,-0.00002307,0.00000905,0.00000684,0.00000166,-0.00000136,-0
 .00000021,0.00000429,-0.00000063,-0.00000276,0.00000170,-0.00000082,-0
 .00000008,-0.07474658,0.00612829,0.11584820,-0.00001725,0.00000255,-0.
 00004937,-0.00000074,-0.00000599,0.00000580,0.00000122,0.00000203,0.00
 000106,0.00000473,-0.00000121,0.00000640,0.07111487,-0.00000915,0.0000
 0782,-0.00000251,0.00001423,0.00001706,0.00000630,0.00001534,-0.000018
 30,-0.00000651,-0.00001516,0.00000704,-0.00002504,-0.00000066,-0.00001
 213,0.00000030,0.00000052,-0.00000217,-0.00000069,-0.00000291,0.000001
 48,0.00000163,-0.00000348,0.00000161,0.00000116,0.00000225,0.00000032,
 0.00000071,-0.00007730,-0.00004526,0.00010416,-0.00000223,0.00000863,-
 0.00000020,-0.00000073,0.00000217,-0.00000155,0.00002746,-0.00001635,0
 .00001145,-0.00000241,0.00000062,-0.00000123,-0.00000052,0.00000051,-0
 .00000124,-0.00000949,0.00000789,-0.00000139,-0.00001725,0.00000838,-0
 .00000469,-0.00000019,0.00000108,-0.00000066,-0.00000376,-0.00000239,-
 0.00000218,0.00073211,-0.00232186,0.00001980,0.00346243,-0.00331344,0.
 00386068,0.00496050,-0.00275434,-0.00219986,-0.01143570,0.00200987,0.0
 3016398,-0.00031976,0.00025669,0.00115024,0.00704183,0.00726605,-0.029
 22327,0.00042902,0.00040471,-0.00112922,-0.00144808,-0.00024113,-0.000
 45753,-0.00136977,-0.00022954,-0.00058722,0.00000442,-0.00000150,0.000
 00657,0.00000264,-0.00000143,-0.00000049,-0.00000478,-0.00000013,-0.00
 000521,-0.00040963,-0.00006251,-0.00007448,0.00003065,-0.00000290,-0.0
 0008998,-0.00004940,-0.00004255,0.00001440,0.00001806,-0.00006227,0.00
 004971,0.00001172,0.00001661,0.00002273,-0.00004188,0.00000378,-0.0000
 5402,0.00001989,0.00004234,-0.00000265,-0.00001192,0.00000425,-0.00000
 251,-0.00000234,-0.00000019,-0.00000420,-0.00000749,0.00000443,-0.0000
 0103,-0.00000013,-0.00000050,0.00000096,0.00000139,0.00000023,-0.00000
 081,-0.00000040,-0.00000029,0.00000016,0.00612912,-0.07112587,0.033925
 76,0.00001362,0.00007602,0.00000246,0.00000417,-0.00000214,0.00000123,
 -0.00000082,0.00000015,0.00000065,0.00000368,0.00000620,-0.00000133,-0
 .00767774,0.07010323,-0.00001491,0.00000737,-0.00000528,-0.00001066,-0
 .00003388,-0.00003465,-0.00010026,0.00000119,-0.00002028,0.00001628,0.
 00003222,0.00005381,-0.00000601,0.00000529,-0.00000264,0.00000108,0.00
 000585,-0.00000087,0.00000692,-0.00000895,-0.00000203,0.00000360,-0.00
 000562,0.00000298,-0.00000379,0.00000605,-0.00000493,0.00076775,0.0000
 1758,-0.00002394,-0.00004912,0.00001868,-0.00002715,-0.00000243,0.0000
 1217,-0.00004575,-0.00000266,0.00001806,-0.00001881,0.00000403,-0.0000
 1865,0.00000398,-0.00000236,0.00000467,0.00000333,-0.00000711,-0.00001
 409,0.00002383,0.00003286,-0.00000208,0.00004252,-0.00000133,-0.000006
 88,-0.00000040,-0.00000108,-0.00000527,-0.00000551,-0.00022461,-0.0000
 3082,-0.00020975,0.00015057,0.00271427,0.00298306,0.00167819,-0.001217
 33,0.00335320,0.00298364,0.00214429,-0.01051477,0.00027600,-0.00017880
 ,-0.00009195,0.00323114,-0.00074716,-0.00769311,0.00003588,0.00027027,
 -0.00000126,-0.00125188,-0.00086082,0.00065013,-0.00146198,-0.00025945
 ,0.00063034,0.00000816,0.00001078,-0.00000671,-0.00000186,0.00000360,-
 0.00000025,-0.00039544,0.00002165,0.00024294,-0.00035676,0.00009458,-0
 .00019675,-0.00007444,-0.00022726,0.00023115,-0.00008030,0.00007678,0.
 00013558,-0.00005255,0.00025940,-0.00008898,0.00001492,-0.00001432,-0.
 00002522,-0.00004760,-0.00015393,-0.00008883,0.00002916,-0.00000353,-0
 .00001866,0.00003891,-0.00000926,0.00002484,0.00002249,-0.00000308,0.0
 0001924,0.00011977,-0.00005664,-0.00001750,-0.00001352,0.00000675,0.00
 000583,-0.00002936,0.00000599,0.00001549,-0.00001518,0.00000184,0.0000
 0043,0.11515488,0.03365486,-0.41004565,0.00002806,-0.00005570,0.000182
 01,-0.00000306,-0.00001014,-0.00000934,-0.00000314,-0.00000595,0.00000
 009,0.00000133,-0.00000122,-0.00003260,-0.12039221,-0.03546337,0.42062
 879\\-0.00004689,0.00007727,-0.00003005,-0.00014588,-0.00026077,0.0000
 1349,0.00003477,0.00003728,0.00004500,-0.00004173,0.00004000,0.0000908
 4,0.00006393,-0.00006786,-0.00001958,-0.00001506,-0.00000241,0.0000006
 3,-0.00002740,-0.00002717,0.00002238,0.00002372,0.00001305,-0.00003311
 ,0.00001609,-0.00002191,-0.00001818,-0.00006171,0.00009927,-0.00021864
 ,-0.00005617,0.00010077,-0.00003545,-0.00003910,0.00009259,0.00003006,
 0.00000917,-0.00011650,0.00003488,-0.00000536,-0.00000116,-0.00006456,
 -0.00002062,0.00011379,-0.00003802,-0.00001892,-0.00002158,-0.00000345
 ,0.00015719,0.00015867,-0.00002022,0.00000319,-0.00000426,0.00000312,0
 .00005196,-0.00001863,0.00000581,0.00030465,0.00004336,0.00001507,-0.0
 0020846,0.00000044,-0.00000252,-0.00001419,-0.00010574,0.00001574,0.00
 004787,-0.00000283,-0.00012283,-0.00001505,-0.00003761,0.00001984,-0.0
 0000714,0.00005767,0.00001555,-0.00000355,-0.00010778,-0.00002578,-0.0
 0000144,0.00002604,0.00005104,0.00003799,0.00001082,0.00000199,0.00001
 646,0.00007060,0.00004630,-0.00000548,-0.00000998,0.00002179,-0.000319
 18,-0.00023028,0.00004634,0.00014197,0.00005508,0.00038904,-0.00021874
 ,0.00007424,-0.00011695,-0.00002453,0.00011368,-0.00012814,0.00005778,
 0.00017421,-0.00007240,0.00009597,-0.00015944,-0.00001863,0.00006290,-
 0.00016279,-0.00006557,-0.00004482,-0.00001706,0.00004408,-0.00000927,
 -0.00000652,0.00002401,-0.00000481,0.00003271,-0.00000278,0.00010798,0
 .00013152,0.00010386,0.00004684,-0.00000356,-0.00001996,0.00001873,0.0
 0000153,0.00002081,0.00019759,-0.00015223,-0.00009121,-0.00005068,0.00
 001477,0.00002577,-0.00018329,0.00000201,0.00012407,0.00000105,0.00000
 011,0.00001897,0.00001469,-0.00001521,-0.00001203,0.00012492,0.0000100
 0,-0.00000600,-0.00004794,0.00000181,-0.00006442\\\@


     "IF I COULD JUST GET IT ON PAPER"
 LIFE AND INK, THEY RUN OUT AT THE SAME TIME,
 OR SO SAID MY OLD FRIEND THE SQUID.
     -- JIMMY BUFFETT, 1981
 Job cpu time:       1 days  9 hours 27 minutes  5.7 seconds.
 Elapsed time:       0 days  1 hours 23 minutes 47.5 seconds.
 File lengths (MBytes):  RWF=   2328 Int=      0 D2E=      0 Chk=     56 Scr=     16
 Normal termination of Gaussian 16 at Tue Mar 27 00:49:02 2018.
