Job Start Time: Thu Mar 15 12:34:40 MDT 2018
SLURM Job ID: 695348
SLURM Job Name: Int3_Phax_SMD_b
 Entering Gaussian System, Link 0=/projects/user/g16/g16
 Initial command:
 /projects/user/g16/l1.exe "/gpfs/summit/scratch/user/695348/Gau-32647.inp" -scrdir="/gpfs/summit/scratch/user/695348/"
 Entering Link 1 = /projects/user/g16/l1.exe PID=     32649.
  
 Copyright (c) 1988,1990,1992,1993,1995,1998,2003,2009,2016,
            Gaussian, Inc.  All Rights Reserved.
  
 This is part of the Gaussian(R) 16 program.  It is based on
 the Gaussian(R) 09 system (copyright 2009, Gaussian, Inc.),
 the Gaussian(R) 03 system (copyright 2003, Gaussian, Inc.),
 the Gaussian(R) 98 system (copyright 1998, Gaussian, Inc.),
 the Gaussian(R) 94 system (copyright 1995, Gaussian, Inc.),
 the Gaussian 92(TM) system (copyright 1992, Gaussian, Inc.),
 the Gaussian 90(TM) system (copyright 1990, Gaussian, Inc.),
 the Gaussian 88(TM) system (copyright 1988, Gaussian, Inc.),
 the Gaussian 86(TM) system (copyright 1986, Carnegie Mellon
 University), and the Gaussian 82(TM) system (copyright 1983,
 Carnegie Mellon University). Gaussian is a federally registered
 trademark of Gaussian, Inc.
  
 This software contains proprietary and confidential information,
 including trade secrets, belonging to Gaussian, Inc.
  
 This software is provided under written license and may be
 used, copied, transmitted, or stored only in accord with that
 written license.
  
 The following legend is applicable only to US Government
 contracts under FAR:
  
                    RESTRICTED RIGHTS LEGEND
  
 Use, reproduction and disclosure by the US Government is
 subject to restrictions as set forth in subparagraphs (a)
 and (c) of the Commercial Computer Software - Restricted
 Rights clause in FAR 52.227-19.
  
 Gaussian, Inc.
 340 Quinnipiac St., Bldg. 40, Wallingford CT 06492
  
  
 ---------------------------------------------------------------
 Warning -- This program may not be used in any manner that
 competes with the business of Gaussian, Inc. or will provide
 assistance to any competitor of Gaussian, Inc.  The licensee
 of this program is prohibited from giving any competitor of
 Gaussian, Inc. access to this program.  By using this program,
 the user acknowledges that Gaussian, Inc. is engaged in the
 business of creating and licensing software in the field of
 computational chemistry and represents and warrants to the
 licensee that it is not a competitor of Gaussian, Inc. and that
 it will not use this program in any manner prohibited above.
 ---------------------------------------------------------------
  

 Cite this work as:
 Gaussian 16, Revision A.03,
 M. J. Frisch, G. W. Trucks, H. B. Schlegel, G. E. Scuseria, 
 M. A. Robb, J. R. Cheeseman, G. Scalmani, V. Barone, 
 G. A. Petersson, H. Nakatsuji, X. Li, M. Caricato, A. V. Marenich, 
 J. Bloino, B. G. Janesko, R. Gomperts, B. Mennucci, H. P. Hratchian, 
 J. V. Ortiz, A. F. Izmaylov, J. L. Sonnenberg, D. Williams-Young, 
 F. Ding, F. Lipparini, F. Egidi, J. Goings, B. Peng, A. Petrone, 
 T. Henderson, D. Ranasinghe, V. G. Zakrzewski, J. Gao, N. Rega, 
 G. Zheng, W. Liang, M. Hada, M. Ehara, K. Toyota, R. Fukuda, 
 J. Hasegawa, M. Ishida, T. Nakajima, Y. Honda, O. Kitao, H. Nakai, 
 T. Vreven, K. Throssell, J. A. Montgomery, Jr., J. E. Peralta, 
 F. Ogliaro, M. J. Bearpark, J. J. Heyd, E. N. Brothers, K. N. Kudin, 
 V. N. Staroverov, T. A. Keith, R. Kobayashi, J. Normand, 
 K. Raghavachari, A. P. Rendell, J. C. Burant, S. S. Iyengar, 
 J. Tomasi, M. Cossi, J. M. Millam, M. Klene, C. Adamo, R. Cammi, 
 J. W. Ochterski, R. L. Martin, K. Morokuma, O. Farkas, 
 J. B. Foresman, and D. J. Fox, Gaussian, Inc., Wallingford CT, 2016.
 
 ******************************************
 Gaussian 16:  ES64L-G16RevA.03 25-Dec-2016
                15-Mar-2018 
 ******************************************
 %mem=98GB
 %nprocshared=24
 Will use up to   24 processors via shared memory.
 %chk=Int3_SNdxfksodk.chk
 ----------------------------------------------------------------------
 # wb97xd/6-31+g(d) opt=(maxcycles=200) scrf=(solvent=ethanol,smd) freq
 =noraman geom=connectivity
 ----------------------------------------------------------------------
 1/6=200,18=20,19=15,26=3,38=1,57=2/1,3;
 2/9=110,12=2,17=6,18=5,40=1/2;
 3/5=1,6=6,7=11,11=2,25=1,30=1,70=32201,71=1,72=4,74=-58/1,2,3;
 4//1;
 5/5=2,38=5,53=4/2;
 6/7=2,8=2,9=2,10=2,28=1/1;
 7//1,2,3,16;
 1/6=200,18=20,19=15,26=3/3(2);
 2/9=110/2;
 99//99;
 2/9=110/2;
 3/5=1,6=6,7=11,11=2,25=1,30=1,70=32205,71=1,72=4,74=-58/1,2,3;
 4/5=5,16=3,69=1/1;
 5/5=2,38=5,53=4/2;
 7//1,2,3,16;
 1/6=200,18=20,19=15,26=3/3(-5);
 2/9=110/2;
 6/7=2,8=2,9=2,10=2,19=2,28=1/1;
 99/9=1/99;
 ----------------
 Int3_Pyrax_631+d
 ----------------
 Symbolic Z-matrix:
 Charge =  2 Multiplicity = 1
 C                     2.2596    3.45485  -0.58336 
 C                     1.85493   2.12196  -0.62372 
 C                     0.49848   1.80083  -0.50764 
 C                    -0.44572   2.82492  -0.38046 
 C                    -0.03427   4.15521  -0.3394 
 H                     3.31329   3.69621  -0.68147 
 H                     2.60084   1.34517  -0.76358 
 H                    -1.51009   2.61087  -0.34373 
 H                    -0.77427   4.94435  -0.24974 
 P                     0.02611   0.04054  -0.58334 
 C                    -1.78667  -0.43694  -0.36695 
 C                    -2.28172  -1.52583  -1.09881 
 C                    -2.68064   0.27171   0.44642 
 C                    -3.61429  -1.87125  -1.01041 
 H                    -1.63893  -2.09326  -1.76063 
 C                    -4.01605  -0.07885   0.47809 
 H                    -2.35509   1.10391   1.06061 
 H                    -4.05615  -2.70274  -1.54713 
 H                    -4.76272   0.45003   1.05887 
 C                     0.12147  -0.14973   1.45229 
 C                    -0.08492  -1.4195    2.0258 
 C                     0.40701   0.89889   2.33934 
 C                     0.01303  -1.61653   3.3844 
 H                    -0.28428  -2.2872    1.40225 
 C                     0.49993   0.67342   3.70056 
 H                     0.588     1.90623   1.97885 
 H                    -0.11493  -2.57684   3.87027 
 H                     0.73548   1.44619   4.42359 
 C                     1.31949   4.47158  -0.4326 
 H                     1.63849   5.50856  -0.40575 
 O                    -0.2303   -0.00039  -2.2616 
 C                     1.33714  -1.23036  -0.75018 
 C                     2.42269  -1.24645   0.13928 
 C                     1.30621  -2.16355  -1.79587 
 C                     3.44692  -2.1744   -0.01142 
 H                     2.50274  -0.51729   0.93965 
 C                     2.31268  -3.11775  -1.9167 
 H                     0.52143  -2.12339  -2.54061 
 H                     4.29577  -2.15235   0.66467 
 H                     2.26924  -3.84048  -2.7252 
 C                    -0.95314   0.96752  -3.00583 
 H                    -0.40465   1.91269  -3.05734 
 H                    -1.07225   0.5663   -4.01364 
 H                    -1.95106   1.15672  -2.5819 
 N                    -4.44108  -1.13426  -0.24147 
 H                    -5.42723  -1.38201  -0.20943 
 C                     0.30454  -0.56716   4.18403 
 H                     0.3836   -0.72443   5.23945 
 N                     3.38515  -3.12447  -1.02931 
 H                     4.1087   -3.80851  -1.12181 
 
 Add virtual bond connecting atoms C20        and P10        Dist= 3.87D+00.

 GradGradGradGradGradGradGradGradGradGradGradGradGradGradGradGradGradGrad
 Berny optimization.
 Initialization pass.
                           ----------------------------
                           !    Initial Parameters    !
                           ! (Angstroms and Degrees)  !
 --------------------------                            --------------------------
 ! Name  Definition              Value          Derivative Info.                !
 --------------------------------------------------------------------------------
 ! R1    R(1,2)                  1.3935         estimate D2E/DX2                !
 ! R2    R(1,6)                  1.0854         estimate D2E/DX2                !
 ! R3    R(1,29)                 1.3929         estimate D2E/DX2                !
 ! R4    R(2,3)                  1.3988         estimate D2E/DX2                !
 ! R5    R(2,7)                  1.086          estimate D2E/DX2                !
 ! R6    R(3,4)                  1.3987         estimate D2E/DX2                !
 ! R7    R(3,10)                 1.8241         estimate D2E/DX2                !
 ! R8    R(4,5)                  1.3931         estimate D2E/DX2                !
 ! R9    R(4,8)                  1.0863         estimate D2E/DX2                !
 ! R10   R(5,9)                  1.0855         estimate D2E/DX2                !
 ! R11   R(5,29)                 1.3933         estimate D2E/DX2                !
 ! R12   R(10,11)                1.8871         estimate D2E/DX2                !
 ! R13   R(10,20)                2.0467         estimate D2E/DX2                !
 ! R14   R(10,31)                1.6982         estimate D2E/DX2                !
 ! R15   R(10,32)                1.8335         estimate D2E/DX2                !
 ! R16   R(11,12)                1.4023         estimate D2E/DX2                !
 ! R17   R(11,13)                1.401          estimate D2E/DX2                !
 ! R18   R(12,14)                1.3794         estimate D2E/DX2                !
 ! R19   R(12,15)                1.0831         estimate D2E/DX2                !
 ! R20   R(13,16)                1.381          estimate D2E/DX2                !
 ! R21   R(13,17)                1.0843         estimate D2E/DX2                !
 ! R22   R(14,18)                1.0838         estimate D2E/DX2                !
 ! R23   R(14,45)                1.3483         estimate D2E/DX2                !
 ! R24   R(16,19)                1.0838         estimate D2E/DX2                !
 ! R25   R(16,45)                1.3462         estimate D2E/DX2                !
 ! R26   R(20,21)                1.4085         estimate D2E/DX2                !
 ! R27   R(20,22)                1.4029         estimate D2E/DX2                !
 ! R28   R(21,23)                1.3763         estimate D2E/DX2                !
 ! R29   R(21,24)                1.087          estimate D2E/DX2                !
 ! R30   R(22,25)                1.3829         estimate D2E/DX2                !
 ! R31   R(22,26)                1.0851         estimate D2E/DX2                !
 ! R32   R(23,27)                1.0838         estimate D2E/DX2                !
 ! R33   R(23,47)                1.3511         estimate D2E/DX2                !
 ! R34   R(25,28)                1.0842         estimate D2E/DX2                !
 ! R35   R(25,47)                1.3457         estimate D2E/DX2                !
 ! R36   R(29,30)                1.0853         estimate D2E/DX2                !
 ! R37   R(31,41)                1.4189         estimate D2E/DX2                !
 ! R38   R(32,33)                1.4035         estimate D2E/DX2                !
 ! R39   R(32,34)                1.4019         estimate D2E/DX2                !
 ! R40   R(33,35)                1.3903         estimate D2E/DX2                !
 ! R41   R(33,36)                1.0857         estimate D2E/DX2                !
 ! R42   R(34,37)                1.3921         estimate D2E/DX2                !
 ! R43   R(34,38)                1.0827         estimate D2E/DX2                !
 ! R44   R(35,39)                1.0854         estimate D2E/DX2                !
 ! R45   R(35,49)                1.3937         estimate D2E/DX2                !
 ! R46   R(37,40)                1.0853         estimate D2E/DX2                !
 ! R47   R(37,49)                1.392          estimate D2E/DX2                !
 ! R48   R(41,42)                1.094          estimate D2E/DX2                !
 ! R49   R(41,43)                1.0913         estimate D2E/DX2                !
 ! R50   R(41,44)                1.1006         estimate D2E/DX2                !
 ! R51   R(45,46)                1.0173         estimate D2E/DX2                !
 ! R52   R(47,48)                1.07           estimate D2E/DX2                !
 ! R53   R(49,50)                1.0            estimate D2E/DX2                !
 ! A1    A(2,1,6)              119.4703         estimate D2E/DX2                !
 ! A2    A(2,1,29)             120.3504         estimate D2E/DX2                !
 ! A3    A(6,1,29)             120.1758         estimate D2E/DX2                !
 ! A4    A(1,2,3)              119.9203         estimate D2E/DX2                !
 ! A5    A(1,2,7)              119.2373         estimate D2E/DX2                !
 ! A6    A(3,2,7)              120.8332         estimate D2E/DX2                !
 ! A7    A(2,3,4)              119.6082         estimate D2E/DX2                !
 ! A8    A(2,3,10)             117.9838         estimate D2E/DX2                !
 ! A9    A(4,3,10)             122.3781         estimate D2E/DX2                !
 ! A10   A(3,4,5)              120.1633         estimate D2E/DX2                !
 ! A11   A(3,4,8)              121.3469         estimate D2E/DX2                !
 ! A12   A(5,4,8)              118.4609         estimate D2E/DX2                !
 ! A13   A(4,5,9)              119.6887         estimate D2E/DX2                !
 ! A14   A(4,5,29)             120.1201         estimate D2E/DX2                !
 ! A15   A(9,5,29)             120.1847         estimate D2E/DX2                !
 ! A16   A(3,10,11)            119.2205         estimate D2E/DX2                !
 ! A17   A(3,10,20)             92.0841         estimate D2E/DX2                !
 ! A18   A(3,10,31)             95.9334         estimate D2E/DX2                !
 ! A19   A(3,10,32)            119.1765         estimate D2E/DX2                !
 ! A20   A(11,10,20)            84.6743         estimate D2E/DX2                !
 ! A21   A(11,10,31)            87.8327         estimate D2E/DX2                !
 ! A22   A(11,10,32)           121.4622         estimate D2E/DX2                !
 ! A23   A(20,10,32)            89.5844         estimate D2E/DX2                !
 ! A24   A(31,10,32)            90.0764         estimate D2E/DX2                !
 ! A25   A(10,11,12)           118.4092         estimate D2E/DX2                !
 ! A26   A(10,11,13)           123.4732         estimate D2E/DX2                !
 ! A27   A(12,11,13)           118.0666         estimate D2E/DX2                !
 ! A28   A(11,12,14)           120.1343         estimate D2E/DX2                !
 ! A29   A(11,12,15)           121.0773         estimate D2E/DX2                !
 ! A30   A(14,12,15)           118.7685         estimate D2E/DX2                !
 ! A31   A(11,13,16)           120.1269         estimate D2E/DX2                !
 ! A32   A(11,13,17)           121.6993         estimate D2E/DX2                !
 ! A33   A(16,13,17)           118.1734         estimate D2E/DX2                !
 ! A34   A(12,14,18)           123.6554         estimate D2E/DX2                !
 ! A35   A(12,14,45)           119.4745         estimate D2E/DX2                !
 ! A36   A(18,14,45)           116.8565         estimate D2E/DX2                !
 ! A37   A(13,16,19)           123.6846         estimate D2E/DX2                !
 ! A38   A(13,16,45)           119.475          estimate D2E/DX2                !
 ! A39   A(19,16,45)           116.8402         estimate D2E/DX2                !
 ! A40   A(10,20,21)           118.8133         estimate D2E/DX2                !
 ! A41   A(10,20,22)           124.6726         estimate D2E/DX2                !
 ! A42   A(21,20,22)           116.5021         estimate D2E/DX2                !
 ! A43   A(20,21,23)           121.3712         estimate D2E/DX2                !
 ! A44   A(20,21,24)           120.8608         estimate D2E/DX2                !
 ! A45   A(23,21,24)           117.714          estimate D2E/DX2                !
 ! A46   A(20,22,25)           120.9446         estimate D2E/DX2                !
 ! A47   A(20,22,26)           121.1849         estimate D2E/DX2                !
 ! A48   A(25,22,26)           117.8509         estimate D2E/DX2                !
 ! A49   A(21,23,27)           124.1237         estimate D2E/DX2                !
 ! A50   A(21,23,47)           119.2337         estimate D2E/DX2                !
 ! A51   A(27,23,47)           116.636          estimate D2E/DX2                !
 ! A52   A(22,25,28)           123.6986         estimate D2E/DX2                !
 ! A53   A(22,25,47)           119.6162         estimate D2E/DX2                !
 ! A54   A(28,25,47)           116.6821         estimate D2E/DX2                !
 ! A55   A(1,29,5)             119.8177         estimate D2E/DX2                !
 ! A56   A(1,29,30)            120.1148         estimate D2E/DX2                !
 ! A57   A(5,29,30)            120.0583         estimate D2E/DX2                !
 ! A58   A(10,31,41)           125.368          estimate D2E/DX2                !
 ! A59   A(10,32,33)           120.2207         estimate D2E/DX2                !
 ! A60   A(10,32,34)           120.8975         estimate D2E/DX2                !
 ! A61   A(33,32,34)           118.8259         estimate D2E/DX2                !
 ! A62   A(32,33,35)           120.5823         estimate D2E/DX2                !
 ! A63   A(32,33,36)           121.0996         estimate D2E/DX2                !
 ! A64   A(35,33,36)           118.2863         estimate D2E/DX2                !
 ! A65   A(32,34,37)           120.3349         estimate D2E/DX2                !
 ! A66   A(32,34,38)           120.2923         estimate D2E/DX2                !
 ! A67   A(37,34,38)           119.3253         estimate D2E/DX2                !
 ! A68   A(33,35,39)           119.6745         estimate D2E/DX2                !
 ! A69   A(33,35,49)           120.0993         estimate D2E/DX2                !
 ! A70   A(39,35,49)           120.2257         estimate D2E/DX2                !
 ! A71   A(34,37,40)           119.4825         estimate D2E/DX2                !
 ! A72   A(34,37,49)           120.3298         estimate D2E/DX2                !
 ! A73   A(40,37,49)           120.1667         estimate D2E/DX2                !
 ! A74   A(31,41,42)           111.0166         estimate D2E/DX2                !
 ! A75   A(31,41,43)           106.81           estimate D2E/DX2                !
 ! A76   A(31,41,44)           112.1567         estimate D2E/DX2                !
 ! A77   A(42,41,43)           109.2011         estimate D2E/DX2                !
 ! A78   A(42,41,44)           108.9174         estimate D2E/DX2                !
 ! A79   A(43,41,44)           108.6609         estimate D2E/DX2                !
 ! A80   A(14,45,16)           122.6661         estimate D2E/DX2                !
 ! A81   A(14,45,46)           118.6371         estimate D2E/DX2                !
 ! A82   A(16,45,46)           118.6953         estimate D2E/DX2                !
 ! A83   A(23,47,25)           122.3227         estimate D2E/DX2                !
 ! A84   A(23,47,48)           119.0479         estimate D2E/DX2                !
 ! A85   A(25,47,48)           118.6294         estimate D2E/DX2                !
 ! A86   A(35,49,37)           119.7639         estimate D2E/DX2                !
 ! A87   A(35,49,50)           120.118          estimate D2E/DX2                !
 ! A88   A(37,49,50)           120.118          estimate D2E/DX2                !
 ! A89   L(20,10,31,3,-1)      188.0175         estimate D2E/DX2                !
 ! A90   L(20,10,31,3,-2)      184.1027         estimate D2E/DX2                !
 ! D1    D(6,1,2,3)           -179.5518         estimate D2E/DX2                !
 ! D2    D(6,1,2,7)             -0.6462         estimate D2E/DX2                !
 ! D3    D(29,1,2,3)            -0.2288         estimate D2E/DX2                !
 ! D4    D(29,1,2,7)           178.6767         estimate D2E/DX2                !
 ! D5    D(2,1,29,5)            -0.8495         estimate D2E/DX2                !
 ! D6    D(2,1,29,30)         -179.7479         estimate D2E/DX2                !
 ! D7    D(6,1,29,5)           178.4686         estimate D2E/DX2                !
 ! D8    D(6,1,29,30)           -0.4298         estimate D2E/DX2                !
 ! D9    D(1,2,3,4)              1.3697         estimate D2E/DX2                !
 ! D10   D(1,2,3,10)           179.4279         estimate D2E/DX2                !
 ! D11   D(7,2,3,4)           -177.5181         estimate D2E/DX2                !
 ! D12   D(7,2,3,10)             0.5401         estimate D2E/DX2                !
 ! D13   D(2,3,4,5)             -1.4412         estimate D2E/DX2                !
 ! D14   D(2,3,4,8)            176.5716         estimate D2E/DX2                !
 ! D15   D(10,3,4,5)          -179.4107         estimate D2E/DX2                !
 ! D16   D(10,3,4,8)            -1.3979         estimate D2E/DX2                !
 ! D17   D(2,3,10,11)          177.767          estimate D2E/DX2                !
 ! D18   D(2,3,10,20)           92.7044         estimate D2E/DX2                !
 ! D19   D(2,3,10,31)          -91.3983         estimate D2E/DX2                !
 ! D20   D(2,3,10,32)            2.0165         estimate D2E/DX2                !
 ! D21   D(4,3,10,11)           -4.2321         estimate D2E/DX2                !
 ! D22   D(4,3,10,20)          -89.2947         estimate D2E/DX2                !
 ! D23   D(4,3,10,31)           86.6026         estimate D2E/DX2                !
 ! D24   D(4,3,10,32)         -179.9826         estimate D2E/DX2                !
 ! D25   D(3,4,5,9)            179.439          estimate D2E/DX2                !
 ! D26   D(3,4,5,29)             0.3683         estimate D2E/DX2                !
 ! D27   D(8,4,5,9)              1.3694         estimate D2E/DX2                !
 ! D28   D(8,4,5,29)          -177.7013         estimate D2E/DX2                !
 ! D29   D(4,5,29,1)             0.7792         estimate D2E/DX2                !
 ! D30   D(4,5,29,30)          179.6783         estimate D2E/DX2                !
 ! D31   D(9,5,29,1)          -178.2868         estimate D2E/DX2                !
 ! D32   D(9,5,29,30)            0.6122         estimate D2E/DX2                !
 ! D33   D(3,10,11,12)         145.1751         estimate D2E/DX2                !
 ! D34   D(3,10,11,13)         -32.1726         estimate D2E/DX2                !
 ! D35   D(20,10,11,12)       -125.4147         estimate D2E/DX2                !
 ! D36   D(20,10,11,13)         57.2376         estimate D2E/DX2                !
 ! D37   D(31,10,11,12)         49.5878         estimate D2E/DX2                !
 ! D38   D(31,10,11,13)       -127.7599         estimate D2E/DX2                !
 ! D39   D(32,10,11,12)        -39.1749         estimate D2E/DX2                !
 ! D40   D(32,10,11,13)        143.4774         estimate D2E/DX2                !
 ! D41   D(3,10,20,21)        -175.9971         estimate D2E/DX2                !
 ! D42   D(3,10,20,22)           2.6906         estimate D2E/DX2                !
 ! D43   D(11,10,20,21)         64.8449         estimate D2E/DX2                !
 ! D44   D(11,10,20,22)       -116.4674         estimate D2E/DX2                !
 ! D45   D(32,10,20,21)        -56.8159         estimate D2E/DX2                !
 ! D46   D(32,10,20,22)        121.8718         estimate D2E/DX2                !
 ! D47   D(21,20,31,41)        133.4495         estimate D2E/DX2                !
 ! D48   D(22,20,31,41)        -45.2736         estimate D2E/DX2                !
 ! D49   D(3,10,31,41)         -45.9008         estimate D2E/DX2                !
 ! D50   D(11,10,31,41)         73.2571         estimate D2E/DX2                !
 ! D51   D(32,10,31,41)       -165.2589         estimate D2E/DX2                !
 ! D52   D(3,10,32,33)          52.3455         estimate D2E/DX2                !
 ! D53   D(3,10,32,34)        -124.9042         estimate D2E/DX2                !
 ! D54   D(11,10,32,33)       -123.3064         estimate D2E/DX2                !
 ! D55   D(11,10,32,34)         59.4439         estimate D2E/DX2                !
 ! D56   D(20,10,32,33)        -39.8095         estimate D2E/DX2                !
 ! D57   D(20,10,32,34)        142.9408         estimate D2E/DX2                !
 ! D58   D(31,10,32,33)        149.1879         estimate D2E/DX2                !
 ! D59   D(31,10,32,34)        -28.0618         estimate D2E/DX2                !
 ! D60   D(10,11,12,14)       -177.3003         estimate D2E/DX2                !
 ! D61   D(10,11,12,15)          1.055          estimate D2E/DX2                !
 ! D62   D(13,11,12,14)          0.1925         estimate D2E/DX2                !
 ! D63   D(13,11,12,15)        178.5479         estimate D2E/DX2                !
 ! D64   D(10,11,13,16)        175.2062         estimate D2E/DX2                !
 ! D65   D(10,11,13,17)         -4.5519         estimate D2E/DX2                !
 ! D66   D(12,11,13,16)         -2.15           estimate D2E/DX2                !
 ! D67   D(12,11,13,17)        178.0919         estimate D2E/DX2                !
 ! D68   D(11,12,14,18)       -179.7701         estimate D2E/DX2                !
 ! D69   D(11,12,14,45)          1.6149         estimate D2E/DX2                !
 ! D70   D(15,12,14,18)          1.8369         estimate D2E/DX2                !
 ! D71   D(15,12,14,45)       -176.7781         estimate D2E/DX2                !
 ! D72   D(11,13,16,19)       -177.8157         estimate D2E/DX2                !
 ! D73   D(11,13,16,45)          2.3175         estimate D2E/DX2                !
 ! D74   D(17,13,16,19)          1.9509         estimate D2E/DX2                !
 ! D75   D(17,13,16,45)       -177.916          estimate D2E/DX2                !
 ! D76   D(12,14,45,16)         -1.5126         estimate D2E/DX2                !
 ! D77   D(12,14,45,46)        178.0252         estimate D2E/DX2                !
 ! D78   D(18,14,45,16)        179.7796         estimate D2E/DX2                !
 ! D79   D(18,14,45,46)         -0.6826         estimate D2E/DX2                !
 ! D80   D(13,16,45,14)         -0.4646         estimate D2E/DX2                !
 ! D81   D(13,16,45,46)        179.9979         estimate D2E/DX2                !
 ! D82   D(19,16,45,14)        179.6596         estimate D2E/DX2                !
 ! D83   D(19,16,45,46)          0.122          estimate D2E/DX2                !
 ! D84   D(10,20,21,23)        177.718          estimate D2E/DX2                !
 ! D85   D(10,20,21,24)          0.4487         estimate D2E/DX2                !
 ! D86   D(22,20,21,23)         -1.076          estimate D2E/DX2                !
 ! D87   D(22,20,21,24)       -178.3453         estimate D2E/DX2                !
 ! D88   D(10,20,22,25)       -177.6278         estimate D2E/DX2                !
 ! D89   D(10,20,22,26)          0.7267         estimate D2E/DX2                !
 ! D90   D(21,20,22,25)          1.0874         estimate D2E/DX2                !
 ! D91   D(21,20,22,26)        179.4418         estimate D2E/DX2                !
 ! D92   D(20,21,23,27)       -178.5816         estimate D2E/DX2                !
 ! D93   D(20,21,23,47)          0.447          estimate D2E/DX2                !
 ! D94   D(24,21,23,27)         -1.2294         estimate D2E/DX2                !
 ! D95   D(24,21,23,47)        177.7992         estimate D2E/DX2                !
 ! D96   D(20,22,25,28)        178.8673         estimate D2E/DX2                !
 ! D97   D(20,22,25,47)         -0.4787         estimate D2E/DX2                !
 ! D98   D(26,22,25,28)          0.4595         estimate D2E/DX2                !
 ! D99   D(26,22,25,47)       -178.8865         estimate D2E/DX2                !
 ! D100  D(21,23,47,25)          0.2282         estimate D2E/DX2                !
 ! D101  D(21,23,47,48)       -179.7718         estimate D2E/DX2                !
 ! D102  D(27,23,47,25)        179.3286         estimate D2E/DX2                !
 ! D103  D(27,23,47,48)         -0.6714         estimate D2E/DX2                !
 ! D104  D(22,25,47,23)         -0.2128         estimate D2E/DX2                !
 ! D105  D(22,25,47,48)        179.7872         estimate D2E/DX2                !
 ! D106  D(28,25,47,23)       -179.6038         estimate D2E/DX2                !
 ! D107  D(28,25,47,48)          0.3962         estimate D2E/DX2                !
 ! D108  D(10,31,41,42)         70.2212         estimate D2E/DX2                !
 ! D109  D(10,31,41,43)       -170.8241         estimate D2E/DX2                !
 ! D110  D(10,31,41,44)        -51.8823         estimate D2E/DX2                !
 ! D111  D(10,32,33,35)       -177.5204         estimate D2E/DX2                !
 ! D112  D(10,32,33,36)          0.3954         estimate D2E/DX2                !
 ! D113  D(34,32,33,35)         -0.2142         estimate D2E/DX2                !
 ! D114  D(34,32,33,36)        177.7017         estimate D2E/DX2                !
 ! D115  D(10,32,34,37)        179.5598         estimate D2E/DX2                !
 ! D116  D(10,32,34,38)          2.0816         estimate D2E/DX2                !
 ! D117  D(33,32,34,37)          2.2724         estimate D2E/DX2                !
 ! D118  D(33,32,34,38)       -175.2058         estimate D2E/DX2                !
 ! D119  D(32,33,35,39)        177.9573         estimate D2E/DX2                !
 ! D120  D(32,33,35,49)         -1.7968         estimate D2E/DX2                !
 ! D121  D(36,33,35,39)         -0.0161         estimate D2E/DX2                !
 ! D122  D(36,33,35,49)       -179.7702         estimate D2E/DX2                !
 ! D123  D(32,34,37,40)        179.3313         estimate D2E/DX2                !
 ! D124  D(32,34,37,49)         -2.3351         estimate D2E/DX2                !
 ! D125  D(38,34,37,40)         -3.1662         estimate D2E/DX2                !
 ! D126  D(38,34,37,49)        175.1674         estimate D2E/DX2                !
 ! D127  D(33,35,49,37)          1.7537         estimate D2E/DX2                !
 ! D128  D(33,35,49,50)       -178.2463         estimate D2E/DX2                !
 ! D129  D(39,35,49,37)       -177.999          estimate D2E/DX2                !
 ! D130  D(39,35,49,50)          2.001          estimate D2E/DX2                !
 ! D131  D(34,37,49,35)          0.3053         estimate D2E/DX2                !
 ! D132  D(34,37,49,50)       -179.6947         estimate D2E/DX2                !
 ! D133  D(40,37,49,35)        178.6275         estimate D2E/DX2                !
 ! D134  D(40,37,49,50)         -1.3725         estimate D2E/DX2                !
 --------------------------------------------------------------------------------
 Trust Radius=3.00D-01 FncErr=1.00D-07 GrdErr=1.00D-06 EigMax=2.50D+02 EigMin=1.00D-04
 Number of steps in this run=    200 maximum allowed number of steps=    300.
 GradGradGradGradGradGradGradGradGradGradGradGradGradGradGradGradGradGrad

                          Input orientation:                          
 ---------------------------------------------------------------------
 Center     Atomic      Atomic             Coordinates (Angstroms)
 Number     Number       Type             X           Y           Z
 ---------------------------------------------------------------------
      1          6           0        2.259601    3.454845   -0.583357
      2          6           0        1.854925    2.121965   -0.623722
      3          6           0        0.498475    1.800828   -0.507636
      4          6           0       -0.445718    2.824919   -0.380461
      5          6           0       -0.034265    4.155210   -0.339402
      6          1           0        3.313286    3.696206   -0.681466
      7          1           0        2.600836    1.345171   -0.763580
      8          1           0       -1.510092    2.610871   -0.343726
      9          1           0       -0.774268    4.944346   -0.249736
     10         15           0        0.026112    0.040541   -0.583343
     11          6           0       -1.786670   -0.436938   -0.366945
     12          6           0       -2.281720   -1.525833   -1.098814
     13          6           0       -2.680635    0.271713    0.446423
     14          6           0       -3.614291   -1.871249   -1.010410
     15          1           0       -1.638928   -2.093262   -1.760629
     16          6           0       -4.016051   -0.078849    0.478093
     17          1           0       -2.355092    1.103910    1.060609
     18          1           0       -4.056150   -2.702736   -1.547130
     19          1           0       -4.762722    0.450034    1.058874
     20          6           0        0.121472   -0.149729    1.452287
     21          6           0       -0.084923   -1.419499    2.025800
     22          6           0        0.407014    0.898892    2.339339
     23          6           0        0.013025   -1.616534    3.384399
     24          1           0       -0.284282   -2.287198    1.402249
     25          6           0        0.499925    0.673416    3.700560
     26          1           0        0.587999    1.906227    1.978846
     27          1           0       -0.114929   -2.576835    3.870265
     28          1           0        0.735475    1.446186    4.423588
     29          6           0        1.319485    4.471577   -0.432602
     30          1           0        1.638486    5.508559   -0.405754
     31          8           0       -0.230301   -0.000391   -2.261603
     32          6           0        1.337139   -1.230356   -0.750178
     33          6           0        2.422690   -1.246452    0.139282
     34          6           0        1.306214   -2.163546   -1.795873
     35          6           0        3.446916   -2.174397   -0.011421
     36          1           0        2.502739   -0.517285    0.939648
     37          6           0        2.312678   -3.117752   -1.916700
     38          1           0        0.521430   -2.123395   -2.540613
     39          1           0        4.295767   -2.152353    0.664666
     40          1           0        2.269241   -3.840483   -2.725195
     41          6           0       -0.953141    0.967524   -3.005828
     42          1           0       -0.404646    1.912691   -3.057337
     43          1           0       -1.072245    0.566304   -4.013642
     44          1           0       -1.951055    1.156720   -2.581898
     45          7           0       -4.441081   -1.134260   -0.241465
     46          1           0       -5.427232   -1.382008   -0.209433
     47          6           0        0.304535   -0.567159    4.184028
     48          1           0        0.383599   -0.724432    5.239449
     49          7           0        3.385149   -3.124466   -1.029307
     50          1           0        4.108697   -3.808514   -1.121811
 ---------------------------------------------------------------------
                    Distance matrix (angstroms):
                    1          2          3          4          5
     1  C    0.000000
     2  C    1.393543   0.000000
     3  C    2.417244   1.398771   0.000000
     4  C    2.785090   2.417908   1.398727   0.000000
     5  C    2.410777   2.789975   2.419758   1.393073   0.000000
     6  H    1.085418   2.146715   3.397916   3.870382   3.396143
     7  H    2.144679   1.085980   2.166345   3.408508   3.875565
     8  H    3.870439   3.411857   2.171952   1.086305   2.136134
     9  H    3.396215   3.875352   3.401190   2.148722   1.085532
    10  P    4.079944   2.771013   1.824135   2.831350   4.122336
    11  C    5.618284   4.458154   3.201449   3.526761   4.915232
    12  C    6.759915   5.535700   4.375574   4.776607   6.156461
    13  C    5.966465   5.013975   3.654471   3.492485   4.764698
    14  C    7.940545   6.782891   5.536405   5.700060   7.041665
    15  H    6.882295   5.591753   4.615454   5.245676   6.605924
    16  C    7.279937   6.365999   4.988566   4.681481   5.869427
    17  H    5.433683   4.647327   3.329855   2.946907   4.081262
    18  H    8.873183   7.685781   6.489010   6.704573   8.041492
    19  H    7.812735   7.029917   5.653211   5.133058   6.167804
    20  C    4.659227   3.532034   2.790717   3.539661   4.665501
    21  C    6.005308   4.829590   4.138739   4.892377   6.055917
    22  C    4.301991   3.517397   2.987829   3.440065   4.239574
    23  C    6.819756   5.782214   5.202111   5.840473   6.868913
    24  H    6.586731   5.302969   4.579555   5.416443   6.678359
    25  C    5.402291   4.757492   4.356601   4.709346   5.359995
    26  H    3.428900   2.902586   2.490325   2.734757   3.289287
    27  H    7.864751   6.793745   6.221432   6.881645   7.940292
    28  H    5.605994   5.213941   4.949637   5.135660   5.533298
    29  C    1.392943   2.417416   2.795101   2.414569   1.393346
    30  H    2.152921   3.400496   3.880370   3.398010   2.152685
    31  O    4.577639   3.396353   2.617614   3.401099   4.582827
    32  C    4.778062   3.394429   3.154403   4.445281   5.572594
    33  C    4.759307   3.500109   3.661560   5.007390   5.953463
    34  C    5.826273   4.476676   4.245970   5.473339   6.621546
    35  C    5.781453   4.622561   4.974128   6.346806   7.231191
    36  H    4.261042   3.135192   3.389005   4.648270   5.468507
    37  C    6.706687   5.416268   5.428556   6.729347   7.803332
    38  H    6.161887   4.845179   4.419621   5.485202   6.676452
    39  H    6.094604   5.087971   5.605476   6.953216   7.716390
    40  H    7.603248   6.335506   6.314869   7.569436   8.656169
    41  C    4.730417   3.859067   3.007083   3.255756   4.256231
    42  H    3.949307   3.327452   2.707234   2.828341   3.543056
    43  H    5.586745   4.741304   4.035256   4.323642   5.240008
    44  H    5.196650   4.387669   3.273780   3.145672   4.206402
    45  N    8.128709   7.098508   5.751939   5.626486   6.885355
    46  H    9.089685   8.091926   6.733006   6.522497   7.730574
    47  C    6.536571   5.722723   5.258962   5.736169   6.548051
    48  H    7.408833   6.681583   6.278465   6.698436   7.423550
    49  N    6.689773   5.480066   5.732674   7.105753   8.072301
    50  H    7.514351   6.363817   6.698927   8.080515   9.010949
                    6          7          8          9         10
     6  H    0.000000
     7  H    2.457986   0.000000
     8  H    4.955502   4.321806   0.000000
     9  H    4.295619   4.960789   2.448546   0.000000
    10  P    4.917217   2.892015   3.003987   4.979880   0.000000
    11  C    6.572013   4.752204   3.060421   5.476944   1.887059
    12  C    7.664722   5.674011   4.275265   6.697504   2.836428
    13  C    6.994739   5.523618   2.732429   5.094347   2.905226
    14  C    8.893598   7.002434   4.996151   7.422715   4.133989
    15  H    7.694606   5.549101   4.914578   7.249715   2.951521
    16  C    8.325551   6.881336   3.766937   6.022573   4.180907
    17  H    6.471888   5.286501   2.226458   4.354877   3.082769
    18  H    9.798185   7.830387   6.013735   8.422104   5.011918
    19  H    8.876279   7.638363   4.149229   6.149721   5.079123
    20  C    5.434316   3.645825   3.675401   5.445074   2.046726
    21  C    6.711747   4.757872   4.887703   6.793510   2.991935
    22  C    5.039508   3.826242   3.715509   4.946154   3.069841
    23  C    7.459771   5.716134   5.838643   7.541347   4.299889
    24  H    7.285979   5.119456   5.342482   7.434001   3.075271
    25  C    6.021164   4.979320   4.914280   5.955607   4.356243
    26  H    4.208144   3.447781   3.208247   4.006559   3.218899
    27  H    8.474784   6.650566   6.827627   8.601006   5.167705
    28  H    6.145671   5.513301   5.396883   6.029627   5.248656
    29  C    2.153689   3.394970   3.387718   2.154240   4.618400
    30  H    2.483062   4.288118   4.279484   2.482752   5.703552
    31  O    5.358980   3.474183   3.483505   5.365998   1.698228
    32  C    5.308568   2.868876   4.798641   6.544878   1.833523
    33  C    5.088876   2.750165   5.529829   6.978385   2.814627
    34  C    6.293404   3.879790   5.730215   7.565783   2.822568
    35  C    5.910228   3.697155   6.897909   8.279595   4.115209
    36  H    4.586775   2.525738   5.247401   6.479415   2.960465
    37  C    6.996931   4.618485   7.064343   8.792351   4.120806
    38  H    6.717041   4.417321   5.600595   7.541877   2.959538
    39  H    6.081364   4.140695   7.577147   8.769522   4.959462
    40  H    7.878359   5.554178   7.846956   9.621022   4.968048
    41  C    5.572321   4.219129   3.177668   4.841813   2.772484
    42  H    4.759066   3.823130   3.012167   4.148515   3.132275
    43  H    6.335027   4.965990   4.223772   5.781265   3.640023
    44  H    6.146049   4.905253   2.705257   4.601078   3.024776
    45  N    9.146432   7.483901   4.756801   7.098946   4.631722
    46  H   10.119670   8.496732   5.595096   7.853308   5.648222
    47  C    7.134556   5.780037   5.821795   7.155331   4.814005
    48  H    7.948732   6.725753   6.773637   7.975391   5.883697
    49  N    6.829914   4.545703   7.571492   9.111213   4.636732
    50  H    7.559590   5.381677   8.566487  10.060637   5.636725
                   11         12         13         14         15
    11  C    0.000000
    12  C    1.402284   0.000000
    13  C    1.401045   2.403760   0.000000
    14  C    2.410704   1.379447   2.754335   0.000000
    15  H    2.169699   1.083123   3.398432   2.124659   0.000000
    16  C    2.410904   2.754687   1.381026   2.364265   3.836724
    17  H    2.176058   3.403533   1.084322   3.837483   4.323677
    18  H    3.417194   2.175934   3.835837   1.083826   2.502000
    19  H    3.417099   3.836019   2.177609   3.314994   4.916914
    20  C    2.651999   3.765250   3.006855   4.794208   4.147187
    21  C    3.096223   3.821052   3.477406   4.677509   4.148003
    22  C    3.731041   4.992943   3.675603   5.921604   5.472532
    23  C    4.324689   5.037190   4.410554   5.704090   5.424715
    24  H    2.968279   3.290099   3.633750   4.133146   3.446226
    25  C    4.796457   5.967264   4.568012   6.752432   6.484889
    26  H    4.078261   5.430130   3.962818   6.392513   5.910904
    27  H    5.032676   5.521896   5.140016   6.046848   5.853493
    28  H    5.732066   6.959403   5.372805   7.710653   7.510661
    29  C    5.809133   7.027193   5.866217   8.056516   7.322088
    30  H    6.861642   8.082761   6.841459   9.078482   8.388374
    31  O    2.490499   2.808446   3.662183   4.064109   2.572025
    32  C    3.245699   3.647601   4.453153   4.999512   3.259232
    33  C    4.316282   4.872618   5.333206   6.177160   4.563276
    34  C    3.819547   3.710234   5.182021   4.991368   2.946191
    35  C    5.525901   5.866884   6.613619   7.137963   5.378859
    36  H    4.484715   5.297504   5.266228   6.561555   5.189278
    37  C    5.137427   4.930683   6.481203   6.124059   4.085233
    38  H    3.591141   3.208351   4.991207   4.416932   2.297048
    39  H    6.403351   6.838547   7.388769   8.090359   6.411408
    40  H    5.796195   5.358541   7.174301   6.436950   4.388275
    41  C    3.103383   3.408615   3.922553   4.372876   3.374794
    42  H    3.830007   4.379802   4.488794   5.367489   4.387774
    43  H    3.849064   3.786303   4.750356   4.628506   3.531358
    44  H    2.733640   3.083013   3.238248   3.795329   3.366644
    45  N    2.747344   2.356102   2.355657   1.348336   3.328604
    46  H    3.764526   3.271992   3.272420   2.041489   4.154917
    47  C    5.010135   5.959546   4.856402   6.636267   6.437778
    48  H    6.018669   6.922409   5.775373   7.507267   7.413866
    49  N    5.865939   5.888452   7.106725   7.110771   5.180691
    50  H    6.833205   6.785911   8.074815   7.963036   6.032029
                   16         17         18         19         20
    16  C    0.000000
    17  H    2.120620   0.000000
    18  H    3.314803   4.917769   0.000000
    19  H    1.083763   2.494842   4.150959   0.000000
    20  C    4.251256   2.803282   5.741679   4.936582   0.000000
    21  C    4.432438   3.528860   5.493921   5.129513   1.408486
    22  C    4.897317   3.050641   6.927929   5.344832   1.402855
    23  C    5.200437   4.290547   6.485214   5.699696   2.428237
    24  H    4.433618   3.988055   4.806090   5.259921   2.176215
    25  C    5.598592   3.912261   7.726220   5.892695   2.423948
    26  H    5.233552   3.185696   7.432575   5.621126   2.172986
    27  H    5.741561   5.143965   6.700540   6.218347   3.434144
    28  H    6.361577   4.580217   8.707623   6.522560   3.428203
    29  C    7.071328   5.203208   9.033847   7.442483   5.132690
    30  H    7.998381   6.123710  10.057683   8.289106   6.145720
    31  O    4.673756   4.095279   4.738171   5.636603   3.733500
    32  C    5.611708   4.728670   5.647176   6.580629   2.737965
    33  C    6.552517   5.403725   6.851286   7.440017   2.867471
    34  C    6.151698   5.678109   5.395141   7.198081   4.001202
    35  C    7.767034   6.749803   7.676819   8.685121   4.159363
    36  H    6.549800   5.122639   7.347060   7.330542   2.463398
    37  C    7.417734   6.962390   6.393027   8.464303   4.996060
    38  H    5.820781   5.626604   4.719839   6.892105   4.471977
    39  H    8.568579   7.415790   8.657337   9.433135   4.696338
    40  H    7.994738   7.756532   6.533979   9.065110   5.973770
    41  C    4.755420   4.303484   5.022676   5.594864   4.719940
    42  H    5.432103   4.627726   6.075885   6.170525   4.986691
    43  H    5.409057   5.261439   5.066951   6.274038   5.640394
    44  H    3.892863   3.665227   4.516367   4.654041   4.719833
    45  N    1.346219   3.325079   2.076788   2.074686   4.965379
    46  H    2.040183   4.151005   2.326719   2.325200   5.921819
    47  C    5.713131   4.429654   7.511487   6.039732   2.769507
    48  H    6.514922   5.320336   8.347618   6.733588   3.839478
    49  N    8.144065   7.429487   7.471207   9.139221   5.065467
    50  H    9.081939   8.406868   8.250355  10.079320   5.992549
                   21         22         23         24         25
    21  C    0.000000
    22  C    2.390658   0.000000
    23  C    1.376302   2.752226   0.000000
    24  H    1.086951   3.392226   2.113552   0.000000
    25  C    2.743567   1.382894   2.362393   3.829158   0.000000
    26  H    3.393447   1.085097   3.836146   4.321823   2.119405
    27  H    2.177700   3.833645   1.083797   2.490717   3.312246
    28  H    3.825518   2.179796   3.313925   4.909842   1.084171
    29  C    6.536121   4.613062   7.303522   7.184691   5.672807
    30  H    7.541922   5.504642   8.232517   8.230415   6.444901
    31  O    4.518498   4.731125   5.877794   4.319284   6.044389
    32  C    3.124754   3.865740   4.358571   2.894627   4.912672
    33  C    3.142772   3.675010   4.058846   3.163216   4.479466
    34  C    4.134495   5.223702   5.367195   3.573927   6.237726
    35  C    4.146568   4.920588   4.861524   3.991619   5.529340
    36  H    2.947832   2.890805   3.658392   3.333778   3.612709
    37  C    4.916895   6.154580   5.970235   4.295282   7.015172
    38  H    4.659964   5.741188   5.968346   4.027675   6.839214
    39  H    4.645450   5.218910   5.101561   4.641019   5.622281
    40  H    5.828825   7.181857   6.882122   5.095976   8.049602
    41  C    5.636396   5.515935   6.960304   5.520121   6.868300
    42  H    6.086378   5.550738   7.357027   6.127109   6.929879
    43  H    6.433745   6.531400   7.789326   6.172134   7.873506
    44  H    5.599128   5.463107   6.866240   5.523779   6.760929
    45  N    4.919143   5.856473   5.763553   4.616280   6.574252
    46  H    5.791195   6.762926   6.524341   5.465055   7.392158
    47  C    2.352894   2.358534   1.351137   3.323181   1.345714
    48  H    3.321170   3.323608   2.091502   4.196714   2.082232
    49  N    4.927676   6.033612   5.755509   4.480871   6.717147
    50  H    5.762056   6.916768   6.471880   5.289947   7.507742
                   26         27         28         29         30
    26  H    0.000000
    27  H    4.916240   0.000000
    28  H    2.492017   4.148982   0.000000
    29  C    3.595994   8.381666   5.751229   0.000000
    30  H    4.445969   9.313023   6.375017   1.085271   0.000000
    31  O    4.720828   6.652156   6.907756   5.074010   6.106150
    32  C    4.224563   5.026928   5.856085   5.710797   6.754437
    33  C    4.085275   4.704218   5.334067   5.851493   6.822185
    34  C    5.597088   5.856242   7.213709   6.773739   7.804103
    35  C    5.365264   5.283577   6.334812   6.990875   7.902767
    36  H    3.258769   4.436491   4.372217   5.307721   6.234407
    37  C    6.587121   6.298796   7.969715   7.796595   8.783549
    38  H    6.055394   6.458322   7.828654   6.969524   8.003259
    39  H    5.652140   5.469030   6.305129   7.344297   8.179029
    40  H    7.614411   7.126090   9.022550   8.674581   9.653095
    41  C    5.301250   7.781114   7.633922   4.905579   5.839342
    42  H    5.133081   8.260233   7.581671   4.050896   4.912794
    43  H    6.360952   8.541181   8.673459   5.813379   6.692593
    44  H    5.273418   7.677317   7.508533   5.128760   6.046396
    45  N    6.282196   6.140272   7.430892   8.040278   9.006396
    46  H    7.196114   6.803831   8.212340   8.934901   9.871313
    47  C    3.325781   2.076823   2.072838   6.908853   7.730451
    48  H    4.194482   2.356818   2.345427   7.748971   8.502543
    49  N    6.494683   6.046177   7.592476   7.894485   8.829993
    50  H    7.393758   6.654087   8.351164   8.764395   9.665533
                   31         32         33         34         35
    31  O    0.000000
    32  C    2.500817   0.000000
    33  C    3.788836   1.403502   0.000000
    34  C    2.693886   1.401884   2.415037   0.000000
    35  C    4.828203   2.426548   1.390263   2.786932   0.000000
    36  H    4.240837   2.173156   1.085669   3.409534   2.131202
    37  C    4.037777   2.423781   2.782252   1.392149   2.409669
    38  H    2.269381   2.160684   3.400832   1.082652   3.867542
    39  H    5.803385   3.406661   2.145950   3.871925   1.085416
    40  H    4.605316   3.403273   3.867528   2.145502   3.395192
    41  C    1.418883   3.894100   5.117582   4.046267   6.180505
    42  H    2.079296   4.270309   5.309650   4.597178   6.388773
    43  H    2.024760   4.436588   5.722537   4.245898   6.629633
    44  H    2.098211   4.457079   5.684162   4.717182   6.844106
    45  N    4.805963   5.801366   6.875239   6.042103   7.959604
    46  H    5.755724   6.787645   7.858833   6.961816   8.911655
    47  C    6.492568   5.084534   4.616058   6.269851   5.482660
    48  H    7.560879   6.086118   5.517436   7.240029   6.249636
    49  N    4.934559   2.803553   2.412232   2.415152   1.393750
    50  H    5.884541   3.803491   3.316193   3.318763   2.083569
                   36         37         38         39         40
    36  H    0.000000
    37  C    3.867464   0.000000
    38  H    4.314788   2.141631   0.000000
    39  H    2.442133   3.395304   4.951795   0.000000
    40  H    4.952700   1.085307   2.457093   4.295084   0.000000
    41  C    5.451105   5.342401   3.456091   7.124408   5.794776
    42  H    5.507591   5.830117   4.173082   7.243740   6.352873
    43  H    6.204011   5.424679   3.456023   7.621890   5.678503
    44  H    5.919448   6.073962   4.107802   7.779006   6.542436
    45  N    7.070525   7.235600   5.557966   8.842517   7.649901
    46  H    8.059316   8.113801   6.432001   9.792558   8.462202
    47  C    3.919259   6.910647   6.905774   5.552358   7.893800
    48  H    4.798120   7.788440   7.906040   6.186490   8.757909
    49  N    3.384202   1.392015   3.389259   2.154942   2.152665
    50  H    4.202488   2.081990   4.209645   2.443228   2.440381
                   41         42         43         44         45
    41  C    0.000000
    42  H    1.094002   0.000000
    43  H    1.091262   1.781282   0.000000
    44  H    1.100611   1.785753   1.780671   0.000000
    45  N    4.921882   5.788424   5.335756   4.114176   0.000000
    46  H    5.775605   6.647704   6.101954   4.915032   1.017300
    47  C    7.458621   7.686999   8.389401   7.337384   6.513637
    48  H    8.522569   8.741419   9.455431   8.376325   7.313407
    49  N    6.282657   6.621813   6.511252   7.015281   8.113661
    50  H    7.209872   7.539808   7.371830   7.969065   9.001408
                   46         47         48         49         50
    46  H    0.000000
    47  C    7.267712   0.000000
    48  H    7.993027   1.070000   0.000000
    49  N    9.020333   6.573345   7.353011   0.000000
    50  H    9.882019   7.289030   7.990841   1.000000   0.000000
 Stoichiometry    C23H23N2OP(2+)
 Framework group  C1[X(C23H23N2OP)]
 Deg. of freedom   144
 Full point group                 C1      NOp   1
 Largest Abelian subgroup         C1      NOp   1
 Largest concise Abelian subgroup C1      NOp   1
                         Standard orientation:                         
 ---------------------------------------------------------------------
 Center     Atomic      Atomic             Coordinates (Angstroms)
 Number     Number       Type             X           Y           Z
 ---------------------------------------------------------------------
      1          6           0        1.389356    3.882647   -0.605531
      2          6           0        1.306552    2.491634   -0.619216
      3          6           0        0.059568    1.865909   -0.518899
      4          6           0       -1.099435    2.644368   -0.434339
      5          6           0       -1.009455    4.034456   -0.419775
      6          1           0        2.360072    4.360671   -0.691181
      7          1           0        2.215577    1.907187   -0.726207
      8          1           0       -2.085480    2.189149   -0.410913
      9          1           0       -1.914449    4.631247   -0.363161
     10         15           0        0.011088    0.042844   -0.558270
     11          6           0       -1.645584   -0.839093   -0.361751
     12          6           0       -1.857061   -2.028140   -1.074384
     13          6           0       -2.698222   -0.341535    0.417553
     14          6           0       -3.074547   -2.672479   -1.000701
     15          1           0       -1.084955   -2.443764   -1.710202
     16          6           0       -3.915973   -0.992706    0.434609
     17          1           0       -2.589203    0.556035    1.016082
     18          1           0       -3.298612   -3.594852   -1.523865
     19          1           0       -4.778265   -0.640415    0.988582
     20          6           0        0.101214   -0.078109    1.482890
     21          6           0        0.182423   -1.348970    2.084678
     22          6           0        0.114767    1.026182    2.347968
     23          6           0        0.292208   -1.489813    3.449346
     24          1           0        0.204565   -2.251866    1.479906
     25          6           0        0.226203    0.856567    3.715889
     26          1           0        0.064939    2.040341    1.965303
     27          1           0        0.379786   -2.443315    3.957065
     28          1           0        0.259025    1.677637    4.423133
     29          6           0        0.235485    4.655384   -0.497143
     30          1           0        0.304060    5.738469   -0.490976
     31          8           0       -0.190127   -0.091158   -2.239203
     32          6           0        1.585051   -0.890973   -0.669767
     33          6           0        2.623871   -0.635554    0.238766
     34          6           0        1.795897   -1.827000   -1.691861
     35          6           0        3.838892   -1.302376    0.129660
     36          1           0        2.513846    0.108500    1.021681
     37          6           0        2.999063   -2.522878   -1.770752
     38          1           0        1.040609   -1.986019   -2.451063
     39          1           0        4.643600   -1.069378    0.819793
     40          1           0        3.143379   -3.252316   -2.561312
     41          6           0       -1.100802    0.666316   -3.020312
     42          1           0       -0.785940    1.711961   -3.086103
     43          1           0       -1.100194    0.227764   -4.019573
     44          1           0       -2.124841    0.626602   -2.618925
     45          7           0       -4.067432   -2.132638   -0.265336
     46          1           0       -4.969477   -2.602504   -0.244381
     47          6           0        0.313399   -0.385196    4.227128
     48          1           0        0.402554   -0.498007    5.287423
     49          7           0        4.023032   -2.261425   -0.864753
     50          1           0        4.887670   -2.759930   -0.927156
 ---------------------------------------------------------------------
 Rotational constants (GHZ):           0.1910088           0.1848960           0.1625022
 Standard basis: 6-31+G(d) (6D, 7F)
 There are   563 symmetry adapted cartesian basis functions of A   symmetry.
 There are   563 symmetry adapted basis functions of A   symmetry.
   563 basis functions,   980 primitive gaussians,   563 cartesian basis functions
    98 alpha electrons       98 beta electrons
       nuclear repulsion energy      2698.7909791692 Hartrees.
 NAtoms=   50 NActive=   50 NUniq=   50 SFac= 1.00D+00 NAtFMM=   60 NAOKFM=F Big=F
 Integral buffers will be    131072 words long.
 Raffenetti 2 integral format.
 Two-electron integral symmetry is turned on.
 Nuclear repulsion after empirical dispersion term =     2698.7433500262 Hartrees.
 ------------------------------------------------------------------------------
 Polarizable Continuum Model (PCM)
 =================================
 Model                : PCM.
 Atomic radii         : SMD-Coulomb.
 Polarization charges : Total charges.
 Charge compensation  : None.
 Solution method      : On-the-fly selection.
 Cavity type          : VdW (van der Waals Surface) (Alpha=1.000).
 Cavity algorithm     : GePol (No added spheres)
                        Default sphere list used, NSphG=   50.
                        Lebedev-Laikov grids with approx.  5.0 points / Ang**2.
                        Smoothing algorithm: York/Karplus (Gamma=1.0000).
                        Polarization charges: spherical gaussians, with
                                              point-specific exponents (IZeta= 3).
                        Self-potential: point-specific (ISelfS= 7).
                        Self-field    : sphere-specific E.n sum rule (ISelfD= 2).
 1st derivatives      : Analytical E(r).r(x)/FMM algorithm (CHGder, D1EAlg=3).
                        Cavity 1st derivative terms included.
 Solvent              : Ethanol, Eps=  24.852000 Eps(inf)=   1.852593
 ------------------------------------------------------------------------------
 ------------------------------------------------------------------------------
 Atomic radii for non-electrostatic terms: SMD-CDS.
 ------------------------------------------------------------------------------
 Nuclear repulsion after PCM non-electrostatic terms =     2698.7427843026 Hartrees.
 One-electron integrals computed using PRISM.
 NBasis=   563 RedAO= T EigKep=  1.02D-06  NBF=   563
 NBsUse=   560 1.00D-06 EigRej=  9.37D-07 NBFU=   560
 ExpMin= 3.48D-02 ExpMax= 1.94D+04 ExpMxC= 2.91D+03 IAcc=3 IRadAn=         5 AccDes= 0.00D+00
 Harris functional with IExCor= 4639 and IRadAn=       5 diagonalized for initial guess.
 HarFok:  IExCor= 4639 AccDes= 0.00D+00 IRadAn=         5 IDoV= 1 UseB2=F ITyADJ=14
 ICtDFT=  3500011 ScaDFX=  1.000000  1.000000  1.000000  1.000000
 FoFCou: FMM=F IPFlag=           0 FMFlag=      100000 FMFlg1=           0
         NFxFlg=           0 DoJE=T BraDBF=F KetDBF=T FulRan=T
         wScrn=  0.000000 ICntrl=       500 IOpCl=  0 I1Cent=   200000004 NGrid=           0
         NMat0=    1 NMatS0=      1 NMatT0=    0 NMatD0=    1 NMtDS0=    0 NMtDT0=    0
 Petite list used in FoFCou.
 Requested convergence on RMS density matrix=1.00D-08 within 128 cycles.
 Requested convergence on MAX density matrix=1.00D-06.
 Requested convergence on             energy=1.00D-06.
 No special actions if energy rises.
 Inv3:  Mode=1 IEnd=    39923712.
 Iteration    1 A*A^-1 deviation from unit magnitude is 7.11D-15 for   2293.
 Iteration    1 A*A^-1 deviation from orthogonality  is 3.71D-15 for   3019   1468.
 Iteration    1 A^-1*A deviation from unit magnitude is 6.22D-15 for   2293.
 Iteration    1 A^-1*A deviation from orthogonality  is 1.67D-14 for   3537   3500.
 Error on total polarization charges =  0.05573
 SCF Done:  E(RwB97XD) =  -1415.68091768     A.U. after   16 cycles
            NFock= 16  Conv=0.67D-08     -V/T= 2.0082
 SMD-CDS (non-electrostatic) energy       (kcal/mol) =      -0.35
 (included in total energy above)

 **********************************************************************

            Population analysis using the SCF density.

 **********************************************************************

 Orbital symmetries:
       Occupied  (A) (A) (A) (A) (A) (A) (A) (A) (A) (A) (A) (A)
                 (A) (A) (A) (A) (A) (A) (A) (A) (A) (A) (A) (A)
                 (A) (A) (A) (A) (A) (A) (A) (A) (A) (A) (A) (A)
                 (A) (A) (A) (A) (A) (A) (A) (A) (A) (A) (A) (A)
                 (A) (A) (A) (A) (A) (A) (A) (A) (A) (A) (A) (A)
                 (A) (A) (A) (A) (A) (A) (A) (A) (A) (A) (A) (A)
                 (A) (A) (A) (A) (A) (A) (A) (A) (A) (A) (A) (A)
                 (A) (A) (A) (A) (A) (A) (A) (A) (A) (A) (A) (A)
                 (A) (A)
       Virtual   (A) (A) (A) (A) (A) (A) (A) (A) (A) (A) (A) (A)
                 (A) (A) (A) (A) (A) (A) (A) (A) (A) (A) (A) (A)
                 (A) (A) (A) (A) (A) (A) (A) (A) (A) (A) (A) (A)
                 (A) (A) (A) (A) (A) (A) (A) (A) (A) (A) (A) (A)
                 (A) (A) (A) (A) (A) (A) (A) (A) (A) (A) (A) (A)
                 (A) (A) (A) (A) (A) (A) (A) (A) (A) (A) (A) (A)
                 (A) (A) (A) (A) (A) (A) (A) (A) (A) (A) (A) (A)
                 (A) (A) (A) (A) (A) (A) (A) (A) (A) (A) (A) (A)
                 (A) (A) (A) (A) (A) (A) (A) (A) (A) (A) (A) (A)
                 (A) (A) (A) (A) (A) (A) (A) (A) (A) (A) (A) (A)
                 (A) (A) (A) (A) (A) (A) (A) (A) (A) (A) (A) (A)
                 (A) (A) (A) (A) (A) (A) (A) (A) (A) (A) (A) (A)
                 (A) (A) (A) (A) (A) (A) (A) (A) (A) (A) (A) (A)
                 (A) (A) (A) (A) (A) (A) (A) (A) (A) (A) (A) (A)
                 (A) (A) (A) (A) (A) (A) (A) (A) (A) (A) (A) (A)
                 (A) (A) (A) (A) (A) (A) (A) (A) (A) (A) (A) (A)
                 (A) (A) (A) (A) (A) (A) (A) (A) (A) (A) (A) (A)
                 (A) (A) (A) (A) (A) (A) (A) (A) (A) (A) (A) (A)
                 (A) (A) (A) (A) (A) (A) (A) (A) (A) (A) (A) (A)
                 (A) (A) (A) (A) (A) (A) (A) (A) (A) (A) (A) (A)
                 (A) (A) (A) (A) (A) (A) (A) (A) (A) (A) (A) (A)
                 (A) (A) (A) (A) (A) (A) (A) (A) (A) (A) (A) (A)
                 (A) (A) (A) (A) (A) (A) (A) (A) (A) (A) (A) (A)
                 (A) (A) (A) (A) (A) (A) (A) (A) (A) (A) (A) (A)
                 (A) (A) (A) (A) (A) (A) (A) (A) (A) (A) (A) (A)
                 (A) (A) (A) (A) (A) (A) (A) (A) (A) (A) (A) (A)
                 (A) (A) (A) (A) (A) (A) (A) (A) (A) (A) (A) (A)
                 (A) (A) (A) (A) (A) (A) (A) (A) (A) (A) (A) (A)
                 (A) (A) (A) (A) (A) (A) (A) (A) (A) (A) (A) (A)
                 (A) (A) (A) (A) (A) (A) (A) (A) (A) (A) (A) (A)
                 (A) (A) (A) (A) (A) (A) (A) (A) (A) (A) (A) (A)
                 (A) (A) (A) (A) (A) (A) (A) (A) (A) (A) (A) (A)
                 (A) (A) (A) (A) (A) (A) (A) (A) (A) (A) (A) (A)
                 (A) (A) (A) (A) (A) (A) (A) (A) (A) (A) (A) (A)
                 (A) (A) (A) (A) (A) (A) (A) (A) (A) (A) (A) (A)
                 (A) (A) (A) (A) (A) (A) (A) (A) (A) (A) (A) (A)
                 (A) (A) (A) (A) (A) (A) (A) (A) (A) (A) (A) (A)
                 (A) (A) (A) (A) (A) (A) (A) (A) (A) (A) (A) (A)
                 (A) (A) (A) (A) (A) (A)
 The electronic state is 1-A.
 Alpha  occ. eigenvalues --  -77.37970 -19.28178 -14.59027 -14.58070 -10.41001
 Alpha  occ. eigenvalues --  -10.40950 -10.39897 -10.39881 -10.38327 -10.37579
 Alpha  occ. eigenvalues --  -10.36167 -10.35989 -10.35446 -10.35308 -10.34324
 Alpha  occ. eigenvalues --  -10.33559 -10.32443 -10.32417 -10.31794 -10.31769
 Alpha  occ. eigenvalues --  -10.31687 -10.30640 -10.30551 -10.30438 -10.30008
 Alpha  occ. eigenvalues --  -10.29907 -10.29217  -6.78911  -4.93811  -4.93769
 Alpha  occ. eigenvalues --   -4.93698  -1.14576  -1.13695  -1.12990  -0.98380
 Alpha  occ. eigenvalues --   -0.97361  -0.96741  -0.96385  -0.92426  -0.92085
 Alpha  occ. eigenvalues --   -0.88625  -0.86333  -0.85537  -0.85068  -0.83551
 Alpha  occ. eigenvalues --   -0.79501  -0.78920  -0.78483  -0.77643  -0.73920
 Alpha  occ. eigenvalues --   -0.71619  -0.71087  -0.70858  -0.70622  -0.69613
 Alpha  occ. eigenvalues --   -0.67929  -0.64030  -0.63224  -0.62467  -0.62038
 Alpha  occ. eigenvalues --   -0.61550  -0.59701  -0.58929  -0.58511  -0.57349
 Alpha  occ. eigenvalues --   -0.56815  -0.56652  -0.56224  -0.55491  -0.55259
 Alpha  occ. eigenvalues --   -0.54357  -0.53935  -0.53634  -0.53290  -0.53013
 Alpha  occ. eigenvalues --   -0.51915  -0.50954  -0.50422  -0.49690  -0.49140
 Alpha  occ. eigenvalues --   -0.47859  -0.47418  -0.46989  -0.45920  -0.44385
 Alpha  occ. eigenvalues --   -0.44003  -0.42855  -0.42449  -0.42091  -0.41209
 Alpha  occ. eigenvalues --   -0.39004  -0.38871  -0.37140  -0.34994  -0.34828
 Alpha  occ. eigenvalues --   -0.33633  -0.33407  -0.32693
 Alpha virt. eigenvalues --   -0.05119  -0.03053   0.00699   0.01504   0.03432
 Alpha virt. eigenvalues --    0.03740   0.04736   0.05186   0.05518   0.06146
 Alpha virt. eigenvalues --    0.06254   0.06485   0.07352   0.07848   0.08236
 Alpha virt. eigenvalues --    0.08419   0.08835   0.09128   0.09811   0.09890
 Alpha virt. eigenvalues --    0.10010   0.10183   0.10370   0.10831   0.11238
 Alpha virt. eigenvalues --    0.11355   0.11921   0.12242   0.12385   0.12650
 Alpha virt. eigenvalues --    0.12934   0.13194   0.13422   0.13846   0.14243
 Alpha virt. eigenvalues --    0.14507   0.14865   0.15388   0.15524   0.16371
 Alpha virt. eigenvalues --    0.16519   0.16826   0.17384   0.17449   0.17741
 Alpha virt. eigenvalues --    0.18061   0.18384   0.18533   0.18699   0.18786
 Alpha virt. eigenvalues --    0.18949   0.19159   0.19425   0.19680   0.19782
 Alpha virt. eigenvalues --    0.20308   0.20571   0.20786   0.21140   0.21479
 Alpha virt. eigenvalues --    0.21735   0.22149   0.22328   0.22534   0.22656
 Alpha virt. eigenvalues --    0.23180   0.23311   0.23448   0.23907   0.24104
 Alpha virt. eigenvalues --    0.24267   0.24403   0.24765   0.25114   0.25318
 Alpha virt. eigenvalues --    0.25593   0.25840   0.26274   0.26296   0.26480
 Alpha virt. eigenvalues --    0.26754   0.26890   0.27170   0.27614   0.27747
 Alpha virt. eigenvalues --    0.28227   0.28258   0.28465   0.28685   0.28980
 Alpha virt. eigenvalues --    0.29235   0.29810   0.29935   0.29993   0.30183
 Alpha virt. eigenvalues --    0.30502   0.30755   0.31157   0.31390   0.31669
 Alpha virt. eigenvalues --    0.31782   0.31952   0.32536   0.32569   0.32911
 Alpha virt. eigenvalues --    0.33281   0.33541   0.33862   0.33962   0.34243
 Alpha virt. eigenvalues --    0.34589   0.34697   0.34948   0.35146   0.35370
 Alpha virt. eigenvalues --    0.35627   0.36006   0.36237   0.36449   0.36645
 Alpha virt. eigenvalues --    0.37006   0.37449   0.37558   0.37714   0.38086
 Alpha virt. eigenvalues --    0.38531   0.39108   0.39224   0.39362   0.39760
 Alpha virt. eigenvalues --    0.39991   0.40407   0.40564   0.40882   0.41400
 Alpha virt. eigenvalues --    0.41752   0.41979   0.42421   0.42854   0.43046
 Alpha virt. eigenvalues --    0.43508   0.43911   0.44592   0.45657   0.45833
 Alpha virt. eigenvalues --    0.46204   0.47244   0.47581   0.47654   0.48344
 Alpha virt. eigenvalues --    0.48899   0.49193   0.49486   0.49691   0.50694
 Alpha virt. eigenvalues --    0.51457   0.51891   0.54102   0.54874   0.55674
 Alpha virt. eigenvalues --    0.58309   0.58665   0.59557   0.60429   0.63717
 Alpha virt. eigenvalues --    0.63966   0.65606   0.66738   0.70212   0.71569
 Alpha virt. eigenvalues --    0.72225   0.73489   0.74055   0.75393   0.76474
 Alpha virt. eigenvalues --    0.76855   0.77244   0.77769   0.78735   0.79398
 Alpha virt. eigenvalues --    0.79639   0.80221   0.81033   0.81333   0.81352
 Alpha virt. eigenvalues --    0.81883   0.82439   0.82909   0.83170   0.84015
 Alpha virt. eigenvalues --    0.84262   0.84653   0.85092   0.85391   0.85806
 Alpha virt. eigenvalues --    0.86285   0.87350   0.87691   0.88743   0.89670
 Alpha virt. eigenvalues --    0.90054   0.90606   0.91282   0.92100   0.92205
 Alpha virt. eigenvalues --    0.92815   0.93375   0.94360   0.94972   0.95174
 Alpha virt. eigenvalues --    0.95305   0.96731   0.96948   0.97698   0.97890
 Alpha virt. eigenvalues --    0.98066   0.98122   0.98902   0.99169   0.99707
 Alpha virt. eigenvalues --    1.00709   1.01077   1.01300   1.01627   1.01915
 Alpha virt. eigenvalues --    1.02610   1.02991   1.03813   1.04076   1.04537
 Alpha virt. eigenvalues --    1.04822   1.04906   1.05437   1.06078   1.08347
 Alpha virt. eigenvalues --    1.08652   1.08973   1.09521   1.09666   1.11467
 Alpha virt. eigenvalues --    1.12328   1.13320   1.13908   1.14401   1.14642
 Alpha virt. eigenvalues --    1.15307   1.15719   1.15948   1.17689   1.18070
 Alpha virt. eigenvalues --    1.18417   1.19269   1.20176   1.20470   1.21584
 Alpha virt. eigenvalues --    1.22335   1.22814   1.23550   1.24498   1.25120
 Alpha virt. eigenvalues --    1.25281   1.25906   1.26049   1.27151   1.27971
 Alpha virt. eigenvalues --    1.29067   1.29388   1.30282   1.31083   1.32064
 Alpha virt. eigenvalues --    1.32903   1.33141   1.34642   1.35345   1.35728
 Alpha virt. eigenvalues --    1.36438   1.36662   1.39122   1.40002   1.41024
 Alpha virt. eigenvalues --    1.42087   1.43205   1.44387   1.45305   1.45996
 Alpha virt. eigenvalues --    1.46332   1.47818   1.48707   1.48986   1.49388
 Alpha virt. eigenvalues --    1.49856   1.50159   1.50846   1.51470   1.51756
 Alpha virt. eigenvalues --    1.52319   1.53053   1.53750   1.53913   1.55176
 Alpha virt. eigenvalues --    1.55266   1.56044   1.56659   1.57296   1.57919
 Alpha virt. eigenvalues --    1.58233   1.58448   1.59060   1.60026   1.60424
 Alpha virt. eigenvalues --    1.61265   1.61556   1.62270   1.64077   1.65665
 Alpha virt. eigenvalues --    1.67484   1.68365   1.70599   1.71931   1.74001
 Alpha virt. eigenvalues --    1.74675   1.76302   1.77589   1.80767   1.81812
 Alpha virt. eigenvalues --    1.86330   1.87490   1.89961   1.90367   1.91713
 Alpha virt. eigenvalues --    1.92672   1.93364   1.95596   1.96618   1.97534
 Alpha virt. eigenvalues --    1.98009   2.00158   2.02654   2.04110   2.06443
 Alpha virt. eigenvalues --    2.06610   2.07626   2.08124   2.09459   2.09606
 Alpha virt. eigenvalues --    2.10381   2.11048   2.11536   2.12103   2.13064
 Alpha virt. eigenvalues --    2.14365   2.17483   2.17964   2.18656   2.19010
 Alpha virt. eigenvalues --    2.20023   2.20759   2.21450   2.21682   2.22986
 Alpha virt. eigenvalues --    2.23214   2.23721   2.24549   2.25259   2.25970
 Alpha virt. eigenvalues --    2.26623   2.26762   2.27017   2.27932   2.28392
 Alpha virt. eigenvalues --    2.29496   2.29882   2.30411   2.30608   2.31442
 Alpha virt. eigenvalues --    2.32101   2.32756   2.33956   2.34370   2.35043
 Alpha virt. eigenvalues --    2.35692   2.36092   2.36655   2.37310   2.39226
 Alpha virt. eigenvalues --    2.40196   2.42286   2.43023   2.43318   2.44743
 Alpha virt. eigenvalues --    2.47291   2.49110   2.52908   2.61526   2.65788
 Alpha virt. eigenvalues --    2.66187   2.67372   2.69245   2.70167   2.71105
 Alpha virt. eigenvalues --    2.71792   2.72104   2.72998   2.73503   2.73668
 Alpha virt. eigenvalues --    2.74958   2.76559   2.77051   2.77632   2.77818
 Alpha virt. eigenvalues --    2.77961   2.80720   2.81411   2.82052   2.82969
 Alpha virt. eigenvalues --    2.84144   2.86358   2.87645   2.89464   2.90247
 Alpha virt. eigenvalues --    2.91252   2.94121   2.95387   2.96106   2.97598
 Alpha virt. eigenvalues --    3.00682   3.01550   3.11890   3.12929   3.15463
 Alpha virt. eigenvalues --    3.20314   3.40859   3.45980   3.47800   3.52693
 Alpha virt. eigenvalues --    3.74920   4.26419   4.28738   4.38218   4.38758
 Alpha virt. eigenvalues --    4.40729   4.41029   4.42196   4.44031   4.45271
 Alpha virt. eigenvalues --    4.45483   4.49518   4.50857   4.52070   4.53619
 Alpha virt. eigenvalues --    4.54832   4.56674   4.59009   4.59608   4.62742
 Alpha virt. eigenvalues --    4.65236   4.68359   4.72270   4.76318   4.77952
 Alpha virt. eigenvalues --    4.85013   4.88709
          Condensed to atoms (all electrons):
               1          2          3          4          5          6
     1  C   13.014130  -2.754535  -2.197948  -2.598576   0.189788   0.295844
     2  C   -2.754535  24.827282  -4.028758  -7.398802  -3.111229  -0.022111
     3  C   -2.197948  -4.028758  26.146590  -7.050562  -2.481154   0.057657
     4  C   -2.598576  -7.398802  -7.050562  26.389436  -5.080828  -0.004498
     5  C    0.189788  -3.111229  -2.481154  -5.080828  16.040634   0.003894
     6  H    0.295844  -0.022111   0.057657  -0.004498   0.003894   0.440236
     7  H   -0.069039   0.265455   0.037998  -0.018371  -0.011309  -0.003147
     8  H   -0.003303  -0.023922   0.020013   0.229542   0.042438   0.000013
     9  H    0.005878  -0.001326   0.045317  -0.014636   0.296426  -0.000112
    10  P    0.162286  -5.488419   1.116835   0.132293   0.804047   0.014715
    11  C   -0.005004  -0.968447  -0.463646   0.971795  -0.452498   0.000247
    12  C    0.068173   1.582300   0.310135  -1.694668  -0.290566  -0.000030
    13  C   -0.083523  -1.327758  -0.603373   1.969611   0.286232  -0.000005
    14  C   -0.009413   0.028823   0.310631  -0.096353  -0.057967  -0.000001
    15  H   -0.000008  -0.000049   0.015503  -0.006956  -0.000565   0.000000
    16  C   -0.024100   0.012398   0.550782  -0.262609  -0.056393   0.000002
    17  H    0.003407   0.007126   0.036314  -0.051805  -0.001429   0.000000
    18  H    0.000003  -0.000045  -0.000011   0.000051   0.000018  -0.000000
    19  H    0.000028   0.000428   0.003064  -0.003933  -0.000947  -0.000000
    20  C    0.736948   2.411393  -1.206519  -1.168941   0.110387  -0.002147
    21  C    0.387180   1.002811   0.658965  -1.974988  -0.019866   0.000169
    22  C   -0.681798   0.028412  -0.899673   2.344504  -0.349856  -0.000745
    23  C   -0.019700   0.287584  -0.265840   0.005052  -0.130462   0.000090
    24  H   -0.001534  -0.013845   0.003641   0.009360   0.000544  -0.000000
    25  C   -0.003922  -1.056957  -0.241452   0.809877   0.064265   0.000025
    26  H    0.003068  -0.008963   0.088584  -0.050950  -0.003077  -0.000009
    27  H   -0.000044  -0.000432  -0.000410   0.000357   0.000027  -0.000000
    28  H   -0.001037  -0.005900   0.004661   0.000842   0.001140  -0.000000
    29  C    0.265629   0.903045  -2.624432   1.089136   0.110299  -0.030601
    30  H    0.009067  -0.017603   0.000059  -0.000960   0.005593  -0.002815
    31  O    0.042065   0.187550  -0.605422   0.022579   0.162280  -0.000033
    32  C   -0.805816   0.485382   0.927279  -0.657244   0.271164   0.000198
    33  C    1.186107   5.105360  -1.390541  -2.723423  -0.687466  -0.001806
    34  C   -0.573891  -4.445899  -0.402601   2.741084   0.537350   0.001014
    35  C   -0.218263  -0.571595   0.881653   0.251607  -0.038539  -0.000235
    36  H    0.012857   0.006762  -0.009121  -0.007597  -0.001058  -0.000002
    37  C   -0.026867   0.006180  -0.087483   0.077099   0.006056   0.000027
    38  H   -0.001313  -0.009116   0.007896   0.002730   0.000389  -0.000000
    39  H   -0.001470  -0.005285   0.004326   0.000553   0.000094   0.000000
    40  H    0.000004   0.000253  -0.000047  -0.000135  -0.000002   0.000000
    41  C    0.030989  -0.070811   0.085556  -0.376036   0.228262   0.000091
    42  H    0.011430   0.015172   0.042459  -0.030483   0.000801  -0.000004
    43  H   -0.000216  -0.006941  -0.009716   0.007636   0.006237   0.000000
    44  H    0.001784   0.043753   0.052200  -0.058862  -0.050454  -0.000000
    45  N    0.002435  -0.005083  -0.037028   0.000999  -0.004900   0.000000
    46  H   -0.000001  -0.000008  -0.000255   0.000507   0.000050   0.000000
    47  C    0.026091  -0.055092  -0.024262   0.000348   0.084410  -0.000130
    48  H    0.000113   0.000328   0.000105  -0.000317  -0.000069   0.000000
    49  N    0.008387   0.015110  -0.070547  -0.014728   0.003308   0.000002
    50  H    0.000122   0.000561  -0.000231  -0.000041  -0.000002  -0.000000
               7          8          9         10         11         12
     1  C   -0.069039  -0.003303   0.005878   0.162286  -0.005004   0.068173
     2  C    0.265455  -0.023922  -0.001326  -5.488419  -0.968447   1.582300
     3  C    0.037998   0.020013   0.045317   1.116835  -0.463646   0.310135
     4  C   -0.018371   0.229542  -0.014636   0.132293   0.971795  -1.694668
     5  C   -0.011309   0.042438   0.296426   0.804047  -0.452498  -0.290566
     6  H   -0.003147   0.000013  -0.000112   0.014715   0.000247  -0.000030
     7  H    0.452012  -0.000112   0.000012   0.076096   0.004282  -0.002325
     8  H   -0.000112   0.450317  -0.003329   0.007926   0.051444   0.007621
     9  H    0.000012  -0.003329   0.438295   0.002836  -0.001578   0.000069
    10  P    0.076096   0.007926   0.002836  28.100434  -0.623435  -2.144230
    11  C    0.004282   0.051444  -0.001578  -0.623435  20.309652  -5.402520
    12  C   -0.002325   0.007621   0.000069  -2.144230  -5.402520  21.382778
    13  C    0.003460  -0.014894   0.001340   1.173294  -6.484641  -8.174988
    14  C    0.000129  -0.002605  -0.000042  -0.543749   1.058411  -2.308375
    15  H   -0.000000  -0.000001  -0.000000   0.038371  -0.092363   0.287421
    16  C   -0.000001   0.006596   0.000122   0.070061   1.351338  -0.030635
    17  H   -0.000000   0.001545  -0.000004   0.049832   0.032889   0.023810
    18  H    0.000000   0.000000   0.000000   0.002912   0.085277  -0.127168
    19  H   -0.000000  -0.000003   0.000000   0.010904   0.078711   0.000338
    20  C   -0.027573  -0.043370   0.001859  -1.645103  -3.038455  -2.819117
    21  C    0.003960   0.013617   0.000297   0.713439  -0.003023   1.568662
    22  C   -0.000293  -0.001691  -0.001512  -3.876639   0.921638  -0.148320
    23  C   -0.000222  -0.000467   0.000055  -1.231275  -0.242828   1.361138
    24  H   -0.000001  -0.000000  -0.000000   0.006619   0.074641  -0.053454
    25  C    0.000672  -0.002210  -0.001481   1.459989  -0.550386  -0.498526
    26  H   -0.000095  -0.000407  -0.000005   0.088240  -0.020313   0.001608
    27  H   -0.000000  -0.000000  -0.000000   0.002166  -0.000024   0.001695
    28  H    0.000000  -0.000000  -0.000000   0.010119  -0.003993  -0.000610
    29  C   -0.006252  -0.008035  -0.020564  -0.773869  -0.015689  -0.004011
    30  H   -0.000113  -0.000117  -0.002753  -0.001273  -0.000125   0.000012
    31  O   -0.001761  -0.000015  -0.000024  -0.062795  -0.430118   0.630947
    32  C   -0.012947   0.004361  -0.000493  -2.448080   0.646976   0.970477
    33  C    0.038865  -0.003709   0.000250  -2.201613  -1.084865  -1.377042
    34  C   -0.008926   0.003449  -0.000081   3.543790   0.265261   2.439254
    35  C    0.022109  -0.000067   0.000007  -0.970162   0.273247  -0.097553
    36  H   -0.000797  -0.000000  -0.000000   0.040647   0.005872   0.002313
[...]
 8,-0.00001632,0.00000038,0.00000134,0.00000658,0.00000102,-0.00000243,
 0.00000147,0.00000852,-0.00000233,-0.00000105,0.00000581,-0.00000847,-
 0.00001123,-0.00032268,-0.00025808,0.00002667,-0.00001626,-0.00000283,
 0.21925786,0.57024658,0.00004527,0.00010947,0.00004144,-0.00018728,-0.
 00000672,0.00012318,-0.00000989,0.00013442,-0.00039377,0.00005660,0.00
 003260,-0.00020575,-0.00006790,-0.00008880,0.00003330,0.00000901,0.000
 02247,-0.00000674,-0.00000214,-0.00001502,0.00000067,0.00002122,-0.000
 06240,0.00003908,-0.00000296,0.00002347,0.00000704,0.00044587,-0.00111
 646,0.00254931,0.00004495,-0.00001143,-0.00033449,-0.00011815,0.000111
 36,0.00004312,-0.00040512,0.00014061,-0.00004502,0.00000757,-0.0000320
 8,0.00001103,0.00001177,0.00001842,0.00000150,0.00024893,0.00015044,0.
 00003195,0.00004240,-0.00013148,-0.00015441,-0.00001755,-0.00000660,0.
 00000870,-0.00002072,0.00000145,-0.00001690,-0.00485243,-0.01073170,-0
 .00160654,-0.01662574,-0.00953751,-0.03992350,0.01550699,0.03301249,-0
 .00577858,-0.09321761,-0.10556638,-0.21424313,-0.00153657,0.00257264,-
 0.00459045,0.03499305,0.10423420,-0.16070482,-0.00204937,0.00159774,-0
 .00498235,0.00642994,0.00892568,0.01117001,-0.00844176,-0.01807624,0.0
 1119958,0.00008508,0.00002458,-0.00005401,0.00000372,0.00001297,-0.000
 00281,-0.00010990,0.00016258,-0.00055228,-0.00032457,0.00037920,-0.000
 76690,0.00038345,-0.00022251,-0.00000532,0.00024441,-0.00019524,-0.000
 04012,-0.00020381,0.00034912,0.00011382,-0.00002412,0.00002047,-0.0000
 0948,-0.00027064,0.00007563,0.00007205,-0.00001094,0.00002777,-0.00003
 390,0.00001321,-0.00001273,-0.00001346,0.00002423,-0.00001033,-0.00001
 767,0.00006682,-0.00013598,0.00006072,-0.00000532,0.00002607,-0.000016
 69,-0.00002918,0.00001497,-0.00003629,-0.00001015,0.00001068,0.0000014
 1,-0.00019618,-0.00018128,-0.00011874,0.00004603,-0.00000221,-0.000003
 76,0.10219938,-0.07289018,0.73687766,0.00000340,-0.00001502,-0.0000137
 9,0.00002045,0.00005049,0.00001120,0.00004288,-0.00001279,-0.00005443,
 0.00000961,-0.00004616,0.00002130,0.00001909,0.00001271,0.00000629,0.0
 0000055,0.00000271,0.00000121,-0.00000241,0.00000062,-0.00000129,-0.00
 001077,-0.00001521,0.00000687,-0.00000039,0.00000122,-0.00000138,-0.00
 067448,0.00041870,0.00021711,-0.00001391,-0.00007640,-0.00005446,-0.00
 004247,-0.00000143,0.00001251,0.00003130,-0.00000413,-0.00000209,0.000
 00746,-0.00000705,-0.00001670,-0.00000003,0.00000026,0.00000068,0.0000
 0477,-0.00001433,-0.00000296,0.00002036,-0.00000285,-0.00001004,-0.000
 00313,-0.00000187,0.00000244,-0.00000283,0.00000027,-0.00000272,-0.001
 12362,0.00012494,0.00010988,0.00401640,-0.00500054,-0.00261366,0.00469
 861,-0.00513191,-0.00051034,0.00285798,0.00433330,-0.01532638,-0.00012
 327,0.00026329,-0.00080323,0.00567971,-0.00293733,0.01255632,0.0000304
 7,-0.00007955,0.00057971,-0.00271225,0.00202715,0.00123731,-0.00285713
 ,0.00229289,0.00062261,-0.00001179,0.00000473,0.00000587,-0.00000118,-
 0.00000020,-0.00000049,0.00004808,-0.00003488,0.00001205,0.00007476,-0
 .00001505,0.00019021,-0.00006265,0.00001638,-0.00003290,-0.00000778,0.
 00003983,-0.00003832,0.00002464,-0.00006308,-0.00003440,-0.00000028,-0
 .00000344,0.00000902,-0.00001410,0.00003035,-0.00003481,-0.00000528,-0
 .00000607,0.00002477,-0.00000274,-0.00000066,0.00000685,-0.00000431,0.
 00000212,0.00000276,0.00001269,-0.00000217,0.00000797,0.00000056,-0.00
 000044,0.00000006,0.00000199,-0.00000301,0.00000199,0.00000112,-0.0000
 0178,0.00000508,-0.00001208,0.00000325,0.00000434,0.00000249,0.0000013
 1,-0.00000172,-0.04849812,-0.00168147,-0.03238172,0.03856282,-0.000000
 90,-0.00001726,-0.00000324,0.00003532,0.00001346,-0.00002029,-0.000007
 97,-0.00003437,0.00003050,-0.00000027,0.00001876,0.00004068,0.00001258
 ,0.00002146,0.00000382,-0.00000142,-0.00000256,0.00000123,-0.00000240,
 0.00000110,-0.00000195,-0.00001084,0.00001113,-0.00000505,0.00000023,-
 0.00000351,-0.00000161,0.00039075,-0.00017536,-0.00021064,0.00001449,-
 0.00000550,0.00010983,0.00004084,0.00002606,-0.00002243,-0.00002440,0.
 00002043,-0.00001664,0.00000020,0.00001797,0.00001307,-0.00000084,-0.0
 0000413,0.00000274,0.00001425,0.00002000,0.00000100,-0.00002014,-0.000
 00470,0.00000178,0.00000410,-0.00000025,-0.00000038,0.00000271,-0.0000
 0091,0.00000219,0.00007617,-0.00096762,-0.00024837,-0.00474439,-0.0006
 2591,-0.00173751,-0.00534267,-0.00255868,0.00164207,-0.00214548,0.0091
 2935,-0.02019538,-0.00007304,0.00022301,-0.00102205,0.00355404,-0.0010
 8401,0.02701429,0.00021416,-0.00021170,0.00131817,0.00218623,-0.000133
 63,0.00011120,0.00215637,0.00000298,-0.00100060,-0.00001729,-0.0000020
 6,0.00000402,-0.00000090,-0.00000241,0.00000105,-0.00002565,0.00001806
 ,0.00002079,-0.00004935,-0.00000220,-0.00006592,0.00001214,-0.00001320
 ,0.00000671,-0.00001224,-0.00001963,0.00001405,-0.00000601,0.00001835,
 0.00001590,0.00001075,0.00000776,-0.00000375,-0.00000074,-0.00000689,0
 .00001341,0.00000421,0.00000443,-0.00000877,0.00000061,0.00000118,-0.0
 0000233,0.00000112,-0.00000043,-0.00000101,-0.00000915,0.00000773,-0.0
 0000548,0.00000146,-0.00000083,-0.00000032,-0.00000039,0.00000258,0.00
 000106,-0.00000091,0.00000076,-0.00000378,-0.00000171,-0.00001005,-0.0
 0000713,0.00000087,-0.00000065,0.00000116,-0.00171865,-0.07236633,0.06
 708392,0.00548485,0.06869672,0.00001322,0.00002032,0.00000289,-0.00003
 565,0.00001116,0.00003358,-0.00001462,0.00002513,-0.00011475,0.0000123
 7,0.00001120,-0.00002882,-0.00001105,-0.00001312,-0.00000222,0.0000043
 0,0.00000653,-0.00000192,-0.00000153,-0.00000329,-0.00000238,0.0000123
 4,-0.00000204,-0.00000574,-0.00000035,0.00000656,0.00000281,0.00018770
 ,-0.00016396,0.00060696,0.00000695,0.00003333,-0.00008032,-0.00003951,
 0.00001028,0.00001407,-0.00006635,0.00001204,-0.00000664,0.00001692,-0
 .00000997,0.00000037,0.00000327,0.00000314,0.00000075,0.00005756,0.000
 03337,0.00001653,0.00001879,-0.00001834,-0.00000976,-0.00000518,0.0000
 0037,0.00000082,-0.00000275,-0.00000207,-0.00000153,0.00018327,-0.0003
 1973,0.00017899,-0.00295674,-0.00226547,-0.00009259,-0.00019610,0.0023
 0200,0.00142302,-0.00029281,0.00693889,-0.01299973,-0.00001132,0.00031
 921,-0.00081758,-0.00244587,-0.00017776,-0.00553920,-0.00011666,-0.000
 04761,-0.00041446,0.00084862,-0.00053066,0.00069061,0.00095964,-0.0003
 5965,0.00053326,0.00001558,0.00000759,-0.00000582,0.00000151,0.0000044
 9,-0.00000110,-0.00002233,0.00002612,-0.00015548,-0.00007447,0.0000552
 3,-0.00009984,0.00007934,-0.00002175,0.00001139,0.00004411,-0.00005517
 ,0.00000816,-0.00003306,0.00007152,0.00002660,-0.00001110,-0.00000492,
 -0.00000835,-0.00004856,0.00000250,0.00001040,0.00000003,0.00000730,-0
 .00000578,0.00000388,-0.00000240,-0.00000505,0.00000552,-0.00000253,-0
 .00000148,0.00001715,-0.00003267,0.00002012,-0.00000067,0.00000740,-0.
 00000470,-0.00000786,0.00000340,-0.00000874,-0.00000276,0.00000287,0.0
 0000068,-0.00004888,-0.00003244,-0.00002280,0.00001275,0.00000150,-0.0
 0000081,-0.03233976,0.06705929,-0.32768817,0.03625164,-0.07286125,0.34
 455705,0.00006460,0.00001779,-0.00000485,-0.00004179,0.00009843,0.0001
 5259,-0.00043061,-0.00015179,0.00007568,0.00019942,0.00017456,-0.00019
 861,-0.00002428,0.00005913,0.00006976,0.00002103,0.00003673,-0.0000037
 0,-0.00004597,-0.00003701,-0.00003672,-0.00000271,-0.00003082,-0.00000
 242,0.00000481,0.00004887,0.00000596,0.00331516,-0.00462344,-0.0005263
 7,0.00022357,0.00022957,0.00010381,-0.00015430,-0.00008192,-0.00002996
 ,-0.00022655,-0.00006800,-0.00013947,0.00018734,-0.00000205,-0.0000481
 6,0.00021949,0.00004963,0.00009718,0.00006111,0.00005382,0.00008453,0.
 00003781,-0.00001189,-0.00000859,-0.00002434,-0.00000025,0.00000821,-0
 .00002335,-0.00001293,-0.00001083,-0.00038164,0.00146832,0.00057955,0.
 00014178,0.00021013,0.00074206,-0.00030717,-0.00041826,-0.00032332,-0.
 00027463,-0.00007152,-0.00068338,0.00019387,0.00001612,-0.00003081,0.0
 0006325,-0.00047115,0.00076675,-0.00009327,0.00007773,-0.00002026,-0.0
 0003545,-0.00003839,0.00005090,0.00007570,-0.00003144,0.00006071,-0.00
 000114,0.00005776,0.00000087,-0.00000024,0.00001986,-0.00000942,-0.002
 16850,0.00276399,-0.00313914,-0.03147388,-0.04201724,-0.01871235,0.053
 52977,0.01284041,0.01665255,-0.06986545,0.05643339,-0.00239033,-0.1668
 4114,0.00450716,-0.02323519,-0.00344551,0.00422058,-0.00168527,-0.3266
 5463,-0.08351584,-0.08864691,-0.00144072,0.00542806,-0.00103109,0.0009
 7230,-0.03632694,-0.01160913,-0.00492045,0.00014747,-0.00151871,0.0000
 8515,-0.00042528,0.00111314,-0.00001570,0.00017116,-0.00013747,-0.0001
 2539,0.00005681,-0.00017554,-0.00025113,0.00025508,-0.00016719,-0.0002
 2263,-0.00001180,0.00003809,0.00004904,0.00001476,0.00000651,0.0003727
 5,0.00067335,0.00022775,0.00001275,-0.00000190,0.00003981,0.82774220,0
 .00001157,0.00006686,0.00003014,0.00011331,-0.00002524,-0.00015158,0.0
 0023435,-0.00017087,0.00018912,-0.00012000,0.00002605,0.00025569,-0.00
 007284,-0.00015515,-0.00003427,-0.00001691,-0.00003778,0.00002118,0.00
 001733,0.00015787,-0.00018955,0.00001647,0.00002181,0.00001794,-0.0000
 0990,-0.00004094,-0.00002239,-0.00406072,0.00200530,-0.00213939,-0.000
 20842,-0.00020232,0.00015386,0.00018172,0.00008523,0.00000488,0.000199
 24,0.00003763,0.00003828,-0.00010033,0.00004272,0.00004472,-0.00003894
 ,-0.00003881,-0.00002908,-0.00008262,-0.00005886,-0.00007238,-0.000041
 10,0.00001127,0.00003183,0.00002623,-0.00000371,-0.00000402,0.00001791
 ,0.00000703,0.00001045,0.00238353,-0.00183270,-0.00126226,-0.00002535,
 -0.00080810,0.00025393,0.00098097,0.00032723,0.00019523,-0.00035735,0.
 00002334,-0.00023381,0.00018080,0.00000513,0.00004776,-0.00023201,0.00
 016610,0.00015418,0.00002334,-0.00003792,0.00002230,0.00000894,0.00006
 625,-0.00006455,-0.00002867,-0.00002878,-0.00009662,0.00007456,-0.0000
 9942,-0.00007550,-0.00000198,-0.00002597,-0.00000428,0.00085337,-0.000
 75518,0.00161530,-0.04209848,-0.03858377,-0.02004958,0.06833344,-0.062
 70866,-0.00403472,0.00067927,0.05981001,0.01636108,-0.06749689,-0.3280
 7302,-0.09548607,0.00528103,0.00002654,-0.00167121,-0.01143651,-0.1721
 5647,-0.03442711,0.00451308,-0.00232204,-0.00233528,0.00079472,-0.0081
 7968,-0.00312220,-0.03695648,-0.00270001,-0.01074162,-0.00002112,0.000
 79343,-0.00018276,-0.00001373,-0.00007758,0.00003870,0.00012258,-0.000
 11776,0.00014930,0.00007967,-0.00004741,0.00000792,0.00015927,0.000039
 90,0.00000869,-0.00003747,-0.00001001,0.00000058,0.00000972,0.00025931
 ,-0.00028657,0.00005095,-0.00001059,-0.00006579,-0.11007835,0.79506746
 ,0.00004289,0.00002501,0.00002916,0.00001627,-0.00000747,0.00002475,-0
 .00005523,-0.00011664,0.00009112,-0.00001204,0.00008660,0.00001572,-0.
 00002663,-0.00004266,0.00002724,-0.00000017,-0.00000656,0.00000842,0.0
 0000717,0.00002889,-0.00010060,0.00000265,-0.00000083,0.00000106,-0.00
 000095,-0.00000021,-0.00000391,-0.00024214,-0.00031696,-0.00141023,-0.
 00003592,-0.00000461,0.00007362,0.00005462,-0.00000275,0.00000123,0.00
 000700,0.00000588,-0.00000808,0.00002560,0.00001691,-0.00000909,0.0000
 1891,-0.00000559,0.00000833,-0.00001210,-0.00000587,-0.00001806,-0.000
 00104,-0.00000023,0.00000586,0.00000209,-0.00000056,-0.00000056,0.0000
 0026,0.00000075,0.00000041,0.00058275,-0.00035359,-0.00008841,-0.00008
 088,-0.00000402,0.00031188,0.00010259,0.00001695,-0.00008180,-0.000222
 09,-0.00001039,-0.00027711,0.00012431,0.00000817,0.00001410,-0.0001028
 7,-0.00003441,0.00023805,0.00001381,-0.00002258,0.00000091,-0.00001762
 ,0.00001609,-0.00000193,0.00000468,-0.00001146,-0.00001710,0.00002303,
 -0.00002737,-0.00005210,-0.00000187,-0.00000417,-0.00000659,-0.0003230
 6,0.00048038,-0.00038313,-0.01777085,-0.01894018,-0.02016504,0.0316595
 4,-0.01938829,0.01267058,-0.02004281,0.02930313,0.01429507,-0.04504258
 ,-0.07838041,-0.09901944,-0.00133948,-0.00186651,0.00747856,-0.0666903
 6,-0.05229581,-0.09766586,-0.00132108,-0.00190352,0.00751610,-0.000157
 34,-0.01209894,-0.00125784,-0.01290310,-0.00157381,-0.00098246,0.00003
 658,0.00006619,0.00010391,-0.00001972,0.00001995,-0.00002623,0.0000031
 7,-0.00000837,-0.00000219,-0.00002499,0.00003652,-0.00002584,-0.000001
 11,0.00001350,0.00002518,-0.00000469,-0.00000300,-0.00000357,0.0001354
 8,0.00023719,-0.00001737,0.00002163,-0.00000459,-0.00000902,0.13843257
 ,0.17223436,0.21350575,-0.00000155,0.00000315,-0.00000080,0.00000336,-
 0.00000300,-0.00002518,0.00007389,0.00000152,-0.00001099,-0.00003026,-
 0.00001978,0.00005928,-0.00000748,-0.00002123,-0.00001906,-0.00000442,
 -0.00000767,0.00000294,0.00001069,0.00002518,-0.00002313,0.00000297,0.
 00000533,0.00000231,-0.00000118,-0.00001024,-0.00000286,-0.00083552,0.
 00067337,-0.00001035,-0.00005527,-0.00006950,-0.00000526,0.00004994,0.
 00001152,-0.00001136,0.00006001,0.00001569,0.00001893,-0.00002844,0.00
 000774,0.00001243,-0.00000569,-0.00001028,-0.00000047,-0.00001843,-0.0
 0001402,-0.00002119,-0.00000857,0.00000355,0.00000578,0.00000454,0.000
 00099,-0.00000233,0.00000475,0.00000307,0.00000216,0.00025703,-0.00024
 946,-0.00015660,-0.00002232,-0.00009430,-0.00002325,0.00011997,0.00006
 769,0.00001051,-0.00001657,0.00000391,0.00000892,-0.00000379,-0.000002
 58,0.00000388,-0.00002708,0.00002705,-0.00001626,0.00000364,-0.0000056
 2,0.00000578,-0.00000056,0.00001158,-0.00000818,-0.00000945,-0.0000018
 3,-0.00001537,0.00000963,-0.00001715,-0.00000377,-0.00000002,-0.000005
 74,0.00000032,0.00036676,-0.00038907,0.00051732,-0.00099224,-0.0011565
 9,-0.00044982,0.00278468,-0.00338451,-0.00213545,-0.00255449,-0.002950
 91,-0.00321172,0.01298625,-0.00616027,0.00145134,0.00060616,-0.0004614
 0,-0.00015949,-0.02017387,0.02094585,0.00149078,-0.00040759,0.00091330
 ,0.00003978,0.00045649,-0.00082588,0.00083052,0.00071983,-0.00041514,0
 .00095287,-0.00002787,0.00014494,-0.00007658,-0.00000072,-0.00002610,0
 .00002015,0.00002957,-0.00002564,0.00004080,0.00003035,-0.00002677,0.0
 0000927,0.00003971,0.00000316,0.00000241,-0.00001008,-0.00000195,-0.00
 000022,-0.00001564,-0.00000395,-0.00003593,0.00000205,0.00000119,-0.00
 001035,-0.27808032,0.18818879,-0.00486488,0.28471716,0.00000733,0.0000
 0354,0.00000148,-0.00000998,0.00001759,0.00001325,-0.00007500,-0.00000
 707,0.00000343,0.00002501,0.00002885,-0.00004966,0.00000144,0.00001318
 ,0.00001954,0.00000348,0.00000483,-0.00000126,-0.00000902,-0.00000928,
 0.00000441,-0.00000219,-0.00000642,-0.00000168,0.00000128,0.00000922,0
 .00000239,0.00067385,-0.00077592,0.00025815,0.00005213,0.00003851,0.00
 000578,-0.00002937,-0.00001791,-0.00000784,-0.00004545,-0.00001515,-0.
 00002063,0.00003220,-0.00000372,-0.00000975,0.00003714,0.00000821,0.00
 001534,0.00001488,0.00001543,0.00001687,0.00000942,-0.00000245,-0.0000
 0283,-0.00000515,0.00000094,0.00000114,-0.00000458,-0.00000199,-0.0000
 0250,-0.00022345,0.00032384,0.00013214,0.00000591,0.00004610,0.0000807
 1,-0.00008896,-0.00006540,-0.00000219,0.00000401,-0.00001434,-0.000061
 70,0.00000556,0.00001116,-0.00000511,0.00003573,-0.00005622,0.00006668
 ,-0.00001511,0.00001838,-0.00000289,-0.00000512,-0.00000899,0.00001132
 ,0.00001075,-0.00000207,0.00001422,-0.00000419,0.00001041,-0.00000328,
 0.00000022,0.00000416,-0.00000091,-0.00029527,0.00033958,-0.00041731,-
 0.00125313,-0.00127829,-0.00036183,-0.00240102,-0.00303187,-0.00357092
 ,-0.00386365,0.00224502,-0.00245733,0.02401713,-0.01833294,0.00031020,
 0.00100959,-0.00033414,-0.00000859,-0.00931738,0.01429330,0.00201370,-
 0.00061805,0.00063799,-0.00013212,-0.00044987,0.00050508,0.00122218,-0
 .00082198,0.00026689,0.00106652,0.00004764,-0.00008251,0.00013551,-0.0
 0000448,0.00002662,-0.00002129,-0.00001869,0.00001011,-0.00002799,-0.0
 0003350,0.00003145,-0.00001614,-0.00004179,-0.00000390,0.00000413,0.00
 000972,0.00000334,0.00000046,0.00003582,0.00005522,0.00004442,-0.00000
 346,0.00000209,0.00000987,0.18829758,-0.23973770,-0.01515413,-0.194697
 95,0.24481723,0.00000382,0.00000862,0.00000531,0.00000621,-0.00000786,
 0.00001495,-0.00004090,-0.00001927,0.00002046,0.00000502,0.00002303,0.
 00000633,-0.00000764,-0.00001145,0.00000164,0.00000154,0.00000082,0.00
 000256,-0.00000178,0.00000209,-0.00000823,0.00000134,0.00000154,-0.000
 00132,0.00000038,0.00000036,-0.00000089,0.00019017,0.00019526,-0.00071
 352,0.00000283,-0.00000557,0.00001186,-0.00000089,0.00000686,-0.000009
 54,0.00000189,-0.00000131,-0.00000925,0.00000344,-0.00000028,0.0000016
 9,0.00000712,-0.00000055,0.00000686,-0.00000510,-0.00000173,0.00000259
 ,-0.00000337,-0.00000058,-0.00000038,-0.00000017,-0.00000036,0.0000011
 8,0.00000014,-0.00000067,0.00000060,0.00007578,-0.00023834,-0.00001541
 ,0.00000786,0.00002769,-0.00003312,-0.00000327,0.00000668,-0.00001695,
 -0.00000912,0.00002697,0.00003627,0.00002041,-0.00000275,0.00000506,-0
 .00002579,0.00002352,-0.00003354,0.00002184,-0.00001089,0.00000141,0.0
 0000877,-0.00000107,-0.00000533,-0.00000245,0.00000187,-0.00000573,0.0
 0000597,-0.00000036,-0.00000695,0.00000034,-0.00000085,-0.00000032,-0.
 00016606,0.00018309,-0.00015178,-0.00009293,-0.00002874,-0.00107933,-0
 .00167730,-0.00403566,0.00543565,-0.00367098,-0.00216769,0.00559814,0.
 01046713,-0.00710573,0.00039137,0.00027368,-0.00040830,0.00041534,-0.0
 0775159,0.00935726,0.00092499,-0.00043297,0.00021076,0.00047830,0.0009
 2515,0.00110971,-0.00329525,0.00089314,0.00116010,-0.00334134,-0.00003
 324,-0.00007355,-0.00003837,0.00000580,0.00000519,0.00000091,-0.000020
 35,0.00002133,-0.00002052,-0.00000248,-0.00000017,0.00000400,-0.000001
 81,0.00000463,0.00000165,0.00000036,0.00000007,0.00000160,-0.00001669,
 -0.00003077,-0.00002212,0.00000816,-0.00000416,-0.00000430,-0.00478377
 ,-0.01510481,-0.03481343,0.00581236,0.01688603,0.03025621\\0.00000800,
 0.00004149,0.00003233,-0.00001798,-0.00007908,0.00000594,-0.00005632,0
 .00008062,0.00014011,-0.00003390,-0.00005137,0.00000450,-0.00000993,-0
 .00003457,-0.00000989,0.00000801,-0.00000672,0.00001075,0.00001738,0.0
 0000881,0.00000650,0.00006435,0.00011865,-0.00009607,0.00000698,0.0000
 0970,0.00001318,0.00029465,-0.00005967,-0.00013871,0.00007066,0.000093
 49,0.00006293,0.00005025,-0.00008855,0.00006594,0.00001671,-0.00002021
 ,-0.00000367,-0.00000881,-0.00000274,-0.00001149,0.00008656,0.00008255
 ,-0.00000858,-0.00001164,0.00001077,-0.00004657,0.00001882,-0.00008104
 ,-0.00000928,-0.00000236,0.00000769,-0.00001630,-0.00000578,-0.0000109
 6,-0.00000067,-0.00015142,-0.00036976,-0.00006662,0.00003203,0.0000661
 3,-0.00006595,0.00008311,0.00008703,-0.00009053,0.00000390,0.00002389,
 0.00005751,-0.00002630,0.00001387,-0.00001990,0.00002923,0.00008873,-0
 .00004528,0.00000717,-0.00004173,0.00007112,-0.00001511,-0.00000784,-0
 .00001797,-0.00000770,-0.00000915,0.00001474,0.00004855,-0.00001247,-0
 .00001528,-0.00001068,0.00000540,0.00000319,-0.00018824,-0.00011192,0.
 00004748,-0.00014768,-0.00015849,-0.00004535,-0.00006685,0.00023782,0.
 00007427,-0.00001754,0.00019110,0.00004783,-0.00002847,0.00001643,-0.0
 0000538,-0.00001953,-0.00000386,0.00004549,0.00008441,0.00005173,0.000
 01660,-0.00010989,-0.00001394,0.00001902,-0.00000523,0.00000637,0.0000
 0039,-0.00002067,-0.00000906,0.00000056,0.00004618,0.00002868,-0.00002
 220,-0.00001029,0.00003708,0.00000626,0.00005127,-0.00000388,-0.000000
 23,0.00001355,-0.00003056,0.00000367,0.00002102,0.00005288,-0.00000159
 ,-0.00001558,0.00000135,-0.00002881,-0.00003582,-0.00006626,0.00004021
 ,-0.00000910,-0.00002377,0.00000244,-0.00004376,-0.00003917,-0.0000308
 6,0.00001380,-0.00002547,0.00000420\\\@


 ... I FELL INTO A REVERIE ... THE ATOMS WERE GAMBOLING BEFORE MY EYES
 ... I SAW HOW TWO SMALL ONES UNITED TO FORM A PAIR;
 HOW THE LARGER ONES SEIZED TWO OF THE SMALLER ONES;
 HOW STILL LARGER ONES KEPT HOLD OF THREE OR FOUR
 SMALLER ONES ... I SAW HOW THE LARGER ONES FORMED A CHAIN ...
 THIS WAS THE ORIGIN OF THE STRUCTURE THEORY.

                                   -- C.F.KEKULE VON STRADONITZ
 Job cpu time:       1 days  9 hours 33 minutes 28.8 seconds.
 Elapsed time:       0 days  1 hours 24 minutes  4.2 seconds.
 File lengths (MBytes):  RWF=   2320 Int=      0 D2E=      0 Chk=     56 Scr=     16
 Normal termination of Gaussian 16 at Thu Mar 15 16:33:31 2018.
