Job Start Time: Wed Mar 14 08:23:43 MDT 2018
SLURM Job ID: 689056
SLURM Job Name: Int3_2Phax_SMD
 Entering Gaussian System, Link 0=/projects/user/g16/g16
 Initial command:
 /projects/user/g16/l1.exe "/gpfs/summit/scratch/user/689056/Gau-180973.inp" -scrdir="/gpfs/summit/scratch/user/689056/"
 Entering Link 1 = /projects/user/g16/l1.exe PID=    180974.
  
 Copyright (c) 1988,1990,1992,1993,1995,1998,2003,2009,2016,
            Gaussian, Inc.  All Rights Reserved.
  
 This is part of the Gaussian(R) 16 program.  It is based on
 the Gaussian(R) 09 system (copyright 2009, Gaussian, Inc.),
 the Gaussian(R) 03 system (copyright 2003, Gaussian, Inc.),
 the Gaussian(R) 98 system (copyright 1998, Gaussian, Inc.),
 the Gaussian(R) 94 system (copyright 1995, Gaussian, Inc.),
 the Gaussian 92(TM) system (copyright 1992, Gaussian, Inc.),
 the Gaussian 90(TM) system (copyright 1990, Gaussian, Inc.),
 the Gaussian 88(TM) system (copyright 1988, Gaussian, Inc.),
 the Gaussian 86(TM) system (copyright 1986, Carnegie Mellon
 University), and the Gaussian 82(TM) system (copyright 1983,
 Carnegie Mellon University). Gaussian is a federally registered
 trademark of Gaussian, Inc.
  
 This software contains proprietary and confidential information,
 including trade secrets, belonging to Gaussian, Inc.
  
 This software is provided under written license and may be
 used, copied, transmitted, or stored only in accord with that
 written license.
  
 The following legend is applicable only to US Government
 contracts under FAR:
  
                    RESTRICTED RIGHTS LEGEND
  
 Use, reproduction and disclosure by the US Government is
 subject to restrictions as set forth in subparagraphs (a)
 and (c) of the Commercial Computer Software - Restricted
 Rights clause in FAR 52.227-19.
  
 Gaussian, Inc.
 340 Quinnipiac St., Bldg. 40, Wallingford CT 06492
  
  
 ---------------------------------------------------------------
 Warning -- This program may not be used in any manner that
 competes with the business of Gaussian, Inc. or will provide
 assistance to any competitor of Gaussian, Inc.  The licensee
 of this program is prohibited from giving any competitor of
 Gaussian, Inc. access to this program.  By using this program,
 the user acknowledges that Gaussian, Inc. is engaged in the
 business of creating and licensing software in the field of
 computational chemistry and represents and warrants to the
 licensee that it is not a competitor of Gaussian, Inc. and that
 it will not use this program in any manner prohibited above.
 ---------------------------------------------------------------
  

 Cite this work as:
 Gaussian 16, Revision A.03,
 M. J. Frisch, G. W. Trucks, H. B. Schlegel, G. E. Scuseria, 
 M. A. Robb, J. R. Cheeseman, G. Scalmani, V. Barone, 
 G. A. Petersson, H. Nakatsuji, X. Li, M. Caricato, A. V. Marenich, 
 J. Bloino, B. G. Janesko, R. Gomperts, B. Mennucci, H. P. Hratchian, 
 J. V. Ortiz, A. F. Izmaylov, J. L. Sonnenberg, D. Williams-Young, 
 F. Ding, F. Lipparini, F. Egidi, J. Goings, B. Peng, A. Petrone, 
 T. Henderson, D. Ranasinghe, V. G. Zakrzewski, J. Gao, N. Rega, 
 G. Zheng, W. Liang, M. Hada, M. Ehara, K. Toyota, R. Fukuda, 
 J. Hasegawa, M. Ishida, T. Nakajima, Y. Honda, O. Kitao, H. Nakai, 
 T. Vreven, K. Throssell, J. A. Montgomery, Jr., J. E. Peralta, 
 F. Ogliaro, M. J. Bearpark, J. J. Heyd, E. N. Brothers, K. N. Kudin, 
 V. N. Staroverov, T. A. Keith, R. Kobayashi, J. Normand, 
 K. Raghavachari, A. P. Rendell, J. C. Burant, S. S. Iyengar, 
 J. Tomasi, M. Cossi, J. M. Millam, M. Klene, C. Adamo, R. Cammi, 
 J. W. Ochterski, R. L. Martin, K. Morokuma, O. Farkas, 
 J. B. Foresman, and D. J. Fox, Gaussian, Inc., Wallingford CT, 2016.
 
 ******************************************
 Gaussian 16:  ES64L-G16RevA.03 25-Dec-2016
                14-Mar-2018 
 ******************************************
 %mem=98GB
 %nprocshared=24
 Will use up to   24 processors via shared memory.
 %chk=Int3hdjkd.chk
 ----------------------------------------------------------------------
 # wb97xd/6-31+g(d) opt=(maxcycles=200) scrf=(solvent=ethanol,smd) freq
 =noraman geom=connectivity
 ----------------------------------------------------------------------
 1/6=200,18=20,19=15,26=3,38=1,57=2/1,3;
 2/9=110,12=2,17=6,18=5,40=1/2;
 3/5=1,6=6,7=11,11=2,25=1,30=1,70=32201,71=1,72=4,74=-58/1,2,3;
 4//1;
 5/5=2,38=5,53=4/2;
 6/7=2,8=2,9=2,10=2,28=1/1;
 7//1,2,3,16;
 1/6=200,18=20,19=15,26=3/3(2);
 2/9=110/2;
 99//99;
 2/9=110/2;
 3/5=1,6=6,7=11,11=2,25=1,30=1,70=32205,71=1,72=4,74=-58/1,2,3;
 4/5=5,16=3,69=1/1;
 5/5=2,38=5,53=4/2;
 7//1,2,3,16;
 1/6=200,18=20,19=15,26=3/3(-5);
 2/9=110/2;
 6/7=2,8=2,9=2,10=2,19=2,28=1/1;
 99/9=1/99;
 ------------------------
 Int1_Pyrax_wB97XD/631g+d
 ------------------------
 Symbolic Z-matrix:
 Charge =  2 Multiplicity = 1
 C                    -0.45243  -1.79399  -3.29255 
 C                    -0.61747  -1.39089  -1.98585 
 C                     0.13853  -0.33368  -1.44377 
 C                     1.0899    0.25205  -2.29402 
 C                     1.23468  -0.17122  -3.60164 
 H                    -1.02659  -2.58558  -3.75995 
 H                    -1.37891  -1.89267  -1.3955 
 H                     1.71777   1.07027  -1.95688 
 H                     1.93923   0.26453  -4.30087 
 P                    -0.08664   0.15987   0.52559 
 C                    -1.91295   0.13983   0.36221 
 C                    -2.56171   0.67635  -0.76001 
 C                    -2.69061  -0.38657   1.40309 
 C                    -3.94972   0.69713  -0.83236 
 H                    -1.99697   1.0895   -1.58993 
 C                    -4.08008  -0.39808   1.31153 
 H                    -2.21415  -0.76454   2.30126 
 H                    -4.43717   1.14055  -1.69483 
 H                    -4.66755  -0.81721   2.12219 
 C                     0.81677   1.73261   0.32788 
 C                     0.33      2.75633  -0.49118 
 C                     1.99629   1.93294   1.05479 
 C                     1.02165   3.96047  -0.58968 
 H                    -0.59685   2.63682  -1.04304 
 C                     2.70187   3.12717   0.92908 
 H                     2.34872   1.17573   1.75032 
 H                     0.62425   4.75938  -1.20766 
 H                     3.618     3.27356   1.49254 
 O                    -0.06802   0.1862    2.22428 
 C                     0.87512  -1.41922   0.81448 
 C                     2.25435  -1.49046   0.57486 
 C                     0.22541  -2.55502   1.31901 
 C                     2.94508  -2.64382   0.88023 
 H                     2.80609  -0.64683   0.1736 
 C                     0.9498   -3.69404   1.59453 
 H                    -0.83788  -2.55072   1.52983 
 H                     4.0151   -2.75472   0.74923 
 H                     0.51339  -4.59878   2.00133 
 C                    -0.51907   1.29465   3.00645 
 H                     0.29831   2.00409   3.16266 
 H                    -1.35789   1.8128    2.52834 
 H                    -0.8462    0.89714   3.96884 
 C                     2.21488   4.14203   0.10792 
 H                     2.75475   5.07992   0.02507 
 C                    -4.71215   0.14969   0.19883 
 H                    -5.79576   0.15891   0.13714 
 N                     0.4623   -1.17132  -4.06584 
 N                     2.28105  -3.70552   1.37848 
 H                     2.80583  -4.54476   1.61092 
 H                     0.56591  -1.46251  -5.03412 
 
 Add virtual bond connecting atoms P10        and C3         Dist= 3.86D+00.

 GradGradGradGradGradGradGradGradGradGradGradGradGradGradGradGradGradGrad
 Berny optimization.
 Initialization pass.
                           ----------------------------
                           !    Initial Parameters    !
                           ! (Angstroms and Degrees)  !
 --------------------------                            --------------------------
 ! Name  Definition              Value          Derivative Info.                !
 --------------------------------------------------------------------------------
 ! R1    R(1,2)                  1.3774         estimate D2E/DX2                !
 ! R2    R(1,6)                  1.0838         estimate D2E/DX2                !
 ! R3    R(1,47)                 1.35           estimate D2E/DX2                !
 ! R4    R(2,3)                  1.4082         estimate D2E/DX2                !
 ! R5    R(2,7)                  1.0863         estimate D2E/DX2                !
 ! R6    R(3,4)                  1.404          estimate D2E/DX2                !
 ! R7    R(3,10)                 2.0427         estimate D2E/DX2                !
 ! R8    R(4,5)                  1.382          estimate D2E/DX2                !
 ! R9    R(4,8)                  1.0851         estimate D2E/DX2                !
 ! R10   R(5,9)                  1.0841         estimate D2E/DX2                !
 ! R11   R(5,47)                 1.3462         estimate D2E/DX2                !
 ! R12   R(10,11)                1.8337         estimate D2E/DX2                !
 ! R13   R(10,20)                1.8245         estimate D2E/DX2                !
 ! R14   R(10,29)                1.699          estimate D2E/DX2                !
 ! R15   R(10,30)                1.8714         estimate D2E/DX2                !
 ! R16   R(11,12)                1.4029         estimate D2E/DX2                !
 ! R17   R(11,13)                1.4019         estimate D2E/DX2                !
 ! R18   R(12,14)                1.39           estimate D2E/DX2                !
 ! R19   R(12,15)                1.0855         estimate D2E/DX2                !
 ! R20   R(13,16)                1.3925         estimate D2E/DX2                !
 ! R21   R(13,17)                1.0847         estimate D2E/DX2                !
 ! R22   R(14,18)                1.0854         estimate D2E/DX2                !
 ! R23   R(14,45)                1.3944         estimate D2E/DX2                !
 ! R24   R(16,19)                1.0853         estimate D2E/DX2                !
 ! R25   R(16,45)                1.392          estimate D2E/DX2                !
 ! R26   R(20,21)                1.3985         estimate D2E/DX2                !
 ! R27   R(20,22)                1.3999         estimate D2E/DX2                !
 ! R28   R(21,23)                1.3921         estimate D2E/DX2                !
 ! R29   R(21,24)                1.0853         estimate D2E/DX2                !
 ! R30   R(22,25)                1.3928         estimate D2E/DX2                !
 ! R31   R(22,26)                1.0869         estimate D2E/DX2                !
 ! R32   R(23,27)                1.0854         estimate D2E/DX2                !
 ! R33   R(23,43)                1.3941         estimate D2E/DX2                !
 ! R34   R(25,28)                1.0855         estimate D2E/DX2                !
 ! R35   R(25,43)                1.3933         estimate D2E/DX2                !
 ! R36   R(29,39)                1.4296         estimate D2E/DX2                !
 ! R37   R(30,31)                1.4017         estimate D2E/DX2                !
 ! R38   R(30,32)                1.4024         estimate D2E/DX2                !
 ! R39   R(31,33)                1.3786         estimate D2E/DX2                !
 ! R40   R(31,34)                1.085          estimate D2E/DX2                !
 ! R41   R(32,35)                1.3777         estimate D2E/DX2                !
 ! R42   R(32,36)                1.084          estimate D2E/DX2                !
 ! R43   R(33,37)                1.0837         estimate D2E/DX2                !
 ! R44   R(33,48)                1.3477         estimate D2E/DX2                !
 ! R45   R(35,38)                1.0837         estimate D2E/DX2                !
 ! R46   R(35,48)                1.3487         estimate D2E/DX2                !
 ! R47   R(39,40)                1.0935         estimate D2E/DX2                !
 ! R48   R(39,41)                1.0958         estimate D2E/DX2                !
 ! R49   R(39,42)                1.0914         estimate D2E/DX2                !
 ! R50   R(43,44)                1.0853         estimate D2E/DX2                !
 ! R51   R(45,46)                1.0854         estimate D2E/DX2                !
 ! R52   R(47,50)                1.0164         estimate D2E/DX2                !
 ! R53   R(48,49)                1.0167         estimate D2E/DX2                !
 ! A1    A(2,1,6)              124.0128         estimate D2E/DX2                !
 ! A2    A(2,1,47)             119.3157         estimate D2E/DX2                !
 ! A3    A(6,1,47)             116.6666         estimate D2E/DX2                !
 ! A4    A(1,2,3)              121.3703         estimate D2E/DX2                !
 ! A5    A(1,2,7)              117.6687         estimate D2E/DX2                !
 ! A6    A(3,2,7)              120.9227         estimate D2E/DX2                !
 ! A7    A(2,3,4)              116.3516         estimate D2E/DX2                !
 ! A8    A(2,3,10)             119.5597         estimate D2E/DX2                !
 ! A9    A(4,3,10)             123.9003         estimate D2E/DX2                !
 ! A10   A(3,4,5)              121.0783         estimate D2E/DX2                !
 ! A11   A(3,4,8)              121.2343         estimate D2E/DX2                !
 ! A12   A(5,4,8)              117.6663         estimate D2E/DX2                !
 ! A13   A(4,5,9)              123.7285         estimate D2E/DX2                !
 ! A14   A(4,5,47)             119.5833         estimate D2E/DX2                !
 ! A15   A(9,5,47)             116.6853         estimate D2E/DX2                !
 ! A16   A(3,10,11)             91.2171         estimate D2E/DX2                !
 ! A17   A(3,10,20)             92.8214         estimate D2E/DX2                !
 ! A18   A(3,10,30)             83.5866         estimate D2E/DX2                !
 ! A19   A(11,10,20)           119.533          estimate D2E/DX2                !
 ! A20   A(11,10,29)            95.7489         estimate D2E/DX2                !
 ! A21   A(11,10,30)           121.0907         estimate D2E/DX2                !
 ! A22   A(20,10,29)            95.1384         estimate D2E/DX2                !
 ! A23   A(20,10,30)           119.3169         estimate D2E/DX2                !
 ! A24   A(29,10,30)            81.5526         estimate D2E/DX2                !
 ! A25   A(10,11,12)           121.8481         estimate D2E/DX2                !
 ! A26   A(10,11,13)           119.3687         estimate D2E/DX2                !
 ! A27   A(12,11,13)           118.7519         estimate D2E/DX2                !
 ! A28   A(11,12,14)           120.6049         estimate D2E/DX2                !
 ! A29   A(11,12,15)           121.1006         estimate D2E/DX2                !
 ! A30   A(14,12,15)           118.2938         estimate D2E/DX2                !
 ! A31   A(11,13,16)           120.5161         estimate D2E/DX2                !
 ! A32   A(11,13,17)           120.1314         estimate D2E/DX2                !
 ! A33   A(16,13,17)           119.3311         estimate D2E/DX2                !
 ! A34   A(12,14,18)           119.7291         estimate D2E/DX2                !
 ! A35   A(12,14,45)           120.1073         estimate D2E/DX2                !
 ! A36   A(18,14,45)           120.1636         estimate D2E/DX2                !
 ! A37   A(13,16,19)           119.6147         estimate D2E/DX2                !
 ! A38   A(13,16,45)           120.1577         estimate D2E/DX2                !
 ! A39   A(19,16,45)           120.2146         estimate D2E/DX2                !
 ! A40   A(10,20,21)           121.4754         estimate D2E/DX2                !
 ! A41   A(10,20,22)           118.9659         estimate D2E/DX2                !
 ! A42   A(21,20,22)           119.5125         estimate D2E/DX2                !
 ! A43   A(20,21,23)           120.1111         estimate D2E/DX2                !
 ! A44   A(20,21,24)           120.9599         estimate D2E/DX2                !
 ! A45   A(23,21,24)           118.9182         estimate D2E/DX2                !
 ! A46   A(20,22,25)           120.1769         estimate D2E/DX2                !
 ! A47   A(20,22,26)           120.3832         estimate D2E/DX2                !
 ! A48   A(25,22,26)           119.3971         estimate D2E/DX2                !
 ! A49   A(21,23,27)           119.6724         estimate D2E/DX2                !
 ! A50   A(21,23,43)           120.1652         estimate D2E/DX2                !
 ! A51   A(27,23,43)           120.1614         estimate D2E/DX2                !
 ! A52   A(22,25,28)           119.7589         estimate D2E/DX2                !
 ! A53   A(22,25,43)           120.0441         estimate D2E/DX2                !
 ! A54   A(28,25,43)           120.1783         estimate D2E/DX2                !
 ! A55   A(10,29,39)           123.7495         estimate D2E/DX2                !
 ! A56   A(10,30,31)           121.4796         estimate D2E/DX2                !
 ! A57   A(10,30,32)           120.056          estimate D2E/DX2                !
 ! A58   A(31,30,32)           118.4375         estimate D2E/DX2                !
 ! A59   A(30,31,33)           119.8444         estimate D2E/DX2                !
 ! A60   A(30,31,34)           121.6068         estimate D2E/DX2                !
 ! A61   A(33,31,34)           118.532          estimate D2E/DX2                !
 ! A62   A(30,32,35)           119.8641         estimate D2E/DX2                !
 ! A63   A(30,32,36)           121.4125         estimate D2E/DX2                !
 ! A64   A(35,32,36)           118.6946         estimate D2E/DX2                !
 ! A65   A(31,33,37)           123.6099         estimate D2E/DX2                !
 ! A66   A(31,33,48)           119.6094         estimate D2E/DX2                !
 ! A67   A(37,33,48)           116.7794         estimate D2E/DX2                !
 ! A68   A(32,35,38)           123.6102         estimate D2E/DX2                !
 ! A69   A(32,35,48)           119.6034         estimate D2E/DX2                !
 ! A70   A(38,35,48)           116.7757         estimate D2E/DX2                !
 ! A71   A(29,39,40)           110.2019         estimate D2E/DX2                !
 ! A72   A(29,39,41)           111.6807         estimate D2E/DX2                !
 ! A73   A(29,39,42)           107.1335         estimate D2E/DX2                !
 ! A74   A(40,39,41)           109.132          estimate D2E/DX2                !
 ! A75   A(40,39,42)           109.5339         estimate D2E/DX2                !
 ! A76   A(41,39,42)           109.118          estimate D2E/DX2                !
 ! A77   A(23,43,25)           119.9481         estimate D2E/DX2                !
 ! A78   A(23,43,44)           120.0067         estimate D2E/DX2                !
 ! A79   A(25,43,44)           120.0363         estimate D2E/DX2                !
 ! A80   A(14,45,16)           119.8253         estimate D2E/DX2                !
 ! A81   A(14,45,46)           120.0341         estimate D2E/DX2                !
 ! A82   A(16,45,46)           120.1385         estimate D2E/DX2                !
 ! A83   A(1,47,5)             122.27           estimate D2E/DX2                !
 ! A84   A(1,47,50)            118.8566         estimate D2E/DX2                !
 ! A85   A(5,47,50)            118.8713         estimate D2E/DX2                !
 ! A86   A(33,48,35)           122.6042         estimate D2E/DX2                !
 ! A87   A(33,48,49)           118.7152         estimate D2E/DX2                !
 ! A88   A(35,48,49)           118.6767         estimate D2E/DX2                !
 ! A89   L(3,10,29,11,-1)      186.966          estimate D2E/DX2                !
 ! A90   L(3,10,29,11,-2)      166.8297         estimate D2E/DX2                !
 ! D1    D(6,1,2,3)           -178.5012         estimate D2E/DX2                !
 ! D2    D(6,1,2,7)             -0.7327         estimate D2E/DX2                !
 ! D3    D(47,1,2,3)             0.6584         estimate D2E/DX2                !
 ! D4    D(47,1,2,7)           178.4269         estimate D2E/DX2                !
 ! D5    D(2,1,47,5)             0.6303         estimate D2E/DX2                !
 ! D6    D(2,1,47,50)         -178.8467         estimate D2E/DX2                !
 ! D7    D(6,1,47,5)           179.8508         estimate D2E/DX2                !
 ! D8    D(6,1,47,50)            0.3738         estimate D2E/DX2                !
 ! D9    D(1,2,3,4)             -1.8681         estimate D2E/DX2                !
 ! D10   D(1,2,3,10)          -177.0745         estimate D2E/DX2                !
 ! D11   D(7,2,3,4)           -179.5643         estimate D2E/DX2                !
 ! D12   D(7,2,3,10)             5.2294         estimate D2E/DX2                !
 ! D13   D(2,3,4,5)              1.9047         estimate D2E/DX2                !
 ! D14   D(2,3,4,8)           -179.8031         estimate D2E/DX2                !
 ! D15   D(10,3,4,5)           176.8804         estimate D2E/DX2                !
 ! D16   D(10,3,4,8)            -4.8274         estimate D2E/DX2                !
 ! D17   D(2,3,10,11)          -47.4877         estimate D2E/DX2                !
 ! D18   D(2,3,10,20)         -167.1365         estimate D2E/DX2                !
 ! D19   D(2,3,10,30)           73.6687         estimate D2E/DX2                !
 ! D20   D(4,3,10,11)          137.6886         estimate D2E/DX2                !
 ! D21   D(4,3,10,20)           18.0398         estimate D2E/DX2                !
 ! D22   D(4,3,10,30)         -101.155          estimate D2E/DX2                !
 ! D23   D(2,3,29,39)         -118.7781         estimate D2E/DX2                !
 ! D24   D(4,3,29,39)           74.3645         estimate D2E/DX2                !
 ! D25   D(3,4,5,9)            178.6177         estimate D2E/DX2                !
 ! D26   D(3,4,5,47)            -0.742          estimate D2E/DX2                !
 ! D27   D(8,4,5,9)              0.2664         estimate D2E/DX2                !
 ! D28   D(8,4,5,47)          -179.0932         estimate D2E/DX2                !
 ! D29   D(4,5,47,1)            -0.5897         estimate D2E/DX2                !
 ! D30   D(4,5,47,50)          178.8873         estimate D2E/DX2                !
 ! D31   D(9,5,47,1)          -179.9936         estimate D2E/DX2                !
 ! D32   D(9,5,47,50)           -0.5167         estimate D2E/DX2                !
 ! D33   D(3,10,11,12)         -41.1957         estimate D2E/DX2                !
 ! D34   D(3,10,11,13)         140.8659         estimate D2E/DX2                !
 ! D35   D(20,10,11,12)         52.7392         estimate D2E/DX2                !
 ! D36   D(20,10,11,13)       -125.1992         estimate D2E/DX2                !
 ! D37   D(29,10,11,12)        151.9747         estimate D2E/DX2                !
 ! D38   D(29,10,11,13)        -25.9638         estimate D2E/DX2                !
 ! D39   D(30,10,11,12)       -124.4388         estimate D2E/DX2                !
 ! D40   D(30,10,11,13)         57.6228         estimate D2E/DX2                !
 ! D41   D(3,10,20,21)          63.8736         estimate D2E/DX2                !
 ! D42   D(3,10,20,22)        -118.6123         estimate D2E/DX2                !
 ! D43   D(11,10,20,21)        -29.1279         estimate D2E/DX2                !
 ! D44   D(11,10,20,22)        148.3861         estimate D2E/DX2                !
 ! D45   D(29,10,20,21)       -128.7144         estimate D2E/DX2                !
 ! D46   D(29,10,20,22)         48.7997         estimate D2E/DX2                !
 ! D47   D(30,10,20,21)        148.1005         estimate D2E/DX2                !
 ! D48   D(30,10,20,22)        -34.3854         estimate D2E/DX2                !
 ! D49   D(11,10,29,39)        -67.7947         estimate D2E/DX2                !
 ! D50   D(20,10,29,39)         52.6342         estimate D2E/DX2                !
 ! D51   D(30,10,29,39)        171.5584         estimate D2E/DX2                !
 ! D52   D(3,10,30,31)          74.4482         estimate D2E/DX2                !
 ! D53   D(3,10,30,32)        -107.4673         estimate D2E/DX2                !
 ! D54   D(11,10,30,31)        161.9939         estimate D2E/DX2                !
 ! D55   D(11,10,30,32)        -19.9216         estimate D2E/DX2                !
 ! D56   D(20,10,30,31)        -15.1901         estimate D2E/DX2                !
 ! D57   D(20,10,30,32)        162.8944         estimate D2E/DX2                !
 ! D58   D(29,10,30,31)       -106.3615         estimate D2E/DX2                !
 ! D59   D(29,10,30,32)         71.723          estimate D2E/DX2                !
 ! D60   D(10,11,12,14)       -177.3376         estimate D2E/DX2                !
 ! D61   D(10,11,12,15)          2.3485         estimate D2E/DX2                !
 ! D62   D(13,11,12,14)          0.6132         estimate D2E/DX2                !
 ! D63   D(13,11,12,15)       -179.7008         estimate D2E/DX2                !
 ! D64   D(10,11,13,16)        179.1781         estimate D2E/DX2                !
 ! D65   D(10,11,13,17)          0.8729         estimate D2E/DX2                !
 ! D66   D(12,11,13,16)          1.1755         estimate D2E/DX2                !
 ! D67   D(12,11,13,17)       -177.1297         estimate D2E/DX2                !
 ! D68   D(11,12,14,18)        178.3053         estimate D2E/DX2                !
 ! D69   D(11,12,14,45)         -1.7317         estimate D2E/DX2                !
 ! D70   D(15,12,14,18)         -1.3894         estimate D2E/DX2                !
 ! D71   D(15,12,14,45)        178.5736         estimate D2E/DX2                !
 ! D72   D(11,13,16,19)        179.4589         estimate D2E/DX2                !
 ! D73   D(11,13,16,45)         -1.851          estimate D2E/DX2                !
 ! D74   D(17,13,16,19)         -2.2224         estimate D2E/DX2                !
 ! D75   D(17,13,16,45)        176.4677         estimate D2E/DX2                !
 ! D76   D(12,14,45,16)          1.0577         estimate D2E/DX2                !
 ! D77   D(12,14,45,46)       -179.4744         estimate D2E/DX2                !
 ! D78   D(18,14,45,16)       -178.9795         estimate D2E/DX2                !
 ! D79   D(18,14,45,46)          0.4884         estimate D2E/DX2                !
 ! D80   D(13,16,45,14)          0.7253         estimate D2E/DX2                !
 ! D81   D(13,16,45,46)       -178.742          estimate D2E/DX2                !
 ! D82   D(19,16,45,14)        179.4075         estimate D2E/DX2                !
 ! D83   D(19,16,45,46)         -0.0598         estimate D2E/DX2                !
 ! D84   D(10,20,21,23)        178.0448         estimate D2E/DX2                !
 ! D85   D(10,20,21,24)         -0.7483         estimate D2E/DX2                !
 ! D86   D(22,20,21,23)          0.544          estimate D2E/DX2                !
 ! D87   D(22,20,21,24)       -178.249          estimate D2E/DX2                !
 ! D88   D(10,20,22,25)       -179.6233         estimate D2E/DX2                !
 ! D89   D(10,20,22,26)         -2.0146         estimate D2E/DX2                !
 ! D90   D(21,20,22,25)         -2.0595         estimate D2E/DX2                !
 ! D91   D(21,20,22,26)        175.5491         estimate D2E/DX2                !
 ! D92   D(20,21,23,27)       -178.4498         estimate D2E/DX2                !
 ! D93   D(20,21,23,43)          1.1894         estimate D2E/DX2                !
 ! D94   D(24,21,23,27)          0.3678         estimate D2E/DX2                !
 ! D95   D(24,21,23,43)       -179.993          estimate D2E/DX2                !
 ! D96   D(20,22,25,28)       -179.7286         estimate D2E/DX2                !
 ! D97   D(20,22,25,43)          1.8434         estimate D2E/DX2                !
 ! D98   D(26,22,25,28)          2.6392         estimate D2E/DX2                !
 ! D99   D(26,22,25,43)       -175.7889         estimate D2E/DX2                !
 ! D100  D(21,23,43,25)         -1.415          estimate D2E/DX2                !
 ! D101  D(21,23,43,44)        179.6725         estimate D2E/DX2                !
 ! D102  D(27,23,43,25)        178.2225         estimate D2E/DX2                !
 ! D103  D(27,23,43,44)         -0.69           estimate D2E/DX2                !
 ! D104  D(22,25,43,23)         -0.1024         estimate D2E/DX2                !
 ! D105  D(22,25,43,44)        178.8097         estimate D2E/DX2                !
 ! D106  D(28,25,43,23)       -178.5238         estimate D2E/DX2                !
 ! D107  D(28,25,43,44)          0.3884         estimate D2E/DX2                !
 ! D108  D(10,29,39,40)        -87.739          estimate D2E/DX2                !
 ! D109  D(10,29,39,41)         33.7345         estimate D2E/DX2                !
 ! D110  D(10,29,39,42)        153.1656         estimate D2E/DX2                !
 ! D111  D(10,30,31,33)        175.8329         estimate D2E/DX2                !
 ! D112  D(10,30,31,34)         -2.655          estimate D2E/DX2                !
 ! D113  D(32,30,31,33)         -2.2817         estimate D2E/DX2                !
 ! D114  D(32,30,31,34)        179.2304         estimate D2E/DX2                !
 ! D115  D(10,30,32,35)       -176.6924         estimate D2E/DX2                !
 ! D116  D(10,30,32,36)          1.3297         estimate D2E/DX2                !
 ! D117  D(31,30,32,35)          1.4499         estimate D2E/DX2                !
 ! D118  D(31,30,32,36)        179.472          estimate D2E/DX2                !
 ! D119  D(30,31,33,37)       -178.0305         estimate D2E/DX2                !
 ! D120  D(30,31,33,48)          1.5398         estimate D2E/DX2                !
 ! D121  D(34,31,33,37)          0.5037         estimate D2E/DX2                !
 ! D122  D(34,31,33,48)       -179.926          estimate D2E/DX2                !
 ! D123  D(30,32,35,38)        178.9047         estimate D2E/DX2                !
 ! D124  D(30,32,35,48)          0.1332         estimate D2E/DX2                !
 ! D125  D(36,32,35,38)          0.829          estimate D2E/DX2                !
 ! D126  D(36,32,35,48)       -177.9425         estimate D2E/DX2                !
 ! D127  D(31,33,48,35)          0.101          estimate D2E/DX2                !
 ! D128  D(31,33,48,49)       -179.1686         estimate D2E/DX2                !
 ! D129  D(37,33,48,35)        179.7001         estimate D2E/DX2                !
 ! D130  D(37,33,48,49)          0.4305         estimate D2E/DX2                !
 ! D131  D(32,35,48,33)         -0.9464         estimate D2E/DX2                !
 ! D132  D(32,35,48,49)        178.3235         estimate D2E/DX2                !
 ! D133  D(38,35,48,33)       -179.8005         estimate D2E/DX2                !
 ! D134  D(38,35,48,49)         -0.5306         estimate D2E/DX2                !
 --------------------------------------------------------------------------------
 Trust Radius=3.00D-01 FncErr=1.00D-07 GrdErr=1.00D-06 EigMax=2.50D+02 EigMin=1.00D-04
 Number of steps in this run=    200 maximum allowed number of steps=    300.
 GradGradGradGradGradGradGradGradGradGradGradGradGradGradGradGradGradGrad

                          Input orientation:                          
 ---------------------------------------------------------------------
 Center     Atomic      Atomic             Coordinates (Angstroms)
 Number     Number       Type             X           Y           Z
 ---------------------------------------------------------------------
      1          6           0       -0.452431   -1.793994   -3.292553
      2          6           0       -0.617468   -1.390893   -1.985845
      3          6           0        0.138527   -0.333682   -1.443774
      4          6           0        1.089902    0.252054   -2.294022
      5          6           0        1.234682   -0.171224   -3.601635
      6          1           0       -1.026590   -2.585577   -3.759954
      7          1           0       -1.378910   -1.892668   -1.395496
      8          1           0        1.717765    1.070265   -1.956879
      9          1           0        1.939229    0.264531   -4.300870
     10         15           0       -0.086637    0.159871    0.525591
     11          6           0       -1.912953    0.139828    0.362207
     12          6           0       -2.561711    0.676347   -0.760010
     13          6           0       -2.690606   -0.386573    1.403094
     14          6           0       -3.949721    0.697126   -0.832359
     15          1           0       -1.996974    1.089498   -1.589933
     16          6           0       -4.080084   -0.398081    1.311529
     17          1           0       -2.214148   -0.764541    2.301256
     18          1           0       -4.437165    1.140547   -1.694831
     19          1           0       -4.667550   -0.817205    2.122190
     20          6           0        0.816768    1.732606    0.327880
     21          6           0        0.330003    2.756334   -0.491180
     22          6           0        1.996291    1.932943    1.054794
     23          6           0        1.021646    3.960468   -0.589680
     24          1           0       -0.596850    2.636822   -1.043038
     25          6           0        2.701869    3.127173    0.929076
     26          1           0        2.348718    1.175729    1.750319
     27          1           0        0.624248    4.759380   -1.207662
     28          1           0        3.617996    3.273558    1.492536
     29          8           0       -0.068016    0.186199    2.224283
     30          6           0        0.875123   -1.419220    0.814477
     31          6           0        2.254351   -1.490459    0.574858
     32          6           0        0.225409   -2.555020    1.319012
     33          6           0        2.945075   -2.643819    0.880229
     34          1           0        2.806088   -0.646833    0.173597
     35          6           0        0.949798   -3.694044    1.594526
     36          1           0       -0.837876   -2.550722    1.529833
     37          1           0        4.015104   -2.754715    0.749226
     38          1           0        0.513386   -4.598783    2.001330
     39          6           0       -0.519070    1.294646    3.006448
     40          1           0        0.298309    2.004088    3.162656
     41          1           0       -1.357892    1.812797    2.528338
     42          1           0       -0.846204    0.897135    3.968836
     43          6           0        2.214883    4.142025    0.107920
     44          1           0        2.754746    5.079923    0.025073
     45          6           0       -4.712150    0.149690    0.198829
     46          1           0       -5.795757    0.158905    0.137142
     47          7           0        0.462304   -1.171321   -4.065839
     48          7           0        2.281048   -3.705522    1.378480
     49          1           0        2.805828   -4.544755    1.610916
     50          1           0        0.565912   -1.462509   -5.034121
 ---------------------------------------------------------------------
                    Distance matrix (angstroms):
                    1          2          3          4          5
     1  C    0.000000
     2  C    1.377394   0.000000
     3  C    2.428935   1.408213   0.000000
     4  C    2.749940   2.389427   1.403967   0.000000
     5  C    2.361200   2.743871   2.425760   1.382019   0.000000
     6  H    1.083848   2.177639   3.434126   3.831533   3.311724
     7  H    2.113510   1.086317   2.176094   3.391491   3.829005
     8  H    3.833765   3.392853   2.174474   1.085056   2.116574
     9  H    3.312743   3.825764   3.429779   2.179209   1.084066
    10  P    4.304604   2.998993   2.042717   3.056625   4.346206
    11  C    4.385210   3.087837   2.773869   4.010646   5.071134
    12  C    4.118910   3.091316   2.962934   3.983402   4.817241
    13  C    5.388818   4.097739   4.013907   5.326232   6.364085
    14  C    4.948664   4.098080   4.260301   5.266151   5.941461
    15  H    3.687690   2.865680   2.570441   3.275035   4.009983
    16  C    6.025447   4.883448   5.039099   6.336516   7.241366
    17  H    5.954336   4.617460   4.443644   5.750373   6.862257
    18  H    5.200226   4.591619   4.813869   5.630002   6.125887
    19  H    6.931146   5.797261   6.004021   7.334473   8.247170
    20  C    5.211076   4.143260   2.805052   3.023410   4.386378
    21  C    5.400498   4.509015   3.239182   3.177909   4.366231
    22  C    6.227819   5.208177   3.851197   3.855061   5.166227
    23  C    6.526274   5.768278   4.466442   4.081884   5.117435
    24  H    4.971248   4.136641   3.086302   3.177611   4.217351
    25  C    7.210384   6.318836   4.917180   4.610109   5.793048
    26  H    6.488162   5.417078   4.167193   4.335261   5.630166
    27  H    6.960799   6.322443   5.121616   4.659721   5.514943
    28  H    8.071278   7.196902   5.808683   5.464318   6.595247
    29  O    5.874046   4.529271   3.710469   4.664782   5.980476
    30  C    4.332499   3.173395   2.611640   3.535824   4.603132
    31  C    4.730293   3.848955   3.144792   3.552853   4.497021
    32  C    4.722834   3.603847   3.546107   4.656289   5.560025
    33  C    5.447693   4.740877   4.314445   4.680130   5.396876
    34  H    4.893682   4.115526   3.135257   3.137266   4.116782
    35  C    5.427705   4.536506   4.602332   5.541852   6.284227
    36  H    4.896592   3.708608   3.835488   5.117983   6.024074
    37  H    6.100642   5.549896   5.069369   5.182550   5.773661
    38  H    6.068347   5.240892   5.495484   6.504847   7.177518
    39  C    7.015807   5.669638   4.784178   5.636557   6.992223
    40  H    7.527201   6.234710   5.168162   5.785463   7.166897
    41  H    6.907356   5.584774   4.756502   5.628745   6.945095
    42  H    7.754031   6.383229   5.637460   6.586959   7.923605
    43  C    7.342622   6.558906   5.172133   4.708161   5.772842
    44  H    8.279092   7.568823   6.189445   5.608763   6.560347
    45  C    5.840622   4.890053   5.144012   6.315742   7.064795
    46  H    6.642872   5.807205   6.160979   7.302844   7.969599
    47  N    1.349975   2.353825   2.771587   2.357798   1.346197
    48  N    5.739721   5.007753   4.891300   5.528879   6.195780
    49  H    6.498226   5.882388   5.846260   6.418903   6.983335
    50  H    2.044496   3.270704   3.787809   3.274513   2.041246
                    6          7          8          9         10
     6  H    0.000000
     7  H    2.488958   0.000000
     8  H    4.914035   4.322444   0.000000
     9  H    4.148709   4.909659   2.488483   0.000000
    10  P    5.175606   3.094101   3.201147   5.235438   0.000000
    11  C    5.020526   2.739665   4.407492   6.049723   1.833719
    12  C    4.690033   2.898741   4.461119   5.741580   2.836461
    13  C    5.853344   3.438164   5.731102   7.375264   2.801654
    14  C    5.281254   3.692320   5.790007   6.848170   4.129902
    15  H    4.376850   3.051741   3.732868   4.850097   2.998172
    16  C    6.311015   4.105864   6.815687   8.256525   4.108117
    17  H    6.439312   3.954272   6.079323   7.867503   2.921271
    18  H    5.457175   4.317745   6.160907   6.943864   4.981876
    19  H    7.140262   4.934155   7.808559   9.277682   4.948593
    20  C    6.225356   4.575329   2.543740   4.984023   1.824480
    21  C    6.407905   5.035016   2.630016   4.828295   2.819403
    22  C    7.261999   5.659612   3.145149   5.609812   2.786114
    23  C    7.556230   6.377398   3.272169   5.317409   4.112987
    24  H    5.902522   4.610003   2.940518   4.761610   2.975937
    25  C    8.277918   6.874241   3.678052   6.010713   4.091876
    26  H    7.476847   5.762501   3.761986   6.133095   2.909103
    27  H    7.949079   6.949652   3.920035   5.612555   4.966388
    28  H    9.137302   7.745947   4.512631   6.740627   4.935011
    29  O    6.664285   4.375264   4.631706   6.827356   1.698998
    30  C    5.089432   3.191990   3.819423   5.489455   1.871354
    31  C    5.545670   4.152668   3.640731   5.191533   2.864654
    32  C    5.231093   3.221972   5.108941   6.516910   2.845615
    33  C    6.108094   4.943683   4.832173   6.026111   4.144602
    34  H    5.824171   4.639867   2.944792   4.647890   3.023662
    35  C    5.814230   4.196197   5.991735   7.169727   4.131523
    36  H    5.293267   3.046851   5.639150   7.045215   2.986666
    37  H    6.766091   5.868419   5.218356   6.239277   5.036775
    38  H    6.294197   4.737327   7.018266   8.087186   5.018229
    39  C    7.816515   5.502309   5.448706   7.778256   2.762130
    40  H    8.410881   6.226919   5.394119   7.837276   3.240900
    41  H    7.681020   5.396979   5.488915   7.739911   2.891237
    42  H    8.479152   6.069830   6.458948   8.749106   3.602282
    43  C    8.410007   7.182836   3.734465   5.877786   4.618332
    44  H    9.347985   8.229347   4.591385   6.524328   5.703585
    45  C    6.061106   4.221799   6.843854   8.031272   4.637052
    46  H    6.742736   5.105533   7.852930   8.918358   5.722320
    47  N    2.076172   3.322821   3.323944   2.073214   4.811927
    48  N    6.212749   4.937274   5.852354   6.937808   4.612441
    49  H    6.882736   5.795180   6.741030   7.670035   5.628303
    50  H    2.328271   4.148127   4.148630   2.325150   5.828236
                   11         12         13         14         15
    11  C    0.000000
    12  C    1.402894   0.000000
    13  C    1.401887   2.413593   0.000000
    14  C    2.426107   1.390050   2.785143   0.000000
    15  H    2.172506   1.085538   3.408537   2.130985   0.000000
    16  C    2.426317   2.784084   1.392539   2.410960   3.869202
    17  H    2.160674   3.401222   1.084697   3.868879   4.315782
    18  H    3.406536   2.146322   3.870362   1.085395   2.442978
    19  H    3.406062   3.869410   2.147289   3.396739   4.954528
    20  C    3.160617   3.703148   4.236588   5.013760   3.465363
    21  C    3.550384   3.572202   4.752917   4.761594   3.066011
    22  C    4.356274   5.064378   5.241037   6.359532   4.863347
    23  C    4.910728   4.863631   6.053819   5.951704   4.284278
    24  H    3.153065   2.790026   4.416819   3.879246   2.157233
    25  C    5.526496   6.046886   6.453673   7.297358   5.707596
    26  H    4.600194   5.537459   5.287357   6.824194   5.481766
    27  H    5.499285   5.198258   6.654708   6.128944   4.526032
    28  H    6.456726   7.071651   7.294040   8.325472   6.767542
    29  O    2.621692   3.919791   2.807205   4.967066   4.368646
    30  C    3.226228   4.322295   3.758624   5.519974   4.508192
    31  C    4.479897   5.447144   5.133920   6.727280   5.423676
    32  C    3.570753   4.746799   3.634883   5.712842   5.165603
    33  C    5.622942   6.636157   6.093394   7.850674   6.668074
    34  H    4.787876   5.606754   5.638532   6.961259   5.403174
    35  C    4.940904   6.080695   4.922251   7.012662   6.458058
    36  H    3.123812   4.316128   2.851703   5.080556   4.932307
    37  H    6.608330   7.569972   7.141582   8.823551   7.509642
    38  H    5.570303   6.701359   5.325989   7.483032   7.180224
    39  C    3.204454   4.329074   3.180064   5.182937   4.832495
    40  H    4.025874   5.032884   4.212473   5.976124   5.356482
    41  H    2.792676   3.681566   2.807050   4.388232   4.229863
    42  H    3.836566   5.035245   3.410683   5.720428   5.679893
    43  C    5.755108   5.964904   6.800698   7.124170   5.471779
    44  H    6.804823   6.947845   7.837945   8.055680   6.411753
    45  C    2.803978   2.412701   2.413394   1.394393   3.384537
    46  H    3.889368   3.395833   3.397373   2.153477   4.275458
    47  N    5.193125   4.846344   6.361281   5.780350   4.158060
    48  N    5.780067   6.872134   5.977740   7.943148   7.078500
    49  H    6.765463   7.854405   6.895249   8.892938   8.065801
    50  H    6.150822   5.711808   7.293853   6.535271   4.994352
                   16         17         18         19         20
    16  C    0.000000
    17  H    2.143728   0.000000
    18  H    3.396039   4.953774   0.000000
    19  H    1.085335   2.460492   4.295989   0.000000
    20  C    5.430152   4.395044   5.660893   6.308631   0.000000
    21  C    5.713927   5.164007   5.175465   6.676483   1.398506
    22  C    6.513211   5.153434   7.041142   7.287621   1.399933
    23  C    6.974181   6.415106   6.242750   7.908688   2.418111
    24  H    5.185320   5.036787   4.172732   6.206414   2.166873
    25  C    7.653011   6.418375   7.861131   8.443339   2.420715
    26  H    6.633167   4.988780   7.610421   7.303293   2.163404
    27  H    7.421352   7.133211   6.241089   8.377908   3.399458
    28  H    8.530776   7.139620   8.921584   9.261808   3.402622
    29  O    4.155862   2.348556   5.946402   4.708817   2.602030
    30  C    5.083686   3.490374   6.408544   5.726584   3.189700
    31  C    6.470011   4.845089   7.539898   7.124621   3.537766
    32  C    4.815570   3.181518   6.669337   5.254155   4.440246
    33  C    7.387978   5.671736   8.686186   7.926604   4.897742
    34  H    6.983991   5.453765   7.690934   7.725368   3.105306
    35  C    6.020230   4.369440   7.950630   6.333185   5.574103
    36  H    3.897875   2.383204   6.081020   4.245276   4.746518
    37  H    8.449969   6.721099   9.622231   9.001525   5.526566
    38  H    6.262722   4.714956   8.432643   6.415375   6.555834
    39  C    4.291724   2.758774   6.121866   4.738324   3.025062
    40  H    5.326107   3.836634   6.838538   5.805344   2.894556
    41  H    3.711999   2.725328   5.269630   4.246846   3.094769
    42  H    4.381420   2.722730   6.710542   4.577308   4.089016
    43  C    7.854161   6.964297   7.517215   8.718895   2.794353
    44  H    8.853158   8.001792   8.378564   9.708990   3.879688
    45  C    1.391999   3.390580   2.154846   2.153182   5.752496
    46  H    2.152429   4.285331   2.483046   2.483155   6.799883
    47  N    7.081474   6.918726   5.913646   8.045651   5.278561
    48  N    7.169913   5.450474   8.835384   7.561646   5.728971
    49  H    8.043651   6.321926   9.783229   8.367043   6.708785
    50  H    7.936344   7.875509   6.554200   8.889225   6.246819
                   21         22         23         24         25
    21  C    0.000000
    22  C    2.417545   0.000000
    23  C    1.392125   2.786590   0.000000
    24  H    1.085305   3.408918   2.139416   0.000000
    25  C    2.789336   1.392778   2.413328   3.874432   0.000000
    26  H    3.405560   1.086891   3.871884   4.314395   2.146460
    27  H    2.147585   3.871686   1.085397   2.454268   3.397979
    28  H    3.874732   2.149138   3.398309   4.959788   1.085451
    29  O    3.760020   2.946215   4.832273   4.118326   4.242541
    30  C    4.408758   3.542847   5.561849   4.697717   4.901002
    31  C    4.782761   3.466499   5.708618   5.270805   4.652770
    32  C    5.612327   4.831940   6.835838   5.762865   6.210654
    33  C    6.154756   4.677330   7.033976   6.642993   5.776321
    34  H    4.260806   2.843857   4.999405   4.882886   3.850290
    35  C    6.807473   5.748864   7.960369   7.030557   7.074007
    36  H    5.797696   5.325544   7.095474   5.795548   6.717827
    37  H    6.744645   5.113034   7.473095   7.317855   6.029390
    38  H    7.768139   6.764494   8.957256   7.928101   8.101209
    39  C    3.884695   3.247063   4.734189   4.266828   4.248303
    40  H    3.730603   2.707635   4.293095   4.346208   3.468040
    41  H    3.585630   3.665557   4.471770   3.743385   4.557070
    42  H    4.973110   4.200514   5.801115   5.311080   5.177068
    43  C    2.414919   2.413379   1.394067   3.390602   1.393333
    44  H    3.397788   3.396920   2.152844   4.282849   2.152499
    45  C    5.717868   6.993987   6.929660   4.966262   8.022864
    46  H    6.683290   8.043961   7.839460   5.878906   9.035896
    47  N    5.312454   6.181460   6.223488   4.976051   6.960020
    48  N    7.004127   5.654922   8.014184   7.373695   6.860377
    49  H    7.990896   6.551732   8.964639   8.378349   7.702869
    50  H    6.204241   7.116879   7.026338   5.838259   7.822225
                   26         27         28         29         30
    26  H    0.000000
    27  H    4.956410   0.000000
    28  H    2.465442   4.296657   0.000000
    29  O    2.654132   5.759467   4.863530   0.000000
    30  C    3.127466   6.505927   5.477708   2.335473   0.000000
    31  C    2.915334   6.700381   5.039595   3.305325   1.401700
    32  C    4.314273   7.748781   6.746264   2.901706   1.402400
    33  C    3.962530   8.034481   5.986910   4.346746   2.405965
    34  H    2.452952   5.991280   4.215241   3.627634   2.176220
    35  C    5.069116   8.911712   7.461713   4.060643   2.406009
    36  H    4.908099   7.941617   7.333377   2.926719   2.174028
    37  H    4.384908   8.472835   6.086894   5.243724   3.412812
    38  H    6.064358   9.893692   8.477690   4.825328   3.413077
    39  C    3.133083   5.574072   4.829424   1.429646   3.756804
    40  H    2.623938   5.176635   3.926981   2.078331   4.191145
    41  H    3.840589   5.154505   5.288305   2.098106   4.285978
    42  H    3.899610   6.623843   5.631033   2.038252   4.275330
    43  C    3.393272   2.154531   2.154094   5.033804   5.763820
    44  H    4.287664   2.482218   2.482258   6.062429   6.811388
    45  C    7.301762   7.190591   8.990193   5.066732   5.835934
    46  H    8.364732   8.011825  10.007842   6.096222   6.888389
    47  N    6.549419   6.585485   7.785299   6.456759   4.904014
    48  N    4.895861   9.004870   7.106898   4.623741   2.742608
    49  H    5.740411   9.963463   7.861275   5.569302   3.759110
    50  H    7.494486   7.304594   8.622227   7.470243   5.856926
                   31         32         33         34         35
    31  C    0.000000
    32  C    2.409079   0.000000
    33  C    1.378619   2.756265   0.000000
    34  H    1.084956   3.407794   2.122875   0.000000
    35  C    2.756332   1.377688   2.365232   3.840618   0.000000
    36  H    3.405584   1.083992   3.839449   4.329277   2.123005
    37  H    2.174626   3.837489   1.083707   2.497245   3.315565
    38  H    3.837637   2.173811   3.315398   4.920874   1.083742
    39  C    4.621829   4.268679   5.659736   4.780278   5.388703
    40  H    4.768087   4.918313   5.815315   4.717077   5.945770
    41  H    5.270283   4.800743   6.410399   5.378970   6.043404
    42  H    5.180071   4.481885   6.037520   5.488799   5.471919
    43  C    5.651943   7.090498   6.868575   4.825660   8.075544
    44  H    6.612305   8.146421   7.773269   5.728912   9.094147
    45  C    7.166842   5.740188   8.179309   7.560356   6.984262
    46  H    8.228988   6.709445   9.209212   8.639576   7.903904
    47  N    4.984912   5.564833   5.726778   4.872497   6.216230
    48  N    2.356486   2.356447   1.347739   3.329112   1.348716
    49  H    3.272043   3.271516   2.041287   4.154477   2.041770
    50  H    5.857666   6.455372   6.483475   5.727481   7.004718
                   36         37         38         39         40
    36  H    0.000000
    37  H    4.919591   0.000000
    38  H    2.498554   4.150949   0.000000
    39  C    4.131451   6.484683   6.067020   0.000000
    40  H    4.970244   6.502724   6.707670   1.093534   0.000000
    41  H    4.506410   7.272997   6.699834   1.095761   1.783803
    42  H    4.223331   6.879986   5.993720   1.091431   1.784708
    43  C    7.492265   7.156612   9.103945   4.897298   4.192308
    44  H    8.567262   7.968341  10.129493   5.825358   5.033813
    45  C    4.906505   9.214308   7.287196   5.174511   6.109645
    46  H    5.819128  10.252650   8.118872   6.112794   7.049544
    47  N    5.908025   6.189861   6.968547   7.553895   7.896914
    48  N    3.329288   2.075318   2.076171   5.957568   6.301919
    49  H    4.154434   2.325747   2.326077   6.863021   7.182123
    50  H    6.800024   6.856663   7.703022   8.569121   8.903710
                   41         42         43         44         45
    41  H    0.000000
    42  H    1.781936   0.000000
    43  C    4.903922   5.899681   0.000000
    44  H    5.818440   6.783496   1.085343   0.000000
    45  C    4.409488   5.451345   7.995673   8.949409   0.000000
    46  H    5.305452   6.302772   8.946309   9.866108   1.085401
    47  N    7.463327   8.399209   6.980218   7.814659   6.834284
    48  N    6.709389   6.137923   7.950012   8.901693   8.072116
    49  H    7.654848   6.965005   8.835630   9.754585   8.975065
    50  H    8.462827   9.413566   7.782705   8.555107   7.605320
                   46         47         48         49         50
    46  H    0.000000
    47  N    7.654925   0.000000
    48  N    9.039330   6.274601   0.000000
    49  H    9.913813   7.006976   1.016726   0.000000
    50  H    8.357139   1.016413   7.006729   7.659894   0.000000
 Stoichiometry    C23H23N2OP(2+)
 Framework group  C1[X(C23H23N2OP)]
 Deg. of freedom   144
 Full point group                 C1      NOp   1
 Largest Abelian subgroup         C1      NOp   1
 Largest concise Abelian subgroup C1      NOp   1
                         Standard orientation:                         
 ---------------------------------------------------------------------
 Center     Atomic      Atomic             Coordinates (Angstroms)
 Number     Number       Type             X           Y           Z
 ---------------------------------------------------------------------
      1          6           0        0.452428   -1.793995    3.292553
      2          6           0        0.617466   -1.390894    1.985845
      3          6           0       -0.138528   -0.333682    1.443774
      4          6           0       -1.089902    0.252056    2.294022
      5          6           0       -1.234682   -0.171222    3.601635
      6          1           0        1.026586   -2.585579    3.759954
      7          1           0        1.378907   -1.892670    1.395496
      8          1           0       -1.717763    1.070268    1.956879
      9          1           0       -1.939229    0.264534    4.300870
     10         15           0        0.086637    0.159871   -0.525591
     11          6           0        1.912953    0.139825   -0.362207
     12          6           0        2.561712    0.676343    0.760010
     13          6           0        2.690605   -0.386578   -1.403094
     14          6           0        3.949722    0.697119    0.832359
     15          1           0        1.996976    1.089495    1.589933
     16          6           0        4.080083   -0.398088   -1.311529
     17          1           0        2.214147   -0.764545   -2.301256
     18          1           0        4.437167    1.140540    1.694831
     19          1           0        4.667549   -0.817213   -2.122190
     20          6           0       -0.816765    1.732607   -0.327880
     21          6           0       -0.329998    2.756334    0.491180
     22          6           0       -1.996288    1.932946   -1.054794
     23          6           0       -1.021639    3.960470    0.589680
     24          1           0        0.596854    2.636821    1.043038
     25          6           0       -2.701864    3.127177   -0.929076
     26          1           0       -2.348716    1.175733   -1.750319
     27          1           0       -0.624240    4.759381    1.207662
     28          1           0       -3.617991    3.273564   -1.492536
     29          8           0        0.068016    0.186199   -2.224283
     30          6           0       -0.875125   -1.419219   -0.814477
     31          6           0       -2.254354   -1.490455   -0.574858
     32          6           0       -0.225413   -2.555020   -1.319012
     33          6           0       -2.945079   -2.643814   -0.880229
     34          1           0       -2.806089   -0.646828   -0.173597
     35          6           0       -0.949804   -3.694042   -1.594526
     36          1           0        0.837872   -2.550723   -1.529833
     37          1           0       -4.015109   -2.754708   -0.749226
     38          1           0       -0.513394   -4.598782   -2.001330
     39          6           0        0.519072    1.294645   -3.006448
     40          1           0       -0.298306    2.004088   -3.162656
     41          1           0        1.357895    1.812795   -2.528338
     42          1           0        0.846205    0.897134   -3.968836
     43          6           0       -2.214876    4.142029   -0.107920
     44          1           0       -2.754738    5.079928   -0.025073
     45          6           0        4.712150    0.149682   -0.198829
     46          1           0        5.795757    0.158895   -0.137142
     47          7           0       -0.462306   -1.171320    4.065839
     48          7           0       -2.281054   -3.705518   -1.378480
     49          1           0       -2.805836   -4.544750   -1.610916
     50          1           0       -0.565914   -1.462508    5.034121
 ---------------------------------------------------------------------
 Rotational constants (GHZ):           0.1876488           0.1861748           0.1648831
 Standard basis: 6-31+G(d) (6D, 7F)
 There are   563 symmetry adapted cartesian basis functions of A   symmetry.
 There are   563 symmetry adapted basis functions of A   symmetry.
   563 basis functions,   980 primitive gaussians,   563 cartesian basis functions
    98 alpha electrons       98 beta electrons
       nuclear repulsion energy      2699.7483881731 Hartrees.
 NAtoms=   50 NActive=   50 NUniq=   50 SFac= 1.00D+00 NAtFMM=   60 NAOKFM=F Big=F
 Integral buffers will be    131072 words long.
 Raffenetti 2 integral format.
 Two-electron integral symmetry is turned on.
 Nuclear repulsion after empirical dispersion term =     2699.7007995656 Hartrees.
 ------------------------------------------------------------------------------
 Polarizable Continuum Model (PCM)
 =================================
 Model                : PCM.
 Atomic radii         : SMD-Coulomb.
 Polarization charges : Total charges.
 Charge compensation  : None.
 Solution method      : On-the-fly selection.
 Cavity type          : VdW (van der Waals Surface) (Alpha=1.000).
 Cavity algorithm     : GePol (No added spheres)
                        Default sphere list used, NSphG=   50.
                        Lebedev-Laikov grids with approx.  5.0 points / Ang**2.
                        Smoothing algorithm: York/Karplus (Gamma=1.0000).
                        Polarization charges: spherical gaussians, with
                                              point-specific exponents (IZeta= 3).
                        Self-potential: point-specific (ISelfS= 7).
                        Self-field    : sphere-specific E.n sum rule (ISelfD= 2).
 1st derivatives      : Analytical E(r).r(x)/FMM algorithm (CHGder, D1EAlg=3).
                        Cavity 1st derivative terms included.
 Solvent              : Ethanol, Eps=  24.852000 Eps(inf)=   1.852593
 ------------------------------------------------------------------------------
 ------------------------------------------------------------------------------
 Atomic radii for non-electrostatic terms: SMD-CDS.
 ------------------------------------------------------------------------------
 Nuclear repulsion after PCM non-electrostatic terms =     2699.7001234711 Hartrees.
 One-electron integrals computed using PRISM.
 NBasis=   563 RedAO= T EigKep=  1.54D-06  NBF=   563
 NBsUse=   559 1.00D-06 EigRej=  9.99D-07 NBFU=   559
 ExpMin= 3.48D-02 ExpMax= 1.94D+04 ExpMxC= 2.91D+03 IAcc=3 IRadAn=         5 AccDes= 0.00D+00
 Harris functional with IExCor= 4639 and IRadAn=       5 diagonalized for initial guess.
 HarFok:  IExCor= 4639 AccDes= 0.00D+00 IRadAn=         5 IDoV= 1 UseB2=F ITyADJ=14
 ICtDFT=  3500011 ScaDFX=  1.000000  1.000000  1.000000  1.000000
 FoFCou: FMM=F IPFlag=           0 FMFlag=      100000 FMFlg1=           0
         NFxFlg=           0 DoJE=T BraDBF=F KetDBF=T FulRan=T
         wScrn=  0.000000 ICntrl=       500 IOpCl=  0 I1Cent=   200000004 NGrid=           0
         NMat0=    1 NMatS0=      1 NMatT0=    0 NMatD0=    1 NMtDS0=    0 NMtDT0=    0
 Petite list used in FoFCou.
 Requested convergence on RMS density matrix=1.00D-08 within 128 cycles.
 Requested convergence on MAX density matrix=1.00D-06.
 Requested convergence on             energy=1.00D-06.
 No special actions if energy rises.
 Inv3:  Mode=1 IEnd=    40384683.
 Iteration    1 A*A^-1 deviation from unit magnitude is 9.44D-15 for   1069.
 Iteration    1 A*A^-1 deviation from orthogonality  is 4.08D-15 for   1829    226.
 Iteration    1 A^-1*A deviation from unit magnitude is 8.10D-15 for   1069.
 Iteration    1 A^-1*A deviation from orthogonality  is 4.33D-15 for   1829    226.
 Error on total polarization charges =  0.05571
 SCF Done:  E(RwB97XD) =  -1415.71233215     A.U. after   16 cycles
            NFock= 16  Conv=0.49D-08     -V/T= 2.0082
 SMD-CDS (non-electrostatic) energy       (kcal/mol) =      -0.42
 (included in total energy above)

 **********************************************************************

            Population analysis using the SCF density.

 **********************************************************************

 Orbital symmetries:
       Occupied  (A) (A) (A) (A) (A) (A) (A) (A) (A) (A) (A) (A)
                 (A) (A) (A) (A) (A) (A) (A) (A) (A) (A) (A) (A)
                 (A) (A) (A) (A) (A) (A) (A) (A) (A) (A) (A) (A)
                 (A) (A) (A) (A) (A) (A) (A) (A) (A) (A) (A) (A)
                 (A) (A) (A) (A) (A) (A) (A) (A) (A) (A) (A) (A)
                 (A) (A) (A) (A) (A) (A) (A) (A) (A) (A) (A) (A)
                 (A) (A) (A) (A) (A) (A) (A) (A) (A) (A) (A) (A)
                 (A) (A) (A) (A) (A) (A) (A) (A) (A) (A) (A) (A)
                 (A) (A)
       Virtual   (A) (A) (A) (A) (A) (A) (A) (A) (A) (A) (A) (A)
                 (A) (A) (A) (A) (A) (A) (A) (A) (A) (A) (A) (A)
                 (A) (A) (A) (A) (A) (A) (A) (A) (A) (A) (A) (A)
                 (A) (A) (A) (A) (A) (A) (A) (A) (A) (A) (A) (A)
                 (A) (A) (A) (A) (A) (A) (A) (A) (A) (A) (A) (A)
                 (A) (A) (A) (A) (A) (A) (A) (A) (A) (A) (A) (A)
                 (A) (A) (A) (A) (A) (A) (A) (A) (A) (A) (A) (A)
                 (A) (A) (A) (A) (A) (A) (A) (A) (A) (A) (A) (A)
                 (A) (A) (A) (A) (A) (A) (A) (A) (A) (A) (A) (A)
                 (A) (A) (A) (A) (A) (A) (A) (A) (A) (A) (A) (A)
                 (A) (A) (A) (A) (A) (A) (A) (A) (A) (A) (A) (A)
                 (A) (A) (A) (A) (A) (A) (A) (A) (A) (A) (A) (A)
                 (A) (A) (A) (A) (A) (A) (A) (A) (A) (A) (A) (A)
                 (A) (A) (A) (A) (A) (A) (A) (A) (A) (A) (A) (A)
                 (A) (A) (A) (A) (A) (A) (A) (A) (A) (A) (A) (A)
                 (A) (A) (A) (A) (A) (A) (A) (A) (A) (A) (A) (A)
                 (A) (A) (A) (A) (A) (A) (A) (A) (A) (A) (A) (A)
                 (A) (A) (A) (A) (A) (A) (A) (A) (A) (A) (A) (A)
                 (A) (A) (A) (A) (A) (A) (A) (A) (A) (A) (A) (A)
                 (A) (A) (A) (A) (A) (A) (A) (A) (A) (A) (A) (A)
                 (A) (A) (A) (A) (A) (A) (A) (A) (A) (A) (A) (A)
                 (A) (A) (A) (A) (A) (A) (A) (A) (A) (A) (A) (A)
                 (A) (A) (A) (A) (A) (A) (A) (A) (A) (A) (A) (A)
                 (A) (A) (A) (A) (A) (A) (A) (A) (A) (A) (A) (A)
                 (A) (A) (A) (A) (A) (A) (A) (A) (A) (A) (A) (A)
                 (A) (A) (A) (A) (A) (A) (A) (A) (A) (A) (A) (A)
                 (A) (A) (A) (A) (A) (A) (A) (A) (A) (A) (A) (A)
                 (A) (A) (A) (A) (A) (A) (A) (A) (A) (A) (A) (A)
                 (A) (A) (A) (A) (A) (A) (A) (A) (A) (A) (A) (A)
                 (A) (A) (A) (A) (A) (A) (A) (A) (A) (A) (A) (A)
                 (A) (A) (A) (A) (A) (A) (A) (A) (A) (A) (A) (A)
                 (A) (A) (A) (A) (A) (A) (A) (A) (A) (A) (A) (A)
                 (A) (A) (A) (A) (A) (A) (A) (A) (A) (A) (A) (A)
                 (A) (A) (A) (A) (A) (A) (A) (A) (A) (A) (A) (A)
                 (A) (A) (A) (A) (A) (A) (A) (A) (A) (A) (A) (A)
                 (A) (A) (A) (A) (A) (A) (A) (A) (A) (A) (A) (A)
                 (A) (A) (A) (A) (A) (A) (A) (A) (A) (A) (A) (A)
                 (A) (A) (A) (A) (A) (A) (A) (A) (A) (A) (A) (A)
                 (A) (A) (A) (A) (A)
 The electronic state is 1-A.
 Alpha  occ. eigenvalues --  -77.37414 -19.28034 -14.57937 -14.57356 -10.39955
 Alpha  occ. eigenvalues --  -10.39867 -10.39254 -10.39102 -10.37860 -10.35431
 Alpha  occ. eigenvalues --  -10.35301 -10.34977 -10.34259 -10.34161 -10.33843
 Alpha  occ. eigenvalues --  -10.33585 -10.33409 -10.32650 -10.32538 -10.32508
 Alpha  occ. eigenvalues --  -10.32435 -10.32109 -10.31968 -10.31819 -10.31804
 Alpha  occ. eigenvalues --  -10.31803 -10.31738  -6.78398  -4.93299  -4.93246
 Alpha  occ. eigenvalues --   -4.93186  -1.14491  -1.13843  -1.13118  -0.98341
 Alpha  occ. eigenvalues --   -0.97658  -0.96858  -0.94795  -0.92458  -0.91557
 Alpha  occ. eigenvalues --   -0.88825  -0.86648  -0.86465  -0.86281  -0.82991
 Alpha  occ. eigenvalues --   -0.78947  -0.78047  -0.77653  -0.77314  -0.74139
 Alpha  occ. eigenvalues --   -0.71849  -0.71610  -0.71035  -0.70963  -0.70353
 Alpha  occ. eigenvalues --   -0.68034  -0.63906  -0.62684  -0.62442  -0.61464
 Alpha  occ. eigenvalues --   -0.60199  -0.59481  -0.59041  -0.58337  -0.56794
 Alpha  occ. eigenvalues --   -0.56416  -0.56129  -0.55924  -0.55551  -0.55371
 Alpha  occ. eigenvalues --   -0.55109  -0.54951  -0.53887  -0.53495  -0.53118
 Alpha  occ. eigenvalues --   -0.52173  -0.51454  -0.50765  -0.49311  -0.49131
 Alpha  occ. eigenvalues --   -0.48081  -0.47544  -0.46826  -0.45215  -0.44484
 Alpha  occ. eigenvalues --   -0.43861  -0.43521  -0.42890  -0.41026  -0.40022
 Alpha  occ. eigenvalues --   -0.38874  -0.38141  -0.37411  -0.36002  -0.34763
 Alpha  occ. eigenvalues --   -0.34676  -0.34480  -0.34371
 Alpha virt. eigenvalues --   -0.03666  -0.00826   0.01065   0.01418   0.02120
 Alpha virt. eigenvalues --    0.03125   0.04036   0.04817   0.05149   0.05738
 Alpha virt. eigenvalues --    0.06040   0.06496   0.07562   0.07843   0.08298
 Alpha virt. eigenvalues --    0.08414   0.08482   0.09222   0.09505   0.09877
 Alpha virt. eigenvalues --    0.10096   0.10231   0.10665   0.10866   0.11361
 Alpha virt. eigenvalues --    0.11772   0.12182   0.12621   0.12922   0.13158
 Alpha virt. eigenvalues --    0.13291   0.13519   0.13916   0.14107   0.14365
 Alpha virt. eigenvalues --    0.14632   0.14926   0.15396   0.15928   0.16109
 Alpha virt. eigenvalues --    0.16506   0.16968   0.17161   0.17241   0.17519
 Alpha virt. eigenvalues --    0.17850   0.18587   0.18686   0.18874   0.19042
 Alpha virt. eigenvalues --    0.19335   0.19417   0.19659   0.19746   0.19818
 Alpha virt. eigenvalues --    0.20298   0.20548   0.20921   0.21216   0.21442
 Alpha virt. eigenvalues --    0.21612   0.21902   0.22140   0.22332   0.22811
 Alpha virt. eigenvalues --    0.23175   0.23390   0.23645   0.24058   0.24128
 Alpha virt. eigenvalues --    0.24541   0.24821   0.25064   0.25145   0.25401
 Alpha virt. eigenvalues --    0.25591   0.25824   0.25948   0.26170   0.26439
 Alpha virt. eigenvalues --    0.26653   0.27088   0.27229   0.27337   0.27586
 Alpha virt. eigenvalues --    0.28123   0.28411   0.28506   0.28716   0.29114
 Alpha virt. eigenvalues --    0.29241   0.29834   0.29857   0.29905   0.30277
 Alpha virt. eigenvalues --    0.30619   0.30952   0.31273   0.31621   0.32018
 Alpha virt. eigenvalues --    0.32051   0.32224   0.32484   0.32952   0.33158
 Alpha virt. eigenvalues --    0.33219   0.33322   0.33847   0.34028   0.34309
 Alpha virt. eigenvalues --    0.34553   0.34874   0.35036   0.35339   0.35669
 Alpha virt. eigenvalues --    0.35875   0.36283   0.36405   0.36860   0.36996
 Alpha virt. eigenvalues --    0.37074   0.37434   0.37747   0.38105   0.38255
 Alpha virt. eigenvalues --    0.38611   0.38858   0.39311   0.39467   0.39764
 Alpha virt. eigenvalues --    0.40134   0.40523   0.40680   0.40758   0.40971
 Alpha virt. eigenvalues --    0.41386   0.41950   0.42400   0.42845   0.43013
 Alpha virt. eigenvalues --    0.43444   0.43651   0.44838   0.45072   0.45294
 Alpha virt. eigenvalues --    0.45675   0.46215   0.47031   0.47745   0.48379
 Alpha virt. eigenvalues --    0.48526   0.49072   0.49531   0.50830   0.51102
 Alpha virt. eigenvalues --    0.52823   0.54241   0.54955   0.55108   0.58057
 Alpha virt. eigenvalues --    0.59881   0.61235   0.62094   0.63178   0.64387
 Alpha virt. eigenvalues --    0.65408   0.65976   0.68706   0.70994   0.72010
 Alpha virt. eigenvalues --    0.72535   0.74229   0.74609   0.76051   0.76673
 Alpha virt. eigenvalues --    0.77546   0.77824   0.78194   0.78901   0.79505
 Alpha virt. eigenvalues --    0.79708   0.80354   0.80607   0.80666   0.81793
 Alpha virt. eigenvalues --    0.82191   0.82740   0.82888   0.83866   0.84125
 Alpha virt. eigenvalues --    0.84327   0.84878   0.85433   0.85672   0.86635
 Alpha virt. eigenvalues --    0.87496   0.87865   0.88626   0.89426   0.89829
 Alpha virt. eigenvalues --    0.90180   0.90721   0.91967   0.92146   0.93061
 Alpha virt. eigenvalues --    0.93647   0.94394   0.95109   0.95950   0.96305
 Alpha virt. eigenvalues --    0.97053   0.97473   0.97666   0.98125   0.98545
 Alpha virt. eigenvalues --    0.99200   0.99280   1.00035   1.00069   1.00712
 Alpha virt. eigenvalues --    1.00921   1.01445   1.01810   1.01993   1.02257
 Alpha virt. eigenvalues --    1.02578   1.03200   1.04114   1.04427   1.04698
 Alpha virt. eigenvalues --    1.05093   1.05856   1.06635   1.06979   1.08184
 Alpha virt. eigenvalues --    1.09419   1.09889   1.10684   1.11318   1.11868
 Alpha virt. eigenvalues --    1.12488   1.13022   1.14107   1.14887   1.15149
 Alpha virt. eigenvalues --    1.15830   1.16822   1.17079   1.17752   1.18029
 Alpha virt. eigenvalues --    1.19076   1.19866   1.20291   1.20789   1.21263
 Alpha virt. eigenvalues --    1.22091   1.22950   1.23579   1.23671   1.24864
 Alpha virt. eigenvalues --    1.25378   1.26410   1.27175   1.28069   1.28795
 Alpha virt. eigenvalues --    1.29253   1.29547   1.30429   1.31174   1.32315
 Alpha virt. eigenvalues --    1.33085   1.33388   1.34516   1.36041   1.36689
 Alpha virt. eigenvalues --    1.37720   1.38986   1.39727   1.41156   1.41549
 Alpha virt. eigenvalues --    1.42757   1.43634   1.44833   1.45600   1.46808
 Alpha virt. eigenvalues --    1.47537   1.47793   1.48100   1.49125   1.49613
 Alpha virt. eigenvalues --    1.50780   1.50972   1.51383   1.52271   1.52547
 Alpha virt. eigenvalues --    1.52877   1.53307   1.53797   1.54259   1.54734
 Alpha virt. eigenvalues --    1.55036   1.55598   1.55931   1.56910   1.57415
 Alpha virt. eigenvalues --    1.57945   1.58830   1.59477   1.59823   1.60625
 Alpha virt. eigenvalues --    1.61451   1.61514   1.62929   1.64471   1.65769
 Alpha virt. eigenvalues --    1.68567   1.69215   1.72233   1.73423   1.74925
 Alpha virt. eigenvalues --    1.77803   1.79234   1.82064   1.84770   1.86318
 Alpha virt. eigenvalues --    1.87951   1.89325   1.90944   1.92726   1.93005
 Alpha virt. eigenvalues --    1.94450   1.96147   1.97392   1.98748   1.99252
 Alpha virt. eigenvalues --    1.99847   2.01264   2.02763   2.03770   2.05100
 Alpha virt. eigenvalues --    2.06019   2.06962   2.07562   2.07904   2.10225
 Alpha virt. eigenvalues --    2.11164   2.11695   2.13299   2.14467   2.16168
 Alpha virt. eigenvalues --    2.18973   2.19163   2.19672   2.20391   2.20795
 Alpha virt. eigenvalues --    2.21337   2.21760   2.22277   2.22817   2.23456
 Alpha virt. eigenvalues --    2.23758   2.23869   2.25153   2.25292   2.26028
 Alpha virt. eigenvalues --    2.26172   2.26620   2.27577   2.27957   2.28654
 Alpha virt. eigenvalues --    2.29153   2.30454   2.30765   2.31320   2.32469
 Alpha virt. eigenvalues --    2.33013   2.33787   2.34692   2.35733   2.36613
 Alpha virt. eigenvalues --    2.36749   2.37579   2.38479   2.38959   2.39453
 Alpha virt. eigenvalues --    2.39942   2.40781   2.41326   2.41700   2.43974
 Alpha virt. eigenvalues --    2.48819   2.51081   2.62805   2.64404   2.67047
 Alpha virt. eigenvalues --    2.68305   2.68940   2.70541   2.71203   2.71301
 Alpha virt. eigenvalues --    2.71890   2.72261   2.72690   2.73130   2.74742
 Alpha virt. eigenvalues --    2.75910   2.76590   2.77075   2.77631   2.77942
 Alpha virt. eigenvalues --    2.78493   2.80657   2.81408   2.85029   2.85739
 Alpha virt. eigenvalues --    2.86518   2.87895   2.88770   2.89284   2.90199
 Alpha virt. eigenvalues --    2.91779   2.93245   2.93775   2.94997   2.95927
 Alpha virt. eigenvalues --    3.00632   3.12393   3.13847   3.14199   3.18608
 Alpha virt. eigenvalues --    3.43368   3.47204   3.47628   3.47914   3.75162
 Alpha virt. eigenvalues --    4.26454   4.31365   4.38157   4.38486   4.39593
 Alpha virt. eigenvalues --    4.41558   4.42123   4.43590   4.45337   4.45805
 Alpha virt. eigenvalues --    4.46925   4.49484   4.50441   4.53045   4.54080
 Alpha virt. eigenvalues --    4.56598   4.58280   4.59036   4.61832   4.64245
 Alpha virt. eigenvalues --    4.65016   4.72549   4.78848   4.79674   4.82686
 Alpha virt. eigenvalues --    4.87272
          Condensed to atoms (all electrons):
               1          2          3          4          5          6
     1  C   10.803254  -3.833283  -0.069775  -0.335661  -0.394267   0.471432
     2  C   -3.833283  32.373239  -7.447185 -14.881243  -0.997774  -0.221099
     3  C   -0.069775  -7.447185  23.605885  -5.924111   0.150140   0.095553
     4  C   -0.335661 -14.881243  -5.924111  28.642254  -2.873526   0.025651
     5  C   -0.394267  -0.997774   0.150140  -2.873526  10.331987  -0.007658
     6  H    0.471432  -0.221099   0.095553   0.025651  -0.007658   0.378328
     7  H   -0.069175   0.336775  -0.020802  -0.016682   0.000543  -0.002076
     8  H    0.018476  -0.041260  -0.095722   0.376843  -0.064334   0.000010
     9  H   -0.014178   0.021303   0.082881  -0.156108   0.428585  -0.000070
    10  P   -0.925529  -0.796455   1.664575  -0.707124  -0.364466   0.001573
    11  C   -0.216122   1.495380  -2.092311   0.065656  -0.155120  -0.000006
    12  C    0.215483   7.244614  -2.165534  -5.563290   0.276797  -0.005205
    13  C    0.331520  -5.202299   1.845652   3.522661  -0.066562   0.004194
    14  C   -0.057126  -1.588170  -0.495831   1.210536   0.009257   0.002091
    15  H   -0.005111   0.051683   0.043972  -0.041313   0.000270  -0.000015
    16  C   -0.055673  -0.596375   0.884716   0.169608  -0.028773   0.000284
    17  H   -0.000384  -0.005847   0.007690   0.000690  -0.000235  -0.000000
    18  H   -0.002549   0.001277  -0.000230   0.001714  -0.000236  -0.000000
    19  H   -0.000183   0.001615  -0.001597  -0.000333   0.000004  -0.000000
    20  C    0.266693  -2.844228  -2.841658   4.334936  -0.270461   0.001481
    21  C   -0.054909   2.457984   1.797050  -4.089138   0.230542  -0.001244
    22  C    0.000380  -0.548773   0.806825   0.205784   0.116247   0.000112
    23  C   -0.054667   0.076369  -0.557215   0.433367   0.021549  -0.000201
    24  H   -0.000905  -0.007371  -0.014954   0.049700  -0.011518  -0.000000
    25  C   -0.039835  -0.734807  -0.469342   1.389631  -0.056366   0.000037
    26  H   -0.000179  -0.007267   0.005585   0.000238  -0.003445  -0.000000
    27  H    0.000037  -0.000271   0.000946   0.001029  -0.002276  -0.000000
    28  H    0.000002  -0.000206  -0.000523   0.000214  -0.000197  -0.000000
    29  O    0.023005   0.117877  -0.121590   0.063636  -0.012143  -0.000009
    30  C    0.357923   1.221666  -1.235436  -1.755652  -0.026782   0.003516
    31  C   -0.198832  -5.835579   2.219837   4.475601   0.262139   0.001789
    32  C    0.366470   5.112193  -3.449531  -2.753298   0.085113  -0.004502
    33  C    0.003397   0.304887  -0.120391  -0.288973  -0.157793   0.000325
    34  H    0.000817   0.012191   0.011867  -0.011856  -0.009903  -0.000000
    35  C   -0.146370   0.055468   0.105887   0.165645  -0.042111  -0.000742
    36  H   -0.003936   0.013990   0.001112  -0.006604   0.000368   0.000000
    37  H   -0.000243   0.001951   0.001897  -0.004136  -0.000046  -0.000000
    38  H   -0.000175  -0.001317   0.001995   0.000432  -0.000067  -0.000000
    39  C   -0.006892  -0.055976   0.098729   0.020536  -0.009917  -0.000004
    40  H    0.000162   0.007243   0.003231  -0.009395  -0.000223  -0.000000
    41  H   -0.000659  -0.011184   0.017452   0.004064  -0.000102   0.000000
    42  H    0.000033  -0.003722   0.001620   0.003301   0.000039  -0.000000
    43  C   -0.000980   0.183754   0.378691  -0.466884   0.018975  -0.000015
    44  H   -0.000005   0.000107   0.000356   0.000112   0.000552   0.000000
    45  C    0.037611   0.193020  -0.156459  -0.096577   0.017815  -0.000133
    46  H    0.000371  -0.000473   0.000042   0.000037   0.000001   0.000000
    47  N    0.413341  -0.277242   0.043504  -0.116465   0.398666  -0.052003
    48  N    0.018987  -0.021541  -0.022796   0.002293   0.008247  -0.000006
    49  H    0.000109  -0.000692   0.000512   0.000408   0.000051   0.000000
    50  H   -0.055760   0.053653  -0.007610   0.021054  -0.041094  -0.002369
               7          8          9         10         11         12
     1  C   -0.069175   0.018476  -0.014178  -0.925529  -0.216122   0.215483
     2  C    0.336775  -0.041260   0.021303  -0.796455   1.495380   7.244614
     3  C   -0.020802  -0.095722   0.082881   1.664575  -2.092311  -2.165534
     4  C   -0.016682   0.376843  -0.156108  -0.707124   0.065656  -5.563290
     5  C    0.000543  -0.064334   0.428585  -0.364466  -0.155120   0.276797
     6  H   -0.002076   0.000010  -0.000070   0.001573  -0.000006  -0.005205
     7  H    0.406699  -0.000109   0.000011   0.058833   0.084547  -0.008655
     8  H   -0.000109   0.408275  -0.001954   0.093348  -0.012623  -0.001575
     9  H    0.000011  -0.001954   0.377425   0.009432  -0.002275   0.001526
    10  P    0.058833   0.093348   0.009432  19.831269  -0.836096  -0.297314
    11  C    0.084547  -0.012623  -0.002275  -0.836096  22.625059  -1.869545
    12  C   -0.008655  -0.001575   0.001526  -0.297314  -1.869545  32.348814
    13  C   -0.037765   0.001978  -0.000407  -1.114655  -7.043462 -11.841666
    14  C   -0.015149   0.002421  -0.000107   1.042704  -1.206138 -10.069973
    15  H   -0.000458  -0.000058  -0.000003  -0.011127   0.137549   0.239716
    16  C    0.006066   0.000351   0.000010   0.317468  -2.461794  -2.364943
    17  H    0.000011   0.000000  -0.000000   0.013718  -0.145936  -0.033998
    18  H   -0.000012  -0.000000  -0.000000   0.005081   0.041100  -0.111799
    19  H   -0.000001  -0.000000  -0.000000   0.001353   0.062658   0.017429
    20  C   -0.004964   0.134387  -0.005534  -0.318888  -1.134857  -2.844224
    21  C   -0.003434  -0.023983   0.002704  -0.058860  -0.432000   3.406735
[...]
 -0.00000883,0.00001035,-0.00003920,-0.00001252,0.00002471,0.00002946,-
 0.00003098,0.00011884,0.00004071,0.00000870,-0.00002116,-0.00000250,0.
 00000662,-0.00001271,0.00001139,0.00001937,-0.00001298,-0.00002559,-0.
 00009962,-0.00001361,-0.00002459,-0.00001626,-0.00001855,-0.00000456,0
 .00000393,-0.00018643,0.00018549,-0.00000201,-0.00001557,-0.00000132,0
 .28676778,0.56038502,0.12064752,0.06680904,-0.22054308,0.02890995,0.00
 239838,-0.05358402,0.00565744,0.01279650,0.00098549,-0.02174199,-0.037
 21520,-0.01227206,-0.03532168,-0.09692097,-0.17292151,-0.00834721,-0.0
 0579016,0.01101380,0.00163178,-0.00484633,-0.00464682,0.00350088,-0.00
 273435,-0.00512144,0.01202798,0.01963717,0.01293620,-0.00121733,0.0029
 4413,0.00750315,0.00042231,-0.00032572,-0.00119100,0.00045543,-0.00050
 296,-0.00000382,-0.00001130,-0.00035730,0.00043508,-0.00016710,-0.0000
 4564,-0.00022520,0.00010650,0.00031401,-0.00048001,0.00035522,0.000071
 62,0.00003794,-0.00002842,-0.00002771,-0.00002550,0.00006767,-0.000044
 63,0.00002579,0.00008123,0.00003674,-0.00000686,0.00016785,-0.00039433
 ,-0.00110210,-0.00014690,0.00000128,-0.00025794,0.00032989,-0.00011047
 ,0.00025689,0.00013130,0.00012148,0.00001776,-0.00005427,0.00009865,-0
 .00001604,-0.00014702,-0.00013694,0.00008838,0.00002995,0.00002534,-0.
 00001660,-0.00001152,-0.00006260,0.00001924,-0.00005048,-0.00004715,-0
 .00000550,0.00014267,-0.00065761,-0.00161365,0.00066649,-0.00082183,-0
 .00197116,-0.00064961,0.00079737,-0.00030256,-0.00055809,0.00042883,-0
 .00010382,0.00017310,-0.00111550,0.00038663,0.00009124,-0.00004276,0.0
 0004457,0.00033189,-0.00011946,0.00026166,-0.00001042,-0.00007649,-0.0
 0007347,-0.00001496,0.00003419,-0.00003711,-0.00005282,0.00004473,-0.0
 0002077,-0.00011544,0.00045670,0.00013472,-0.00000583,-0.00008106,-0.0
 0003793,0.00002550,-0.00004046,0.00001570,0.00006686,-0.00007784,-0.00
 009040,-0.00017615,-0.00005607,-0.00005433,-0.00001744,-0.00003261,-0.
 00001033,0.00021325,0.00017026,-0.00016396,0.00005678,0.00002348,-0.00
 001852,-0.16168327,0.16575493,0.84507458,-0.00029068,0.00003066,0.0002
 8651,0.00019692,-0.00015547,-0.00023961,0.00018035,0.00060789,-0.00032
 782,-0.00004666,-0.00030410,0.00017336,0.00004000,-0.00030601,-0.00050
 521,-0.00001397,0.00002315,-0.00003479,0.00023620,-0.00001204,0.000096
 26,-0.00004110,0.00004029,0.00000137,0.00002328,-0.00004316,-0.0000201
 7,0.00072883,-0.00423894,0.00184395,0.00001981,0.00023466,-0.00029147,
 -0.00007930,0.00001258,0.00025124,0.00006075,-0.00002716,-0.00005215,-
 0.00011133,-0.00002956,-0.00003075,0.00002081,0.00000608,0.00000735,0.
 00004191,0.00000225,-0.00001363,0.00005762,0.00001645,-0.00008559,-0.0
 0003212,-0.00000450,-0.00001490,-0.00002324,-0.00000566,0.00000939,-0.
 00041504,-0.00013218,-0.00016109,0.00018447,0.00013174,0.00006875,0.00
 003993,0.00007067,-0.00003072,-0.00005131,0.00001862,-0.00004568,0.000
 00408,-0.00002347,0.00000052,0.00006820,0.00000535,-0.00001403,-0.0000
 1675,0.00006191,0.00007755,0.00000972,0.00003217,-0.00000114,0.0000183
 2,0.00001793,-0.00000343,-0.00110595,0.00324563,0.00230278,-0.05943114
 ,-0.03349004,0.02573477,0.06936025,-0.03232991,-0.00684951,-0.04136430
 ,0.08943633,-0.01726921,-0.20791967,-0.03336401,0.05014551,-0.00060413
 ,0.00440195,0.00105033,-0.34822401,-0.02203673,0.08387155,0.00136318,0
 .00422734,0.00084720,-0.01120128,-0.03445573,0.01567686,-0.01633956,0.
 00486592,0.00336629,0.00012485,-0.00030544,-0.00098007,-0.00000408,0.0
 0018899,0.00010859,-0.00014393,0.00028180,0.00011592,-0.00006086,0.000
 04389,0.00011728,0.00002665,0.00001801,0.00001098,0.00000227,0.0000113
 3,0.00000909,-0.00004844,0.00003007,-0.00007254,-0.00001741,0.00000705
 ,-0.00000192,0.00032600,0.00036680,-0.00006455,0.78049215,0.00030528,0
 .00004105,-0.00107911,-0.00001970,0.00025469,0.00100218,0.00121986,-0.
 00255536,0.00027389,0.00016945,0.00036466,0.00069837,-0.00029301,-0.00
 013486,-0.00058590,0.00001848,-0.00001303,0.00006093,0.00002397,-0.000
 02859,-0.00004771,0.00007989,-0.00005916,0.00000103,0.00002465,0.00001
 006,0.00007586,-0.00388012,0.00437094,0.00104602,-0.00005885,-0.000263
 28,-0.00009035,0.00010043,0.00003508,-0.00020968,0.00004572,0.00003274
 ,0.00010865,0.00007808,0.00001039,0.00003816,-0.00004729,-0.00000572,-
 0.00003017,0.00002767,0.00000604,-0.00000603,-0.00003663,-0.00003618,0
 .00006389,0.00003956,-0.00000384,0.00001569,0.00004284,0.00000330,-0.0
 0001142,0.00046358,-0.00020854,-0.00024926,-0.00022146,-0.00002384,-0.
 00023652,0.00010256,0.00009926,0.00015767,-0.00005678,-0.00012017,0.00
 007093,0.00002040,0.00002523,-0.00001754,0.00000715,0.00003948,-0.0000
 2815,0.00012370,0.00011409,0.00016080,-0.00002250,-0.00004831,0.000024
 74,-0.00003384,-0.00003834,-0.00001201,0.00099282,-0.00223062,-0.00228
 046,-0.03371556,-0.01165204,0.01180915,0.02333835,-0.06907057,0.020638
 94,0.03451370,0.02676011,-0.01651171,-0.10539337,-0.27562992,0.1001717
 9,0.00536239,-0.00263969,0.00273191,0.05001758,-0.15416638,0.01648835,
 0.00317502,-0.00445960,0.00365108,0.00183497,0.00409396,-0.00114131,-0
 .03142036,0.00839817,0.00674231,0.00023346,0.00092556,0.00048846,-0.00
 004836,-0.00011481,-0.00004832,0.00012506,-0.00018982,-0.00006272,0.00
 010550,-0.00017685,-0.00016689,0.00002002,-0.00010353,0.00006321,-0.00
 000952,-0.00002745,0.00000450,0.00006457,0.00000303,0.00003729,0.00002
 369,-0.00000788,0.00000017,-0.00031406,0.00013580,0.00092685,-0.108687
 17,0.82010531,0.00003298,-0.00006196,0.00024687,0.00002284,-0.00021393
 ,-0.00013767,-0.00049444,0.00089514,0.00009949,0.00008392,-0.00011209,
 -0.00033746,0.00013786,0.00010912,0.00034777,0.00000388,-0.00000729,-0
 .00000377,-0.00010053,0.00002333,-0.00002153,-0.00003532,0.00003444,-0
 .00000643,-0.00001812,0.00000810,-0.00002579,0.00086492,-0.00046309,-0
 .00153246,0.00006202,0.00000539,0.00011648,-0.00003421,-0.00000135,0.0
 0002184,-0.00003690,0.00001199,-0.00000351,0.00001884,0.00000047,-0.00
 002091,0.00001179,0.00000023,0.00000853,-0.00005064,-0.00002279,-0.000
 01145,-0.00000294,0.00002452,-0.00000449,-0.00000646,0.00000027,-0.000
 00193,-0.00000855,-0.00000170,-0.00000020,0.00001267,0.00011133,0.0001
 5666,0.00002295,-0.00007508,0.00004892,-0.00002509,-0.00003938,0.00000
 833,0.00003661,0.00004453,0.00000884,-0.00000249,-0.00000726,0.0000001
 0,-0.00004794,-0.00002121,0.00001716,-0.00006180,-0.00000299,-0.000121
 05,0.00000402,0.00000730,-0.00000734,0.00000877,0.00001215,0.00000630,
 0.00003293,-0.00020267,0.00005391,0.02532293,0.00952943,-0.02007593,-0
 .02426843,0.03668521,0.00526592,0.00307813,-0.03061069,0.02070814,0.07
 485816,0.08091264,-0.11414775,0.00073887,0.00283352,0.00714212,0.05870
 957,0.03694111,-0.09455093,0.00109924,0.00317869,0.00704394,0.00312522
 ,0.00881617,-0.00131002,0.01587195,-0.00331037,-0.00064306,-0.00012417
 ,-0.00017111,-0.00001905,0.00002443,-0.00000729,-0.00002067,-0.0000061
 0,0.00000408,0.00000324,-0.00001762,0.00002466,0.00001782,-0.00001803,
 0.00004789,-0.00004750,0.00000450,0.00000641,-0.00000794,-0.00000827,-
 0.00000900,0.00002720,-0.00000293,0.00000176,0.00000118,-0.00000076,-0
 .00016092,-0.00025744,-0.13940113,-0.20751851,0.23891655,0.00002842,-0
 .00000002,-0.00008566,-0.00001047,0.00002331,0.00007452,0.00010416,-0.
 00017170,0.00000534,0.00000658,0.00003950,0.00007416,-0.00002469,-0.00
 002953,-0.00007185,-0.00000107,0.00000213,0.00000182,-0.00000421,-0.00
 000144,0.,0.00000412,-0.00000067,-0.00000193,0.00000235,0.00000139,0.0
 0000654,-0.00046696,0.00052824,-0.00010559,-0.00001371,-0.00006381,0.0
 0000556,0.00002575,0.00000517,-0.00002549,0.00002083,-0.00000953,0.000
 03538,0.00000818,-0.00000033,0.00000483,-0.00000513,-0.00000137,-0.000
 00520,0.00000904,0.00000620,-0.00000329,-0.00000464,-0.00000446,-0.000
 00706,0.00000537,0.00000095,0.00000256,0.00000433,0.00000232,0.0000001
 8,0.00006618,-0.00001659,-0.00000677,-0.00002698,-0.00000627,-0.000032
 29,-0.00000104,0.00002674,0.00000551,-0.00000552,-0.00001270,0.0000125
 8,0.00000194,0.00000296,-0.00000103,0.00000342,0.00000444,0.00000180,0
 .00002096,0.00001251,0.00002368,-0.00000230,-0.00000648,0.00000236,-0.
 00000445,-0.00000490,-0.00000153,0.00017167,-0.00035018,-0.00031129,-0
 .00172125,-0.00102386,0.00071470,0.00022414,-0.00436117,0.00339393,-0.
 00455131,-0.00044726,0.00328531,0.01591133,-0.01755558,0.00162670,0.00
 065802,-0.00080181,0.00027042,-0.01365430,0.03000529,-0.00664081,-0.00
 020878,0.00118014,-0.00019658,0.00020043,-0.00077648,-0.00087931,0.000
 43383,-0.00049740,-0.00096394,0.00002000,0.00011538,0.00003137,-0.0000
 0713,-0.00001615,-0.00000798,0.00001506,-0.00002292,-0.00000438,0.0000
 1427,-0.00002669,-0.00002453,0.00000239,-0.00001330,0.00000547,-0.0000
 0102,-0.00000398,0.00000066,0.00000570,-0.00000035,0.00000098,0.000002
 31,-0.00000090,-0.00000085,-0.00002267,0.00002932,0.00008440,-0.166068
 47,0.16150226,-0.01937808,0.16882938,-0.00005965,-0.00001802,0.0001874
 9,0.00001357,-0.00008904,-0.00016936,-0.00018676,0.00048184,-0.0000642
 6,0.00000242,-0.00009184,-0.00012773,0.00006371,-0.00000225,0.00004993
 ,-0.00000316,0.00000474,-0.00001235,0.00001833,0.00000897,0.00001297,-
 0.00001942,0.00001880,-0.00000298,-0.00000270,-0.00000568,-0.00001421,
 0.00060090,-0.00117634,-0.00017808,0.00001782,0.00007864,-0.00002313,-
 0.00003326,-0.00001138,0.00005557,0.00000143,-0.00001259,-0.00001970,-
 0.00002074,0.00000084,-0.00000770,0.00001127,0.00000172,0.00000728,-0.
 00000311,0.00000178,-0.00000409,0.00001262,0.00000698,-0.00001410,-0.0
 0001060,0.00000051,-0.00000428,-0.00000875,-0.00000100,0.00000283,-0.0
 0010774,0.00001805,0.00000631,0.00005124,0.00002077,0.00004877,-0.0000
 0959,0.00000440,-0.00002180,0.00000117,0.00001833,-0.00002138,-0.00000
 390,-0.00000644,0.00000427,0.00000616,0.00000133,0.00000165,-0.0000214
 7,-0.00001434,-0.00001317,0.00000435,0.00001133,-0.00000408,0.00000592
 ,0.00000540,0.00000160,-0.00024264,0.00057775,0.00047955,-0.00116828,-
 0.00043201,-0.00006927,-0.00325524,-0.00000946,0.00331495,-0.00147293,
 0.00397440,0.00156344,0.01227953,-0.01910354,0.00334975,0.00066065,-0.
 00033383,0.00008956,0.00019040,0.00635970,-0.00213377,-0.00027705,0.00
 043297,0.00011244,-0.00040967,0.00060122,-0.00144953,-0.00090180,0.000
 40898,-0.00127197,0.00002586,-0.00014827,-0.00014905,0.00000418,0.0000
 3658,0.00002075,-0.00003040,0.00004939,0.00001510,-0.00001740,0.000024
 66,0.00003381,0.00000023,0.00001463,-0.00000375,0.00000205,0.00000540,
 0.00000005,-0.00001777,-0.00000267,-0.00001148,-0.00000598,0.00000254,
 0.00000019,0.00006685,0.00001346,-0.00014889,0.16150786,-0.34172537,0.
 06271725,-0.16725264,0.34998100,-0.00000701,-0.00002201,0.00002788,0.0
 0000620,-0.00003588,-0.00001243,-0.00000011,0.00020029,-0.00001559,0.0
 0002205,-0.00001340,-0.00001171,0.00002189,-0.00001497,-0.00002359,-0.
 00000833,0.00000723,-0.00000625,-0.00000990,0.00000077,0.00000469,-0.0
 0001378,0.00001141,-0.00000014,-0.00000088,-0.00000039,-0.00000404,-0.
 00032510,0.00000849,-0.00070143,-0.00000753,0.00000188,0.00000334,-0.0
 0000249,-0.00000137,-0.00002614,0.00000675,-0.00001745,0.00001092,0.00
 001226,-0.00000283,0.00000311,0.00000142,-0.00000162,0.00000096,-0.000
 00214,0.00000534,-0.00000400,-0.00000890,0.00000123,0.00000727,0.00000
 133,0.00000178,0.00000133,0.00000192,0.00000177,0.00000002,0.00006450,
 0.00000352,0.00002431,-0.00001979,-0.00001953,0.00000430,-0.00000003,0
 .00000263,0.00001648,0.00001019,0.00000607,0.00000154,-0.00000071,0.00
 000056,-0.00000040,-0.00000836,-0.00000617,0.00000661,-0.00000010,0.00
 000978,-0.00000722,-0.00000126,-0.00000230,0.00000005,-0.00000286,-0.0
 0000122,0.00000290,0.00015786,-0.00035546,-0.00023455,0.00023319,-0.00
 013033,-0.00099596,0.00298086,0.00377287,0.00504897,0.00382226,0.00109
 849,0.00574581,-0.00842719,0.01138222,-0.00149556,-0.00021074,0.000509
 60,0.00033362,0.00376355,-0.01027549,0.00273446,0.00032622,-0.00026923
 ,0.00047404,-0.00098958,-0.00133591,-0.00318199,-0.00086970,-0.0013354
 5,-0.00322541,0.00004734,0.00009213,-0.00001490,-0.00000741,-0.0000116
 4,-0.00000120,0.00000996,-0.00001033,0.00000028,0.00001667,-0.00003080
 ,-0.00002303,-0.00000581,-0.00000371,-0.00000671,-0.00000034,-0.000000
 17,-0.00000060,-0.00000286,-0.00000533,0.00000777,0.00000089,0.0000002
 4,0.00000060,0.00001101,0.00001859,-0.00001340,-0.01968320,0.06292192,
 -0.04699240,0.01910269,-0.06616211,0.04254221,-0.00064917,0.01038099,0
 .02179934,0.00111400,-0.00510183,0.00394471,-0.00186721,-0.00056347,-0
 .00015757,0.00228003,-0.00628430,-0.00025021,0.00533447,-0.00417296,-0
 .02064633,-0.00180049,0.00186593,-0.00099293,0.00026551,0.00023755,0.0
 0094530,0.00049660,-0.00038809,-0.00066911,-0.00194955,0.00189060,-0.0
 0113102,-0.00050858,0.00049482,0.00009258,-0.00000046,-0.00004915,0.00
 001420,0.00000434,0.00000373,0.00003942,-0.00001355,0.,-0.00001176,-0.
 00000527,-0.00002204,-0.00001965,0.00000866,0.00000361,0.00001438,0.00
 000037,0.00000951,0.00001129,-0.00000013,-0.00000095,-0.00000049,-0.00
 000498,0.00000246,0.00000132,-0.00000045,-0.00000021,-0.00000119,0.000
 03230,-0.00004265,-0.00000920,-0.00000710,-0.00004628,-0.00005252,0.00
 004987,0.00002356,-0.00000131,0.00002847,0.00001581,-0.00000536,-0.000
 00914,0.00000333,0.00000213,-0.00001568,-0.00001433,0.00002284,-0.0000
 0179,0.00000334,-0.00000108,0.00000018,-0.00000046,0.00000338,-0.00000
 160,-0.00000168,-0.00000308,0.00003794,-0.00006379,-0.00006523,0.00013
 022,-0.00004449,-0.00019393,-0.00006419,0.00006345,0.00000492,-0.00002
 008,0.00004038,0.00001994,0.00000108,-0.00007802,0.00003816,0.00001392
 ,-0.00000720,0.00000838,-0.00000717,0.00004263,0.00002328,-0.00000386,
 -0.00000805,-0.00001797,-0.00000267,0.00000206,-0.00001069,-0.00000424
 ,0.00000418,-0.00000110,0.00000346,0.00001329,-0.00000206,0.00000064,-
 0.00000406,-0.00000100,-0.00000025,-0.00000286,-0.00000209,0.00000415,
 -0.00000488,-0.00000441,-0.00001593,0.00000361,-0.00001047,-0.00000188
 ,-0.00000232,-0.00000032,0.00000163,-0.00000457,-0.00000268,-0.0000001
 4,0.00000148,0.00000149,-0.05828123,-0.00541589,0.05421876,0.00002819,
 0.00005591,-0.00003905,0.00000594,-0.00000586,-0.00000490,0.05539481,0
 .00037996,0.01010773,0.01913286,-0.00538575,0.00165037,0.00229992,-0.0
 0048347,-0.00175371,0.00068142,-0.00606740,-0.00080967,-0.00202248,0.0
 0581580,-0.00651861,-0.02676060,0.00173628,-0.00109566,0.00104882,-0.0
 0027626,0.00054036,0.00077497,0.00009671,0.00008574,-0.00107437,0.0020
 1241,-0.00111238,0.00099821,0.00047138,-0.00051514,-0.00044129,-0.0000
 3674,0.00006505,0.00002799,-0.00002992,0.00003089,-0.00001170,0.000046
 99,0.00003299,-0.00002829,0.00002961,0.00003076,0.00002485,-0.00002349
 ,-0.00002087,0.00001848,-0.00003474,-0.00000603,-0.00001563,0.00000094
 ,0.00000049,0.00000187,-0.00000011,0.00000191,-0.00000290,-0.00000366,
 -0.00000222,0.00000237,-0.00002208,-0.00000381,0.00004256,0.00000799,0
 .00003413,-0.00000620,0.00001145,0.00002327,0.00000258,0.00000633,0.00
 001075,-0.00000936,-0.00000237,-0.00000654,-0.00000376,0.00001606,-0.0
 0000489,-0.00000807,-0.00000306,-0.00000182,0.00000241,0.00000074,-0.0
 0000119,-0.00000268,0.00000304,0.00000244,0.00000013,-0.00003960,0.000
 07912,0.00013025,-0.00012634,0.00008782,0.00022917,0.00007322,-0.00008
 111,0.00001203,0.00004696,-0.00006907,0.00001011,-0.00000888,0.0001119
 6,-0.00005309,-0.00000577,0.00000450,-0.00000191,-0.00003798,-0.000000
 29,-0.00002948,0.00000335,0.00001082,0.00001406,0.00000293,-0.00000129
 ,0.00000779,0.00000627,-0.00000468,0.00000297,0.00000469,-0.00003331,-
 0.00000924,0.00000229,0.00000698,0.00000364,-0.00000123,0.00000389,0.0
 0000097,-0.00000643,0.00000957,0.00000809,-0.00000656,0.00000372,0.000
 00656,0.00000073,0.00000099,-0.00000046,-0.00001274,-0.00001668,0.0000
 2080,-0.00000443,-0.00000168,0.00000057,-0.00532335,-0.09953226,-0.121
 05866,0.00000589,-0.00009522,0.00003355,-0.00000778,0.00001693,0.00000
 628,0.00716816,0.09873494,0.00199510,-0.00461063,-0.01401374,0.0033058
 9,0.00157912,0.00215771,-0.00006907,0.00082724,0.00041440,0.00026836,-
 0.00132288,0.00408019,-0.00090364,-0.00300044,-0.00360523,-0.00118281,
 0.00075348,0.00064796,-0.00007225,-0.00041723,-0.00019218,0.00025844,0
 .00010100,0.00011558,-0.00089978,0.00127456,0.00057354,0.00002261,-0.0
 0028345,-0.00174808,-0.00005945,0.00004380,0.00029163,-0.00004356,0.00
 003453,-0.00002491,-0.00007051,0.00004124,-0.00008637,0.00000483,0.000
 00045,0.00003970,0.00002227,-0.00004154,0.00006511,-0.00004597,-0.0000
 2363,0.00001930,0.00000652,0.00000784,0.00000570,-0.00001060,0.0000046
 9,-0.00000546,-0.00001831,-0.00000573,0.00000160,-0.00001386,0.0000483
 7,0.00021829,0.00001580,-0.00002250,0.00000633,-0.00003442,0.00004821,
 -0.00004365,-0.00000540,-0.00001049,0.00000214,0.00001441,-0.00002298,
 0.00000538,0.00002957,0.00000933,-0.00000609,-0.00000720,-0.00000395,0
 .00000392,0.00000172,0.00001165,-0.00000417,0.00001169,0.00000940,-0.0
 0000078,-0.00000672,0.00010350,0.00035512,-0.00006154,0.00012481,0.000
 26028,0.00009463,-0.00011700,0.00003578,0.00009580,-0.00008580,0.00001
 855,-0.00002631,0.00016686,-0.00005570,-0.00001941,0.00000208,-0.00000
 281,-0.00006440,0.00002772,-0.00003067,-0.00000048,0.00000846,0.000006
 66,-0.00000074,-0.00000573,0.00000106,0.00000886,-0.00000680,0.0000013
 0,0.00003157,-0.00009755,-0.00003590,0.00000087,0.00001732,0.00000760,
 -0.00000735,0.00000784,-0.00000836,-0.00001368,0.00001455,0.00001786,0
 .00002197,0.00001604,0.00000362,0.00000334,0.00000688,0.00000206,-0.00
 003096,-0.00001594,0.00001231,-0.00001055,-0.00000221,0.00000365,0.054
 35894,-0.12107419,-0.40204922,0.00002094,-0.00014095,0.00004135,-0.000
 01805,0.00002674,-0.00000484,-0.05689711,0.12599389,0.41250247\\-0.000
 02725,0.00000647,0.00002580,0.00002814,-0.00004031,-0.00000488,0.00004
 473,0.00003727,0.00011052,-0.00002812,-0.00004509,-0.00005614,-0.00001
 244,-0.00000481,0.00001574,0.00001903,-0.00001309,-0.00000444,0.000001
 89,-0.00002210,-0.00001201,-0.00001930,-0.00000318,0.00001103,-0.00000
 011,-0.00000613,-0.00000218,-0.00011368,0.00014759,-0.00050671,0.00008
 876,-0.00000582,0.00004873,-0.00007721,-0.00001477,-0.00003066,-0.0000
 3504,0.00003320,0.00001938,0.00001554,-0.00001807,-0.00001033,0.000078
 86,0.00002669,-0.00003752,-0.00001869,-0.00000509,-0.00000609,-0.00000
 097,-0.00001237,-0.00001826,-0.00001148,-0.00000585,0.00000834,-0.0000
 0314,-0.00000582,-0.00000155,0.00000163,-0.00009914,0.00005672,-0.0000
 8626,-0.00011630,-0.00001522,0.00003551,0.00003109,0.00003910,0.000011
 00,0.00001830,-0.00000934,0.00004505,0.00003275,0.00001273,-0.00000619
 ,-0.00002993,-0.00000270,-0.00002945,0.00001127,0.00000533,-0.00000762
 ,-0.00000132,-0.00000585,-0.00000411,0.00001763,-0.00001161,-0.0001189
 9,-0.00001169,0.00034758,0.00009621,0.00003935,0.00005391,0.00001914,-
 0.00000657,0.00000444,0.00004233,-0.00010544,0.00003111,0.00000196,0.0
 0002473,-0.00002426,0.00001201,-0.00000716,-0.00005542,-0.00000422,0.0
 0001288,0.00001780,-0.00001165,0.00001301,-0.00000931,0.00000434,0.000
 01204,0.00001174,0.00001102,0.00001116,-0.00000899,0.00010274,0.000031
 44,-0.00000923,0.00000319,0.00004432,-0.00003732,-0.00002650,0.0000008
 1,-0.00000801,0.00002763,-0.00001347,0.00000336,-0.00004007,0.00000837
 ,-0.00000594,0.00000199,0.00000408,-0.00001649,0.00000002,-0.00000494,
 0.00002816,-0.00000114,-0.00001147,-0.00000316,-0.00002535,0.00001977,
 0.00001763,-0.00000862,0.00001462,0.00001084,0.00001019,0.00002197,0.0
 0001832,0.00001467,-0.00001089,0.00001531\\\@


 THERE'S A SUCKER BORN EVERY MINUTE

              -- PHINEAS TAYLOR (P.T.) BARNUM
 Job cpu time:       1 days  9 hours 35 minutes 51.7 seconds.
 Elapsed time:       0 days  1 hours 24 minutes 10.9 seconds.
 File lengths (MBytes):  RWF=   2320 Int=      0 D2E=      0 Chk=     56 Scr=     16
 Normal termination of Gaussian 16 at Wed Mar 14 11:18:42 2018.
