Job Start Time: Wed Mar 14 08:24:12 MDT 2018
SLURM Job ID: 689058
SLURM Job Name: Int3_Phax_SMD
 Entering Gaussian System, Link 0=/projects/user/g16/g16
 Initial command:
 /projects/user/g16/l1.exe "/gpfs/summit/scratch/user/689058/Gau-78077.inp" -scrdir="/gpfs/summit/scratch/user/689058/"
 Entering Link 1 = /projects/user/g16/l1.exe PID=     78078.
  
 Copyright (c) 1988,1990,1992,1993,1995,1998,2003,2009,2016,
            Gaussian, Inc.  All Rights Reserved.
  
 This is part of the Gaussian(R) 16 program.  It is based on
 the Gaussian(R) 09 system (copyright 2009, Gaussian, Inc.),
 the Gaussian(R) 03 system (copyright 2003, Gaussian, Inc.),
 the Gaussian(R) 98 system (copyright 1998, Gaussian, Inc.),
 the Gaussian(R) 94 system (copyright 1995, Gaussian, Inc.),
 the Gaussian 92(TM) system (copyright 1992, Gaussian, Inc.),
 the Gaussian 90(TM) system (copyright 1990, Gaussian, Inc.),
 the Gaussian 88(TM) system (copyright 1988, Gaussian, Inc.),
 the Gaussian 86(TM) system (copyright 1986, Carnegie Mellon
 University), and the Gaussian 82(TM) system (copyright 1983,
 Carnegie Mellon University). Gaussian is a federally registered
 trademark of Gaussian, Inc.
  
 This software contains proprietary and confidential information,
 including trade secrets, belonging to Gaussian, Inc.
  
 This software is provided under written license and may be
 used, copied, transmitted, or stored only in accord with that
 written license.
  
 The following legend is applicable only to US Government
 contracts under FAR:
  
                    RESTRICTED RIGHTS LEGEND
  
 Use, reproduction and disclosure by the US Government is
 subject to restrictions as set forth in subparagraphs (a)
 and (c) of the Commercial Computer Software - Restricted
 Rights clause in FAR 52.227-19.
  
 Gaussian, Inc.
 340 Quinnipiac St., Bldg. 40, Wallingford CT 06492
  
  
 ---------------------------------------------------------------
 Warning -- This program may not be used in any manner that
 competes with the business of Gaussian, Inc. or will provide
 assistance to any competitor of Gaussian, Inc.  The licensee
 of this program is prohibited from giving any competitor of
 Gaussian, Inc. access to this program.  By using this program,
 the user acknowledges that Gaussian, Inc. is engaged in the
 business of creating and licensing software in the field of
 computational chemistry and represents and warrants to the
 licensee that it is not a competitor of Gaussian, Inc. and that
 it will not use this program in any manner prohibited above.
 ---------------------------------------------------------------
  

 Cite this work as:
 Gaussian 16, Revision A.03,
 M. J. Frisch, G. W. Trucks, H. B. Schlegel, G. E. Scuseria, 
 M. A. Robb, J. R. Cheeseman, G. Scalmani, V. Barone, 
 G. A. Petersson, H. Nakatsuji, X. Li, M. Caricato, A. V. Marenich, 
 J. Bloino, B. G. Janesko, R. Gomperts, B. Mennucci, H. P. Hratchian, 
 J. V. Ortiz, A. F. Izmaylov, J. L. Sonnenberg, D. Williams-Young, 
 F. Ding, F. Lipparini, F. Egidi, J. Goings, B. Peng, A. Petrone, 
 T. Henderson, D. Ranasinghe, V. G. Zakrzewski, J. Gao, N. Rega, 
 G. Zheng, W. Liang, M. Hada, M. Ehara, K. Toyota, R. Fukuda, 
 J. Hasegawa, M. Ishida, T. Nakajima, Y. Honda, O. Kitao, H. Nakai, 
 T. Vreven, K. Throssell, J. A. Montgomery, Jr., J. E. Peralta, 
 F. Ogliaro, M. J. Bearpark, J. J. Heyd, E. N. Brothers, K. N. Kudin, 
 V. N. Staroverov, T. A. Keith, R. Kobayashi, J. Normand, 
 K. Raghavachari, A. P. Rendell, J. C. Burant, S. S. Iyengar, 
 J. Tomasi, M. Cossi, J. M. Millam, M. Klene, C. Adamo, R. Cammi, 
 J. W. Ochterski, R. L. Martin, K. Morokuma, O. Farkas, 
 J. B. Foresman, and D. J. Fox, Gaussian, Inc., Wallingford CT, 2016.
 
 ******************************************
 Gaussian 16:  ES64L-G16RevA.03 25-Dec-2016
                14-Mar-2018 
 ******************************************
 %mem=98GB
 %nprocshared=24
 Will use up to   24 processors via shared memory.
 %chk=Int3_SNAsdrdh.chk
 ----------------------------------------------------------------------
 # wb97xd/6-31+g(d) opt=(maxcycles=200) scrf=(solvent=ethanol,smd) freq
 =noraman geom=connectivity
 ----------------------------------------------------------------------
 1/6=200,18=20,19=15,26=3,38=1,57=2/1,3;
 2/9=110,12=2,17=6,18=5,40=1/2;
 3/5=1,6=6,7=11,11=2,25=1,30=1,70=32201,71=1,72=4,74=-58/1,2,3;
 4//1;
 5/5=2,38=5,53=4/2;
 6/7=2,8=2,9=2,10=2,28=1/1;
 7//1,2,3,16;
 1/6=200,18=20,19=15,26=3/3(2);
 2/9=110/2;
 99//99;
 2/9=110/2;
 3/5=1,6=6,7=11,11=2,25=1,30=1,70=32205,71=1,72=4,74=-58/1,2,3;
 4/5=5,16=3,69=1/1;
 5/5=2,38=5,53=4/2;
 7//1,2,3,16;
 1/6=200,18=20,19=15,26=3/3(-5);
 2/9=110/2;
 6/7=2,8=2,9=2,10=2,19=2,28=1/1;
 99/9=1/99;
 ----------------------
 Int3_Phax_wB97XD_631+d
 ----------------------
 Symbolic Z-matrix:
 Charge =  2 Multiplicity = 1
 C                     0.19679   4.03111   0.5143 
 C                     0.20787   2.81363  -0.16207 
 C                    -0.00657   1.61653   0.5339 
 C                    -0.22623   1.65649   1.91648 
 C                    -0.23167   2.87679   2.58864 
 H                     0.36387   4.95262  -0.03453 
 H                     0.40392   2.80614  -1.23036 
 H                    -0.39699   0.74278   2.47826 
 H                    -0.39855   2.89705   3.6611 
 P                    -0.0062    0.06484  -0.41778 
 C                    -1.97056  -0.13217  -0.55421 
 C                    -2.54101  -0.97358  -1.52824 
 C                    -2.85825   0.48742   0.33648 
 C                    -3.90135  -1.18247  -1.58375 
 H                    -1.92224  -1.47785  -2.2641 
 C                    -4.21834   0.26312   0.25415 
 H                    -2.50583   1.16584   1.10475 
 H                    -4.38527  -1.82346  -2.31144 
 H                    -4.94288   0.72169   0.91704 
 C                     0.07387  -1.42246   0.6961 
 C                    -0.6551   -2.60052   0.50369 
 C                     0.99947  -1.37594   1.75357 
 C                    -0.47628  -3.69583   1.34867 
 H                    -1.36262  -2.70036  -0.31039 
 C                     1.14804  -2.45321   2.61808 
 H                     1.60544  -0.49004   1.92241 
 C                     0.41311  -3.62115   2.41452 
 H                    -1.04024  -4.60616   1.17119 
 H                     1.84508  -2.38417   3.4474 
 H                     0.53935  -4.46826   3.08113 
 C                    -0.0228    4.06442   1.88994 
 H                    -0.02814   5.01337   2.41677 
 O                     0.07284   0.32592  -2.05601 
 C                     1.9332   -0.09158  -0.69652 
 C                     2.87287   0.87062  -0.30303 
 C                     2.42325  -1.24162  -1.34106 
 C                     4.21734   0.68277  -0.55553 
 H                     2.5738    1.77767   0.21038 
 C                     3.76756  -1.39463  -1.58532 
 H                     1.75478  -2.0367   -1.65498 
 H                     4.98569   1.39229  -0.27107 
 H                     4.19736  -2.25529  -2.08381 
 N                     4.62771  -0.43175  -1.1881 
 C                    -0.8244    1.08482  -2.88077 
 H                    -0.20001   1.75959  -3.46909 
 H                    -1.36146   0.41477  -3.55546 
 H                    -1.53672   1.67206  -2.29469 
 N                    -4.70162  -0.56204  -0.69323 
 H                     5.61937  -0.55513  -1.37091 
 H                    -5.70492  -0.71722  -0.7437 
 
 Add virtual bond connecting atoms C34        and P10        Dist= 3.71D+00.
 Add virtual bond connecting atoms C11        and P10        Dist= 3.74D+00.

 GradGradGradGradGradGradGradGradGradGradGradGradGradGradGradGradGradGrad
 Berny optimization.
 Initialization pass.
                           ----------------------------
                           !    Initial Parameters    !
                           ! (Angstroms and Degrees)  !
 --------------------------                            --------------------------
 ! Name  Definition              Value          Derivative Info.                !
 --------------------------------------------------------------------------------
 ! R1    R(1,2)                  1.3928         estimate D2E/DX2                !
 ! R2    R(1,6)                  1.0855         estimate D2E/DX2                !
 ! R3    R(1,31)                 1.3935         estimate D2E/DX2                !
 ! R4    R(2,3)                  1.4012         estimate D2E/DX2                !
 ! R5    R(2,7)                  1.0862         estimate D2E/DX2                !
 ! R6    R(3,4)                  1.4005         estimate D2E/DX2                !
 ! R7    R(3,10)                 1.8203         estimate D2E/DX2                !
 ! R8    R(4,5)                  1.3932         estimate D2E/DX2                !
 ! R9    R(4,8)                  1.0861         estimate D2E/DX2                !
 ! R10   R(5,9)                  1.0856         estimate D2E/DX2                !
 ! R11   R(5,31)                 1.3937         estimate D2E/DX2                !
 ! R12   R(10,11)                1.9789         estimate D2E/DX2                !
 ! R13   R(10,20)                1.8599         estimate D2E/DX2                !
 ! R14   R(10,33)                1.6608         estimate D2E/DX2                !
 ! R15   R(10,34)                1.9656         estimate D2E/DX2                !
 ! R16   R(11,12)                1.4079         estimate D2E/DX2                !
 ! R17   R(11,13)                1.4019         estimate D2E/DX2                !
 ! R18   R(12,14)                1.3774         estimate D2E/DX2                !
 ! R19   R(12,15)                1.0857         estimate D2E/DX2                !
 ! R20   R(13,16)                1.3809         estimate D2E/DX2                !
 ! R21   R(13,17)                1.0838         estimate D2E/DX2                !
 ! R22   R(14,18)                1.0838         estimate D2E/DX2                !
 ! R23   R(14,48)                1.3485         estimate D2E/DX2                !
 ! R24   R(16,19)                1.0838         estimate D2E/DX2                !
 ! R25   R(16,48)                1.3461         estimate D2E/DX2                !
 ! R26   R(20,21)                1.3987         estimate D2E/DX2                !
 ! R27   R(20,22)                1.4061         estimate D2E/DX2                !
 ! R28   R(21,23)                1.3949         estimate D2E/DX2                !
 ! R29   R(21,24)                1.0832         estimate D2E/DX2                !
 ! R30   R(22,25)                1.3892         estimate D2E/DX2                !
 ! R31   R(22,26)                1.0865         estimate D2E/DX2                !
 ! R32   R(23,27)                1.3902         estimate D2E/DX2                !
 ! R33   R(23,28)                1.0855         estimate D2E/DX2                !
 ! R34   R(25,27)                1.3949         estimate D2E/DX2                !
 ! R35   R(25,29)                1.0855         estimate D2E/DX2                !
 ! R36   R(27,30)                1.0853         estimate D2E/DX2                !
 ! R37   R(31,32)                1.0854         estimate D2E/DX2                !
 ! R38   R(33,44)                1.4357         estimate D2E/DX2                !
 ! R39   R(34,35)                1.4013         estimate D2E/DX2                !
 ! R40   R(34,36)                1.4065         estimate D2E/DX2                !
 ! R41   R(35,37)                1.3808         estimate D2E/DX2                !
 ! R42   R(35,38)                1.0843         estimate D2E/DX2                !
 ! R43   R(36,39)                1.3749         estimate D2E/DX2                !
 ! R44   R(36,40)                1.0852         estimate D2E/DX2                !
 ! R45   R(37,41)                1.0838         estimate D2E/DX2                !
 ! R46   R(37,43)                1.3456         estimate D2E/DX2                !
 ! R47   R(39,42)                1.0835         estimate D2E/DX2                !
 ! R48   R(39,43)                1.3508         estimate D2E/DX2                !
 ! R49   R(43,49)                1.0159         estimate D2E/DX2                !
 ! R50   R(44,45)                1.0915         estimate D2E/DX2                !
 ! R51   R(44,46)                1.0921         estimate D2E/DX2                !
 ! R52   R(44,47)                1.0935         estimate D2E/DX2                !
 ! R53   R(48,50)                1.0165         estimate D2E/DX2                !
 ! A1    A(2,1,6)              119.6909         estimate D2E/DX2                !
 ! A2    A(2,1,31)             120.1038         estimate D2E/DX2                !
 ! A3    A(6,1,31)             120.2049         estimate D2E/DX2                !
 ! A4    A(1,2,3)              120.2899         estimate D2E/DX2                !
 ! A5    A(1,2,7)              119.0191         estimate D2E/DX2                !
 ! A6    A(3,2,7)              120.6804         estimate D2E/DX2                !
 ! A7    A(2,3,4)              119.3385         estimate D2E/DX2                !
 ! A8    A(2,3,10)             117.9411         estimate D2E/DX2                !
 ! A9    A(4,3,10)             122.7162         estimate D2E/DX2                !
 ! A10   A(3,4,5)              120.1252         estimate D2E/DX2                !
 ! A11   A(3,4,8)              120.75           estimate D2E/DX2                !
 ! A12   A(5,4,8)              119.1246         estimate D2E/DX2                !
 ! A13   A(4,5,9)              119.5768         estimate D2E/DX2                !
 ! A14   A(4,5,31)             120.2624         estimate D2E/DX2                !
 ! A15   A(9,5,31)             120.1608         estimate D2E/DX2                !
 ! A16   A(3,10,11)             96.9328         estimate D2E/DX2                !
 ! A17   A(3,10,20)            111.6278         estimate D2E/DX2                !
 ! A18   A(3,10,33)            112.4401         estimate D2E/DX2                !
 ! A19   A(3,10,34)             98.174          estimate D2E/DX2                !
 ! A20   A(11,10,20)            90.2529         estimate D2E/DX2                !
 ! A21   A(11,10,33)            89.7068         estimate D2E/DX2                !
 ! A22   A(11,10,34)           164.0974         estimate D2E/DX2                !
 ! A23   A(20,10,33)           135.5958         estimate D2E/DX2                !
 ! A24   A(20,10,34)            88.7862         estimate D2E/DX2                !
 ! A25   A(33,10,34)            79.9602         estimate D2E/DX2                !
 ! A26   A(10,11,12)           120.6238         estimate D2E/DX2                !
 ! A27   A(10,11,13)           122.7351         estimate D2E/DX2                !
 ! A28   A(12,11,13)           116.5607         estimate D2E/DX2                !
 ! A29   A(11,12,14)           121.2438         estimate D2E/DX2                !
 ! A30   A(11,12,15)           121.0369         estimate D2E/DX2                !
 ! A31   A(14,12,15)           117.719          estimate D2E/DX2                !
 ! A32   A(11,13,16)           120.9305         estimate D2E/DX2                !
 ! A33   A(11,13,17)           121.4077         estimate D2E/DX2                !
 ! A34   A(16,13,17)           117.6583         estimate D2E/DX2                !
 ! A35   A(12,14,18)           123.8992         estimate D2E/DX2                !
 ! A36   A(12,14,48)           119.3222         estimate D2E/DX2                !
 ! A37   A(18,14,48)           116.7784         estimate D2E/DX2                !
 ! A38   A(13,16,19)           123.5892         estimate D2E/DX2                !
 ! A39   A(13,16,48)           119.6792         estimate D2E/DX2                !
 ! A40   A(19,16,48)           116.7312         estimate D2E/DX2                !
 ! A41   A(10,20,21)           124.661          estimate D2E/DX2                !
 ! A42   A(10,20,22)           116.8904         estimate D2E/DX2                !
 ! A43   A(21,20,22)           118.3207         estimate D2E/DX2                !
 ! A44   A(20,21,23)           120.7463         estimate D2E/DX2                !
 ! A45   A(20,21,24)           121.4305         estimate D2E/DX2                !
 ! A46   A(23,21,24)           117.8165         estimate D2E/DX2                !
 ! A47   A(20,22,25)           120.8469         estimate D2E/DX2                !
 ! A48   A(20,22,26)           120.7282         estimate D2E/DX2                !
 ! A49   A(25,22,26)           118.419          estimate D2E/DX2                !
 ! A50   A(21,23,27)           120.2839         estimate D2E/DX2                !
 ! A51   A(21,23,28)           119.5304         estimate D2E/DX2                !
 ! A52   A(27,23,28)           120.185          estimate D2E/DX2                !
 ! A53   A(22,25,27)           120.1411         estimate D2E/DX2                !
 ! A54   A(22,25,29)           119.6544         estimate D2E/DX2                !
 ! A55   A(27,25,29)           120.2024         estimate D2E/DX2                !
 ! A56   A(23,27,25)           119.5999         estimate D2E/DX2                !
 ! A57   A(23,27,30)           120.2252         estimate D2E/DX2                !
 ! A58   A(25,27,30)           120.174          estimate D2E/DX2                !
 ! A59   A(1,31,5)             119.8793         estimate D2E/DX2                !
 ! A60   A(1,31,32)            120.0564         estimate D2E/DX2                !
 ! A61   A(5,31,32)            120.064          estimate D2E/DX2                !
 ! A62   A(10,33,44)           128.318          estimate D2E/DX2                !
 ! A63   A(10,34,35)           124.5536         estimate D2E/DX2                !
 ! A64   A(10,34,36)           118.2841         estimate D2E/DX2                !
 ! A65   A(35,34,36)           117.1614         estimate D2E/DX2                !
 ! A66   A(34,35,37)           120.541          estimate D2E/DX2                !
 ! A67   A(34,35,38)           121.4927         estimate D2E/DX2                !
 ! A68   A(37,35,38)           117.9655         estimate D2E/DX2                !
 ! A69   A(34,36,39)           120.8706         estimate D2E/DX2                !
 ! A70   A(34,36,40)           121.1339         estimate D2E/DX2                !
 ! A71   A(39,36,40)           117.9945         estimate D2E/DX2                !
 ! A72   A(35,37,41)           123.5874         estimate D2E/DX2                !
 ! A73   A(35,37,43)           119.708          estimate D2E/DX2                !
 ! A74   A(41,37,43)           116.7046         estimate D2E/DX2                !
 ! A75   A(36,39,42)           123.9184         estimate D2E/DX2                !
 ! A76   A(36,39,43)           119.4081         estimate D2E/DX2                !
 ! A77   A(42,39,43)           116.6733         estimate D2E/DX2                !
 ! A78   A(37,43,39)           122.305          estimate D2E/DX2                !
 ! A79   A(37,43,49)           118.8731         estimate D2E/DX2                !
 ! A80   A(39,43,49)           118.8215         estimate D2E/DX2                !
 ! A81   A(33,44,45)           106.1962         estimate D2E/DX2                !
 ! A82   A(33,44,46)           109.7507         estimate D2E/DX2                !
 ! A83   A(33,44,47)           112.5245         estimate D2E/DX2                !
 ! A84   A(45,44,46)           109.126          estimate D2E/DX2                !
 ! A85   A(45,44,47)           109.2414         estimate D2E/DX2                !
 ! A86   A(46,44,47)           109.8929         estimate D2E/DX2                !
 ! A87   A(14,48,16)           122.2593         estimate D2E/DX2                !
 ! A88   A(14,48,50)           118.864          estimate D2E/DX2                !
 ! A89   A(16,48,50)           118.875          estimate D2E/DX2                !
 ! D1    D(6,1,2,3)           -179.9903         estimate D2E/DX2                !
 ! D2    D(6,1,2,7)              1.1841         estimate D2E/DX2                !
 ! D3    D(31,1,2,3)             0.253          estimate D2E/DX2                !
 ! D4    D(31,1,2,7)          -178.5726         estimate D2E/DX2                !
 ! D5    D(2,1,31,5)            -0.0086         estimate D2E/DX2                !
 ! D6    D(2,1,31,32)          179.8057         estimate D2E/DX2                !
 ! D7    D(6,1,31,5)          -179.7641         estimate D2E/DX2                !
 ! D8    D(6,1,31,32)            0.0502         estimate D2E/DX2                !
 ! D9    D(1,2,3,4)             -0.2739         estimate D2E/DX2                !
 ! D10   D(1,2,3,10)           178.9983         estimate D2E/DX2                !
 ! D11   D(7,2,3,4)            178.532          estimate D2E/DX2                !
 ! D12   D(7,2,3,10)            -2.1957         estimate D2E/DX2                !
 ! D13   D(2,3,4,5)              0.0523         estimate D2E/DX2                !
 ! D14   D(2,3,4,8)            179.8704         estimate D2E/DX2                !
 ! D15   D(10,3,4,5)          -179.1835         estimate D2E/DX2                !
 ! D16   D(10,3,4,8)             0.6346         estimate D2E/DX2                !
 ! D17   D(2,3,10,11)          -99.5942         estimate D2E/DX2                !
 ! D18   D(2,3,10,20)          167.368          estimate D2E/DX2                !
 ! D19   D(2,3,10,33)           -7.0357         estimate D2E/DX2                !
 ! D20   D(2,3,10,34)           75.4236         estimate D2E/DX2                !
 ! D21   D(4,3,10,11)           79.6517         estimate D2E/DX2                !
 ! D22   D(4,3,10,20)          -13.386          estimate D2E/DX2                !
 ! D23   D(4,3,10,33)          172.2102         estimate D2E/DX2                !
 ! D24   D(4,3,10,34)         -105.3304         estimate D2E/DX2                !
 ! D25   D(3,4,5,9)           -179.7365         estimate D2E/DX2                !
 ! D26   D(3,4,5,31)             0.1908         estimate D2E/DX2                !
 ! D27   D(8,4,5,9)              0.4424         estimate D2E/DX2                !
 ! D28   D(8,4,5,31)          -179.6302         estimate D2E/DX2                !
 ! D29   D(4,5,31,1)            -0.2133         estimate D2E/DX2                !
 ! D30   D(4,5,31,32)          179.9724         estimate D2E/DX2                !
 ! D31   D(9,5,31,1)           179.7136         estimate D2E/DX2                !
 ! D32   D(9,5,31,32)           -0.1007         estimate D2E/DX2                !
 ! D33   D(3,10,11,12)         161.3946         estimate D2E/DX2                !
 ! D34   D(3,10,11,13)         -21.9786         estimate D2E/DX2                !
 ! D35   D(20,10,11,12)        -86.7768         estimate D2E/DX2                !
 ! D36   D(20,10,11,13)         89.85           estimate D2E/DX2                !
 ! D37   D(33,10,11,12)         48.8185         estimate D2E/DX2                !
 ! D38   D(33,10,11,13)       -134.5547         estimate D2E/DX2                !
 ! D39   D(34,10,11,12)         -0.3213         estimate D2E/DX2                !
 ! D40   D(34,10,11,13)        176.3055         estimate D2E/DX2                !
 ! D41   D(3,10,20,21)         139.3587         estimate D2E/DX2                !
 ! D42   D(3,10,20,22)         -44.8333         estimate D2E/DX2                !
 ! D43   D(11,10,20,21)         41.7968         estimate D2E/DX2                !
 ! D44   D(11,10,20,22)       -142.3953         estimate D2E/DX2                !
 ! D45   D(33,10,20,21)        -48.0424         estimate D2E/DX2                !
 ! D46   D(33,10,20,22)        127.7656         estimate D2E/DX2                !
 ! D47   D(34,10,20,21)       -122.3282         estimate D2E/DX2                !
 ! D48   D(34,10,20,22)         53.4797         estimate D2E/DX2                !
 ! D49   D(3,10,33,44)         -57.7405         estimate D2E/DX2                !
 ! D50   D(11,10,33,44)         39.6414         estimate D2E/DX2                !
 ! D51   D(20,10,33,44)        129.7034         estimate D2E/DX2                !
 ! D52   D(34,10,33,44)       -152.5075         estimate D2E/DX2                !
 ! D53   D(3,10,34,35)          -4.5624         estimate D2E/DX2                !
 ! D54   D(3,10,34,36)         175.792          estimate D2E/DX2                !
 ! D55   D(11,10,34,35)        157.0991         estimate D2E/DX2                !
 ! D56   D(11,10,34,36)        -22.5466         estimate D2E/DX2                !
 ! D57   D(20,10,34,35)       -116.2409         estimate D2E/DX2                !
 ! D58   D(20,10,34,36)         64.1135         estimate D2E/DX2                !
 ! D59   D(33,10,34,35)        106.9191         estimate D2E/DX2                !
 ! D60   D(33,10,34,36)        -72.7265         estimate D2E/DX2                !
 ! D61   D(10,11,12,14)        176.0796         estimate D2E/DX2                !
 ! D62   D(10,11,12,15)         -4.1208         estimate D2E/DX2                !
 ! D63   D(13,11,12,14)         -0.7484         estimate D2E/DX2                !
 ! D64   D(13,11,12,15)        179.0512         estimate D2E/DX2                !
 ! D65   D(10,11,13,16)       -176.239          estimate D2E/DX2                !
 ! D66   D(10,11,13,17)          4.4552         estimate D2E/DX2                !
 ! D67   D(12,11,13,16)          0.5159         estimate D2E/DX2                !
 ! D68   D(12,11,13,17)       -178.7899         estimate D2E/DX2                !
 ! D69   D(11,12,14,18)       -179.7329         estimate D2E/DX2                !
 ! D70   D(11,12,14,48)          0.4327         estimate D2E/DX2                !
 ! D71   D(15,12,14,18)          0.4611         estimate D2E/DX2                !
 ! D72   D(15,12,14,48)       -179.3733         estimate D2E/DX2                !
 ! D73   D(11,13,16,19)       -179.7622         estimate D2E/DX2                !
 ! D74   D(11,13,16,48)          0.0303         estimate D2E/DX2                !
 ! D75   D(17,13,16,19)         -0.4311         estimate D2E/DX2                !
 ! D76   D(17,13,16,48)        179.3613         estimate D2E/DX2                !
 ! D77   D(12,14,48,16)          0.1563         estimate D2E/DX2                !
 ! D78   D(12,14,48,50)        179.6727         estimate D2E/DX2                !
 ! D79   D(18,14,48,16)       -179.6898         estimate D2E/DX2                !
 ! D80   D(18,14,48,50)         -0.1734         estimate D2E/DX2                !
 ! D81   D(13,16,48,14)         -0.3868         estimate D2E/DX2                !
 ! D82   D(13,16,48,50)       -179.9032         estimate D2E/DX2                !
 ! D83   D(19,16,48,14)        179.4196         estimate D2E/DX2                !
 ! D84   D(19,16,48,50)         -0.0967         estimate D2E/DX2                !
 ! D85   D(10,20,21,23)        176.3682         estimate D2E/DX2                !
 ! D86   D(10,20,21,24)         -2.6655         estimate D2E/DX2                !
 ! D87   D(22,20,21,23)          0.6155         estimate D2E/DX2                !
 ! D88   D(22,20,21,24)       -178.4182         estimate D2E/DX2                !
 ! D89   D(10,20,22,25)       -178.6104         estimate D2E/DX2                !
 ! D90   D(10,20,22,26)          2.2879         estimate D2E/DX2                !
 ! D91   D(21,20,22,25)         -2.5269         estimate D2E/DX2                !
 ! D92   D(21,20,22,26)        178.3713         estimate D2E/DX2                !
 ! D93   D(20,21,23,27)          1.3156         estimate D2E/DX2                !
 ! D94   D(20,21,23,28)       -178.9776         estimate D2E/DX2                !
 ! D95   D(24,21,23,27)       -179.6166         estimate D2E/DX2                !
 ! D96   D(24,21,23,28)          0.0902         estimate D2E/DX2                !
 ! D97   D(20,22,25,27)          2.5129         estimate D2E/DX2                !
 ! D98   D(20,22,25,29)       -178.0092         estimate D2E/DX2                !
 ! D99   D(26,22,25,27)       -178.365          estimate D2E/DX2                !
 ! D100  D(26,22,25,29)          1.1129         estimate D2E/DX2                !
 ! D101  D(21,23,27,25)         -1.3603         estimate D2E/DX2                !
 ! D102  D(21,23,27,30)        178.9864         estimate D2E/DX2                !
 ! D103  D(28,23,27,25)        178.9348         estimate D2E/DX2                !
 ! D104  D(28,23,27,30)         -0.7184         estimate D2E/DX2                !
 ! D105  D(22,25,27,23)         -0.5394         estimate D2E/DX2                !
 ! D106  D(22,25,27,30)        179.1141         estimate D2E/DX2                !
 ! D107  D(29,25,27,23)        179.9856         estimate D2E/DX2                !
 ! D108  D(29,25,27,30)         -0.3609         estimate D2E/DX2                !
 ! D109  D(10,33,44,45)        129.887          estimate D2E/DX2                !
 ! D110  D(10,33,44,46)       -112.2862         estimate D2E/DX2                !
 ! D111  D(10,33,44,47)         10.4173         estimate D2E/DX2                !
 ! D112  D(10,34,35,37)       -179.195          estimate D2E/DX2                !
 ! D113  D(10,34,35,38)          1.1459         estimate D2E/DX2                !
 ! D114  D(36,34,35,37)          0.4543         estimate D2E/DX2                !
 ! D115  D(36,34,35,38)       -179.2049         estimate D2E/DX2                !
 ! D116  D(10,34,36,39)        178.7976         estimate D2E/DX2                !
 ! D117  D(10,34,36,40)         -1.5782         estimate D2E/DX2                !
 ! D118  D(35,34,36,39)         -0.8744         estimate D2E/DX2                !
 ! D119  D(35,34,36,40)        178.7498         estimate D2E/DX2                !
 ! D120  D(34,35,37,41)       -179.8334         estimate D2E/DX2                !
 ! D121  D(34,35,37,43)          0.1925         estimate D2E/DX2                !
 ! D122  D(38,35,37,41)         -0.1625         estimate D2E/DX2                !
 ! D123  D(38,35,37,43)        179.8634         estimate D2E/DX2                !
 ! D124  D(34,36,39,42)       -179.5301         estimate D2E/DX2                !
 ! D125  D(34,36,39,43)          0.6473         estimate D2E/DX2                !
 ! D126  D(40,36,39,42)          0.8341         estimate D2E/DX2                !
 ! D127  D(40,36,39,43)       -178.9885         estimate D2E/DX2                !
 ! D128  D(35,37,43,39)         -0.4564         estimate D2E/DX2                !
 ! D129  D(35,37,43,49)        179.7423         estimate D2E/DX2                !
 ! D130  D(41,37,43,39)        179.5677         estimate D2E/DX2                !
 ! D131  D(41,37,43,49)         -0.2336         estimate D2E/DX2                !
 ! D132  D(36,39,43,37)          0.0368         estimate D2E/DX2                !
 ! D133  D(36,39,43,49)        179.8382         estimate D2E/DX2                !
 ! D134  D(42,39,43,37)       -179.7984         estimate D2E/DX2                !
 ! D135  D(42,39,43,49)          0.003          estimate D2E/DX2                !
 --------------------------------------------------------------------------------
 Trust Radius=3.00D-01 FncErr=1.00D-07 GrdErr=1.00D-06 EigMax=2.50D+02 EigMin=1.00D-04
 Number of steps in this run=    200 maximum allowed number of steps=    300.
 GradGradGradGradGradGradGradGradGradGradGradGradGradGradGradGradGradGrad

                          Input orientation:                          
 ---------------------------------------------------------------------
 Center     Atomic      Atomic             Coordinates (Angstroms)
 Number     Number       Type             X           Y           Z
 ---------------------------------------------------------------------
      1          6           0        0.196790    4.031108    0.514299
      2          6           0        0.207871    2.813631   -0.162070
      3          6           0       -0.006571    1.616534    0.533895
      4          6           0       -0.226234    1.656485    1.916478
      5          6           0       -0.231670    2.876787    2.588639
      6          1           0        0.363867    4.952616   -0.034526
      7          1           0        0.403919    2.806139   -1.230355
      8          1           0       -0.396990    0.742776    2.478262
      9          1           0       -0.398553    2.897047    3.661096
     10         15           0       -0.006198    0.064836   -0.417778
     11          6           0       -1.970560   -0.132174   -0.554212
     12          6           0       -2.541009   -0.973582   -1.528240
     13          6           0       -2.858254    0.487423    0.336484
     14          6           0       -3.901353   -1.182473   -1.583747
     15          1           0       -1.922238   -1.477845   -2.264100
     16          6           0       -4.218338    0.263122    0.254151
     17          1           0       -2.505829    1.165837    1.104746
     18          1           0       -4.385273   -1.823456   -2.311435
     19          1           0       -4.942883    0.721692    0.917038
     20          6           0        0.073872   -1.422461    0.696096
     21          6           0       -0.655097   -2.600524    0.503685
     22          6           0        0.999470   -1.375944    1.753571
     23          6           0       -0.476277   -3.695825    1.348666
     24          1           0       -1.362621   -2.700362   -0.310386
     25          6           0        1.148036   -2.453205    2.618080
     26          1           0        1.605439   -0.490041    1.922412
     27          6           0        0.413111   -3.621150    2.414522
     28          1           0       -1.040241   -4.606159    1.171189
     29          1           0        1.845081   -2.384168    3.447398
     30          1           0        0.539349   -4.468259    3.081131
     31          6           0       -0.022795    4.064423    1.889942
     32          1           0       -0.028136    5.013373    2.416771
     33          8           0        0.072838    0.325917   -2.056009
     34          6           0        1.933203   -0.091581   -0.696520
     35          6           0        2.872869    0.870622   -0.303027
     36          6           0        2.423250   -1.241615   -1.341059
     37          6           0        4.217339    0.682773   -0.555529
     38          1           0        2.573795    1.777667    0.210381
     39          6           0        3.767562   -1.394631   -1.585317
     40          1           0        1.754779   -2.036699   -1.654977
     41          1           0        4.985687    1.392290   -0.271072
     42          1           0        4.197364   -2.255285   -2.083806
     43          7           0        4.627709   -0.431753   -1.188097
     44          6           0       -0.824398    1.084823   -2.880771
     45          1           0       -0.200008    1.759588   -3.469085
     46          1           0       -1.361464    0.414774   -3.555458
     47          1           0       -1.536722    1.672060   -2.294692
     48          7           0       -4.701624   -0.562035   -0.693230
     49          1           0        5.619371   -0.555127   -1.370906
     50          1           0       -5.704917   -0.717216   -0.743701
 ---------------------------------------------------------------------
                    Distance matrix (angstroms):
                    1          2          3          4          5
     1  C    0.000000
     2  C    1.392784   0.000000
     3  C    2.423202   1.401212   0.000000
     4  C    2.789962   2.418222   1.400494   0.000000
     5  C    2.412244   2.786321   2.420925   1.393186   0.000000
     6  H    1.085496   2.148455   3.404375   3.875450   3.397753
     7  H    2.141791   1.086151   2.167081   3.409011   3.872167
     8  H    3.875932   3.409641   2.167128   1.086105   2.143249
     9  H    3.397478   3.871861   3.401874   2.147645   1.085553
    10  P    4.079373   2.768950   1.820288   2.833816   4.122675
    11  C    4.813734   3.684712   2.845911   3.513728   4.685627
    12  C    6.059243   4.875012   4.169470   4.913402   6.091558
    13  C    4.682159   3.880840   3.073428   3.284907   4.204784
    14  C    6.955430   5.905568   5.242917   5.815304   6.881349
    15  H    6.523676   5.231889   4.590614   5.493422   6.735719
    16  C    5.810228   5.125394   4.432715   4.543312   5.307975
    17  H    3.982782   3.418218   2.602939   2.469048   3.209531
    18  H    7.953364   6.871631   6.253196   6.876252   7.959612
    19  H    6.126228   5.663122   5.031373   4.911160   5.443731
    20  C    5.457983   4.324220   3.044383   3.325553   4.707293
    21  C    6.686132   5.522773   4.266741   4.505778   5.875990
    22  C    5.605025   4.674275   3.384472   3.274830   4.505415
    23  C    7.800941   6.717395   5.394964   5.388149   6.693026
    24  H    6.958775   5.735204   4.602964   5.023188   6.386547
    25  C    6.883101   6.029321   4.715901   4.389808   5.505749
    26  H    4.940431   4.148796   2.994030   2.821814   3.892860
    27  C    7.887629   6.934505   5.580880   5.339498   6.532170
    28  H    8.750093   7.641246   6.340073   6.359149   7.658814
    29  H    7.244011   6.536500   5.284196   4.791757   5.720840
    30  H    8.885112   7.978355   6.618999   6.281323   7.401805
    31  C    1.393457   2.414216   2.798444   2.416662   1.393659
    32  H    2.152867   3.397791   3.883839   3.399740   2.153129
    33  O    4.511129   3.129530   2.894754   4.200061   5.307770
    34  C    4.634412   3.420916   2.862569   3.814009   4.928504
    35  C    4.221148   3.301116   3.089983   3.892072   4.693037
    36  C    6.016734   4.768956   4.193864   5.101989   6.281111
    37  C    5.340477   4.557543   4.460961   5.177284   5.873089
    38  H    3.289455   2.609509   2.605554   3.281100   3.838595
    39  C    6.826232   5.692671   5.272784   6.125544   7.187543
    40  H    6.629583   5.305412   4.608647   5.506297   6.789448
    41  H    5.523921   4.985942   5.061709   5.658559   6.132087
    42  H    7.891355   6.730753   6.286208   7.132492   8.233240
    43  N    6.515238   5.578550   5.351382   6.128612   6.987398
    44  C    4.609764   3.383148   3.551268   4.868079   5.785923
    45  H    4.602673   3.494813   4.010203   5.386614   6.159964
    46  H    5.662945   4.442118   4.472446   5.724743   6.714750
    47  H    4.057167   2.982426   3.216419   4.410394   5.196292
    48  N    6.822723   5.981671   5.319353   5.635736   6.525079
    49  H    7.347920   6.488000   6.324208   7.061814   7.854343
    50  H    7.678495   6.911312   6.288862   6.536588   7.346957
                    6          7          8          9         10
     6  H    0.000000
     7  H    2.457433   0.000000
     8  H    4.961427   4.318884   0.000000
     9  H    4.297007   4.957673   2.457638   0.000000
    10  P    4.916729   2.888463   2.999895   4.981222   0.000000
    11  C    5.619138   3.837838   3.526692   5.423671   1.978925
    12  C    6.766780   4.800794   4.857444   6.819171   2.955792
    13  C    5.518846   4.298046   3.272650   4.786383   2.980221
    14  C    7.630957   5.879564   5.699742   7.511356   4.252940
    15  H    7.179701   4.983187   5.454130   7.521253   3.075708
    16  C    6.562872   5.480507   4.447408   5.756352   4.270003
    17  H    4.885979   4.075527   2.552005   3.737998   3.127049
    18  H    8.582179   6.748203   6.740411   8.593498   5.131070
    19  H    6.853305   6.127357   4.806559   5.736982   5.155972
    20  C    6.423357   4.658455   2.843603   5.260471   1.859887
    21  C    7.640542   5.775848   3.891430   6.344946   2.893840
    22  C    6.606963   5.171877   2.638987   4.883807   2.793201
    23  C    8.798556   7.049938   4.580770   6.987083   4.181372
    24  H    7.850155   5.855643   4.534777   6.930590   3.081840
    25  C    7.905531   6.559334   3.552597   5.666129   4.109650
    26  H    5.915541   4.716820   2.416305   4.302484   2.895125
    27  C    8.916823   7.388860   4.438939   6.685779   4.667359
    28  H    9.736295   7.924341   5.543764   7.931551   5.041057
    29  H    8.255071   7.134256   3.967857   5.742020   4.936035
    30  H    9.924263   8.457193   5.328702   7.447399   5.752298
    31  C    2.154523   3.391403   3.394036   2.154286   4.617634
    32  H    2.483186   4.284867   4.286938   2.482819   5.702909
    33  O    5.057414   2.634923   4.577567   6.286351   1.660786
    34  C    5.324000   3.319709   4.025567   5.775621   1.965563
    35  C    4.798944   3.271372   4.294635   5.524751   2.991903
    36  C    6.657070   4.524850   5.145753   7.079029   2.908862
    37  C    5.775141   4.416588   5.522637   6.632450   4.270724
    38  H    3.876089   2.800328   3.878124   4.689915   3.159864
    39  C    7.367336   5.393196   6.198764   7.956121   4.211230
    40  H    7.308284   5.045613   5.425795   7.565667   3.008014
    41  H    5.838929   4.889968   6.078973   6.834931   5.167453
    42  H    8.417190   6.382524   7.135049   8.981808   5.082179
    43  N    6.964374   5.322230   6.330032   7.736853   4.723673
    44  C    4.947010   2.682455   5.386920   6.801582   2.788577
    45  H    4.723302   2.543995   6.036857   7.223068   3.495743
    46  H    5.997144   3.773766   6.119115   7.692043   3.435730
    47  H    4.413914   2.486973   4.994362   6.186068   2.906627
    48  N    7.516945   6.140006   5.503705   7.031488   4.745089
    49  H    7.729260   6.206352   7.259287   8.570528   5.739323
    50  H    8.335470   7.068857   6.378614   7.786054   5.761357
                   11         12         13         14         15
    11  C    0.000000
    12  C    1.407874   0.000000
    13  C    1.401870   2.390058   0.000000
    14  C    2.427145   1.377408   2.750254   0.000000
    15  H    2.176438   1.085656   3.391378   2.113533   0.000000
    16  C    2.421201   2.742223   1.380912   2.359681   3.826830
    17  H    2.173358   3.392782   1.083824   3.832759   4.321893
    18  H    3.432070   2.176463   3.831896   1.083775   2.487615
    19  H    3.424670   3.823916   2.176604   3.311277   4.907331
    20  C    2.721730   3.462191   3.517718   4.588866   3.570754
    21  C    2.990375   3.214393   3.797009   4.111742   3.244486
    22  C    3.961553   4.844293   4.512461   5.932385   4.968746
    23  C    4.307370   4.466577   4.919135   5.162086   4.479098
    24  H    2.650402   2.419408   3.580130   3.220341   2.371649
    25  C    5.017595   5.743719   5.468394   6.690773   5.849239
    26  H    4.364574   5.416073   4.836854   6.564859   5.563016
    27  C    5.164128   5.593015   5.648048   6.367723   5.651293
    28  H    4.884572   4.768106   5.472338   5.243783   4.729215
    29  H    5.970216   6.781188   6.328126   7.731623   6.901835
    30  H    6.190072   6.553447   6.605723   7.230305   6.601021
    31  C    5.232505   6.588389   4.821617   7.391863   7.181969
    32  H    6.251112   7.597452   5.728995   8.330334   8.223995
    33  O    2.576959   2.966384   3.787005   4.276969   2.697626
    34  C    3.906567   4.635543   4.935626   6.001605   4.386737
    35  C    4.952524   5.849129   5.779411   7.193436   5.688071
    36  C    4.599517   4.975012   5.804998   6.329534   4.448716
    37  C    6.241333   7.026019   7.134274   8.393422   6.729182
    38  H    4.988312   6.062458   5.584603   7.342266   6.077477
    39  C    5.965150   6.322864   7.151006   7.671849   5.730750
    40  H    4.326321   4.427197   5.622916   5.720717   3.768793
    41  H    7.126958   7.989304   7.919300   9.345159   7.741399
    42  H    6.700041   6.881649   7.947452   8.184754   6.171422
    43  N    6.635413   7.197207   7.694730   8.571174   6.719665
    44  C    2.864899   3.002187   3.852815   4.036156   2.855311
    45  H    3.900013   4.088690   4.813214   5.090204   3.859927
    46  H    3.110889   2.725522   4.170476   3.590248   2.358830
    47  H    2.544159   2.931802   3.173783   3.774292   3.173556
    48  N    2.768179   2.352630   2.357899   1.348480   3.321344
    49  H    7.645452   8.172616   8.710466   9.543744   7.650168
    50  H    3.784654   3.269792   3.274362   2.043278   4.147147
                   16         17         18         19         20
    16  C    0.000000
    17  H    2.114496   0.000000
    18  H    3.311179   4.913092   0.000000
    19  H    1.083822   2.484297   4.148704   0.000000
    20  C    4.632448   3.677110   5.393516   5.460223   0.000000
    21  C    4.578146   4.239335   4.737399   5.439953   1.398660
    22  C    5.671007   4.378213   6.761656   6.356998   1.406111
    23  C    5.556460   5.273930   5.672949   6.296930   2.428311
    24  H    4.154041   4.272823   3.729556   5.102480   2.170150
    25  C    6.462551   5.360818   7.437352   7.076214   2.431108
    26  H    6.104648   4.506998   7.456010   6.734953   2.172316
    27  C    6.419119   5.757688   6.970715   7.056161   2.811104
    28  H    5.886523   5.955527   5.573271   6.609176   3.406302
    29  H    7.346429   6.084486   8.502698   7.881976   3.410531
    30  H    7.281028   6.702406   7.767023   7.853264   3.896402
    31  C    5.893071   3.896638   8.446887   6.027243   5.616094
    32  H    6.693251   4.760662   9.385244   6.694958   6.662664
    33  O    4.873907   4.164776   4.955785   5.844066   3.260507
    34  C    6.234665   4.952844   6.747628   7.109539   2.677262
    35  C    7.138958   5.567708   7.998274   7.911809   3.753780
    36  C    6.994256   6.006131   6.901895   7.950691   3.114849
    37  C    8.484830   6.941963   9.130680   9.277911   4.813200
    38  H    6.959083   5.193920   8.231420   7.623313   4.089786
    39  C    8.361004   7.290259   8.196332   9.306581   4.341540
    40  H    6.679227   6.002090   6.178725   7.686524   2.954705
    41  H    9.287893   7.620169  10.115285  10.021867   5.743184
    42  H    9.090240   8.173355   8.596508  10.070331   5.042285
    43  N    8.989743   7.661383   9.188720   9.867029   5.026840
    44  C    4.692735   4.326444   4.632716   5.614012   4.459522
    45  H    5.678809   5.156479   5.629814   6.542948   5.248731
    46  H    4.764226   4.857074   3.962409   5.737942   4.848849
    47  H    3.958885   3.570939   4.509230   4.777064   4.595094
    48  N    1.346098   3.322616   2.076017   2.073433   5.047368
    49  H   10.004542   8.666571  10.128482  10.882379   5.981415
    50  H    2.041247   4.146904   2.328737   2.325770   5.997065
                   21         22         23         24         25
    21  C    0.000000
    22  C    2.408195   0.000000
    23  C    1.394867   2.779141   0.000000
    24  H    1.083176   3.404919   2.128146   0.000000
    25  C    2.782743   1.389222   2.407054   3.865281   0.000000
    26  H    3.402491   1.086522   3.865201   4.322070   2.132413
    27  C    2.415377   2.412804   1.390193   3.380266   1.394864
    28  H    2.148597   3.864438   1.085478   2.435376   3.393709
    29  H    3.868223   2.144906   3.393202   4.950785   1.085544
    30  H    3.399759   3.396548   2.151647   4.271456   2.155309
    31  C    6.836888   5.537257   7.792309   7.238708   6.661869
    32  H    7.875557   6.505319   8.785887   8.289749   7.561329
    33  O    3.955500   4.274094   5.297900   3.777050   5.543165
    34  C    3.799287   2.919656   4.793637   4.221054   4.144916
    35  C    5.014597   3.575791   5.898924   5.539978   4.749288
    36  C    3.837439   3.409095   4.654570   4.186054   4.332309
    37  C    5.970143   4.463736   6.695380   6.530058   5.415420
    38  H    5.447965   3.847752   6.368496   5.984924   5.072483
    39  C    5.037660   4.337148   5.649241   5.445104   5.064686
    40  H    3.284086   3.553208   4.092943   3.459271   4.335969
    41  H    6.954226   5.258538   7.638424   7.553301   6.153259
    42  H    5.510052   5.072004   5.974943   5.852909   5.607611
    43  N    5.955983   4.765399   6.568105   6.465371   5.539077
    44  C    5.006495   5.555087   6.392489   4.606972   6.829751
    45  H    5.916129   6.208578   7.283446   5.587504   7.524522
    46  H    5.105646   6.080006   6.459955   4.498285   7.255030
    47  H    5.182967   5.666660   6.573644   4.804774   6.954212
    48  N    4.686408   6.257136   5.643008   3.983460   6.982823
    49  H    6.860517   5.637338   7.376787   7.380715   6.285503
    50  H    5.532043   7.184643   6.370933   4.793346   7.828039
                   26         27         28         29         30
    26  H    0.000000
    27  C    3.386394   0.000000
    28  H    4.950393   2.151360   0.000000
    29  H    2.443507   2.155805   4.294584   0.000000
    30  H    4.278481   1.085310   2.482337   2.486468   0.000000
    31  C    4.836873   7.715778   8.759612   6.891949   8.633748
    32  H    5.761990   8.645790   9.752498   7.700308   9.521804
    33  O    4.340793   5.973338   5.998260   6.385366   7.042156
    34  C    2.669270   4.944403   5.719364   4.736642   5.947166
    35  C    2.900062   5.797542   6.890637   5.071064   6.738063
    36  C    3.447306   4.879266   5.443098   4.956715   5.789307
    37  C    3.786516   6.466615   7.654835   5.572895   7.299729
    38  H    3.001877   6.218844   7.398489   5.322610   7.168805
    39  C    4.218675   5.675248   6.405248   5.477530   6.453238
    40  H    3.900278   4.568521   4.733020   5.114990   5.460812
    41  H    4.447541   7.297633   8.623996   6.160524   8.084134
    42  H    5.087627   6.034991   6.599554   6.011993   6.704842
    43  N    4.337370   6.396402   7.424120   5.748283   7.157819
    44  C    5.608464   7.191505   6.989438   7.694527   8.260799
    45  H    6.114631   7.996567   7.922176   8.318103   9.068520
    46  H    6.295098   7.421486   6.903198   8.194876   8.455851
    47  H    5.686108   7.348239   7.188523   7.801357   8.420989
    48  N    6.828309   6.721370   5.765130   7.957658   7.547992
    49  H    5.192478   7.129874   8.198996   6.388013   7.806399
    50  H    7.784669   7.472448   6.367879   8.794686   8.227425
                   31         32         33         34         35
    31  C    0.000000
    32  H    1.085396   0.000000
    33  O    5.436552   6.479830   0.000000
    34  C    5.271440   6.292852   2.341682   0.000000
    35  C    4.836770   5.742431   3.348107   1.401301   0.000000
    36  C    6.676567   7.697756   2.914232   1.406469   2.396083
    37  C    5.949338   6.753719   4.422180   2.415943   1.380813
    38  H    3.846096   4.701914   3.674083   2.174147   1.084326
    39  C    7.499700   8.454972   4.102782   2.419250   2.752474
    40  H    7.276669   8.334353   2.927748   2.175766   3.395646
    41  H    6.074139   6.743528   5.334720   3.420605   2.176501
    42  H    8.575496   9.536427   4.865706   3.425289   3.833635
    43  N    7.163596   8.020060   4.698317   2.760023   2.357752
    44  C    5.681574   6.643154   1.435689   3.709345   4.512253
    45  H    5.836338   6.727552   2.031414   3.957844   4.500751
    46  H    6.690617   7.654567   2.076888   4.391441   5.358701
    47  H    5.052379   5.969764   2.111813   4.207727   4.904439
    48  N    7.068828   7.911938   5.043918   6.651486   7.718660
    49  H    7.987954   8.789142   5.657706   3.775911   3.273591
    50  H    7.879509   8.663376   6.016040   7.663845   8.734634
                   36         37         38         39         40
    36  C    0.000000
    37  C    2.745739   0.000000
    38  H    3.397895   2.118171   0.000000
    39  C    1.374864   2.361857   3.835764   0.000000
    40  H    1.085153   3.829950   4.324319   2.113859   0.000000
    41  H    3.827324   1.083831   2.489485   3.313306   4.910390
    42  H    2.174093   3.311829   4.915686   1.083488   2.489557
    43  N    2.353490   1.345628   3.325032   1.350841   3.323786
    44  C    4.281383   5.566642   4.645747   5.376987   4.230677
    45  H    4.518539   5.400120   4.607904   5.407337   4.639394
    46  H    4.687350   6.339909   5.614738   5.784662   4.396876
    47  H    5.008023   6.092011   4.814862   6.167920   4.999811
    48  N    7.186469   9.006465   7.695612   8.556643   6.692139
    49  H    3.269151   2.040326   4.149449   2.044489   4.148593
    50  H    8.166941  10.022302   8.698953   9.533890   7.630106
                   41         42         43         44         45
    41  H    0.000000
    42  H    4.148766   0.000000
    43  N    2.072732   2.076719   0.000000
    44  C    6.376688   6.083549   5.906828   0.000000
    45  H    6.103575   6.113516   5.771632   1.091460   0.000000
    46  H    7.213117   6.339996   6.495475   1.092066   1.779035
    47  H    6.834847   6.953291   6.606875   1.093500   1.781478
    48  N    9.891491   9.164758   9.343357   4.746615   5.775799
    49  H    2.324569   2.328276   1.015891   6.818452   6.604955
    50  H   10.906989  10.110228  10.346117   5.624400   6.623164
                   46         47         48         49         50
    46  H    0.000000
    47  H    1.789138   0.000000
    48  N    4.505904   4.191952   0.000000
    49  H    7.378688   7.551385  10.343221   0.000000
    50  H    5.296505   5.048570   1.016477  11.342802   0.000000
 Stoichiometry    C23H23N2OP(2+)
 Framework group  C1[X(C23H23N2OP)]
 Deg. of freedom   144
 Full point group                 C1      NOp   1
 Largest Abelian subgroup         C1      NOp   1
 Largest concise Abelian subgroup C1      NOp   1
                         Standard orientation:                         
 ---------------------------------------------------------------------
 Center     Atomic      Atomic             Coordinates (Angstroms)
 Number     Number       Type             X           Y           Z
 ---------------------------------------------------------------------
      1          6           0        0.196790    4.031108    0.514299
      2          6           0        0.207871    2.813631   -0.162070
      3          6           0       -0.006571    1.616534    0.533895
      4          6           0       -0.226234    1.656485    1.916478
      5          6           0       -0.231670    2.876787    2.588639
      6          1           0        0.363867    4.952616   -0.034526
      7          1           0        0.403919    2.806139   -1.230355
      8          1           0       -0.396990    0.742776    2.478262
      9          1           0       -0.398553    2.897047    3.661096
     10         15           0       -0.006198    0.064836   -0.417778
     11          6           0       -1.970560   -0.132174   -0.554212
     12          6           0       -2.541009   -0.973582   -1.528240
     13          6           0       -2.858254    0.487423    0.336484
     14          6           0       -3.901353   -1.182473   -1.583747
     15          1           0       -1.922238   -1.477845   -2.264100
     16          6           0       -4.218338    0.263122    0.254151
     17          1           0       -2.505829    1.165837    1.104746
     18          1           0       -4.385273   -1.823456   -2.311435
     19          1           0       -4.942883    0.721692    0.917038
     20          6           0        0.073872   -1.422461    0.696096
     21          6           0       -0.655097   -2.600524    0.503685
     22          6           0        0.999470   -1.375944    1.753571
     23          6           0       -0.476277   -3.695825    1.348666
     24          1           0       -1.362621   -2.700362   -0.310386
     25          6           0        1.148036   -2.453205    2.618080
     26          1           0        1.605439   -0.490041    1.922412
     27          6           0        0.413111   -3.621150    2.414522
     28          1           0       -1.040241   -4.606159    1.171189
     29          1           0        1.845081   -2.384168    3.447398
     30          1           0        0.539349   -4.468259    3.081131
     31          6           0       -0.022795    4.064423    1.889942
     32          1           0       -0.028136    5.013373    2.416771
     33          8           0        0.072838    0.325917   -2.056009
     34          6           0        1.933203   -0.091581   -0.696520
     35          6           0        2.872869    0.870622   -0.303027
     36          6           0        2.423250   -1.241615   -1.341059
     37          6           0        4.217339    0.682773   -0.555529
     38          1           0        2.573795    1.777667    0.210381
     39          6           0        3.767562   -1.394631   -1.585317
     40          1           0        1.754779   -2.036699   -1.654977
     41          1           0        4.985687    1.392290   -0.271072
     42          1           0        4.197364   -2.255285   -2.083806
     43          7           0        4.627709   -0.431753   -1.188097
     44          6           0       -0.824398    1.084823   -2.880771
     45          1           0       -0.200008    1.759588   -3.469085
     46          1           0       -1.361464    0.414774   -3.555458
     47          1           0       -1.536722    1.672060   -2.294692
     48          7           0       -4.701624   -0.562035   -0.693230
     49          1           0        5.619371   -0.555127   -1.370906
     50          1           0       -5.704917   -0.717216   -0.743701
 ---------------------------------------------------------------------
 Rotational constants (GHZ):           0.2234655           0.1751495           0.1445847
 Standard basis: 6-31+G(d) (6D, 7F)
 There are   563 symmetry adapted cartesian basis functions of A   symmetry.
 There are   563 symmetry adapted basis functions of A   symmetry.
   563 basis functions,   980 primitive gaussians,   563 cartesian basis functions
    98 alpha electrons       98 beta electrons
       nuclear repulsion energy      2692.0392991419 Hartrees.
 NAtoms=   50 NActive=   50 NUniq=   50 SFac= 1.00D+00 NAtFMM=   60 NAOKFM=F Big=F
 Integral buffers will be    131072 words long.
 Raffenetti 2 integral format.
 Two-electron integral symmetry is turned on.
 Nuclear repulsion after empirical dispersion term =     2691.9922086250 Hartrees.
 ------------------------------------------------------------------------------
 Polarizable Continuum Model (PCM)
 =================================
 Model                : PCM.
 Atomic radii         : SMD-Coulomb.
 Polarization charges : Total charges.
 Charge compensation  : None.
 Solution method      : On-the-fly selection.
 Cavity type          : VdW (van der Waals Surface) (Alpha=1.000).
 Cavity algorithm     : GePol (No added spheres)
                        Default sphere list used, NSphG=   50.
                        Lebedev-Laikov grids with approx.  5.0 points / Ang**2.
                        Smoothing algorithm: York/Karplus (Gamma=1.0000).
                        Polarization charges: spherical gaussians, with
                                              point-specific exponents (IZeta= 3).
                        Self-potential: point-specific (ISelfS= 7).
                        Self-field    : sphere-specific E.n sum rule (ISelfD= 2).
 1st derivatives      : Analytical E(r).r(x)/FMM algorithm (CHGder, D1EAlg=3).
                        Cavity 1st derivative terms included.
 Solvent              : Ethanol, Eps=  24.852000 Eps(inf)=   1.852593
 ------------------------------------------------------------------------------
 ------------------------------------------------------------------------------
 Atomic radii for non-electrostatic terms: SMD-CDS.
 ------------------------------------------------------------------------------
 Nuclear repulsion after PCM non-electrostatic terms =     2691.9914336538 Hartrees.
 One-electron integrals computed using PRISM.
 NBasis=   563 RedAO= T EigKep=  1.09D-06  NBF=   563
 NBsUse=   560 1.00D-06 EigRej=  9.18D-07 NBFU=   560
 ExpMin= 3.48D-02 ExpMax= 1.94D+04 ExpMxC= 2.91D+03 IAcc=3 IRadAn=         5 AccDes= 0.00D+00
 Harris functional with IExCor= 4639 and IRadAn=       5 diagonalized for initial guess.
 HarFok:  IExCor= 4639 AccDes= 0.00D+00 IRadAn=         5 IDoV= 1 UseB2=F ITyADJ=14
 ICtDFT=  3500011 ScaDFX=  1.000000  1.000000  1.000000  1.000000
 FoFCou: FMM=F IPFlag=           0 FMFlag=      100000 FMFlg1=           0
         NFxFlg=           0 DoJE=T BraDBF=F KetDBF=T FulRan=T
         wScrn=  0.000000 ICntrl=       500 IOpCl=  0 I1Cent=   200000004 NGrid=           0
         NMat0=    1 NMatS0=      1 NMatT0=    0 NMatD0=    1 NMtDS0=    0 NMtDT0=    0
 Petite list used in FoFCou.
 Requested convergence on RMS density matrix=1.00D-08 within 128 cycles.
 Requested convergence on MAX density matrix=1.00D-06.
 Requested convergence on             energy=1.00D-06.
 No special actions if energy rises.
 Inv3:  Mode=1 IEnd=    39683307.
 Iteration    1 A*A^-1 deviation from unit magnitude is 8.44D-15 for   3618.
 Iteration    1 A*A^-1 deviation from orthogonality  is 8.90D-15 for   3627   3338.
 Iteration    1 A^-1*A deviation from unit magnitude is 8.44D-15 for   3618.
 Iteration    1 A^-1*A deviation from orthogonality  is 2.62D-14 for   3411   3366.
 Error on total polarization charges =  0.05445
 SCF Done:  E(RwB97XD) =  -1415.69999202     A.U. after   16 cycles
            NFock= 16  Conv=0.45D-08     -V/T= 2.0082
 SMD-CDS (non-electrostatic) energy       (kcal/mol) =      -0.49
 (included in total energy above)

 **********************************************************************

            Population analysis using the SCF density.

 **********************************************************************

 Orbital symmetries:
       Occupied  (A) (A) (A) (A) (A) (A) (A) (A) (A) (A) (A) (A)
                 (A) (A) (A) (A) (A) (A) (A) (A) (A) (A) (A) (A)
                 (A) (A) (A) (A) (A) (A) (A) (A) (A) (A) (A) (A)
                 (A) (A) (A) (A) (A) (A) (A) (A) (A) (A) (A) (A)
                 (A) (A) (A) (A) (A) (A) (A) (A) (A) (A) (A) (A)
                 (A) (A) (A) (A) (A) (A) (A) (A) (A) (A) (A) (A)
                 (A) (A) (A) (A) (A) (A) (A) (A) (A) (A) (A) (A)
                 (A) (A) (A) (A) (A) (A) (A) (A) (A) (A) (A) (A)
                 (A) (A)
       Virtual   (A) (A) (A) (A) (A) (A) (A) (A) (A) (A) (A) (A)
                 (A) (A) (A) (A) (A) (A) (A) (A) (A) (A) (A) (A)
                 (A) (A) (A) (A) (A) (A) (A) (A) (A) (A) (A) (A)
                 (A) (A) (A) (A) (A) (A) (A) (A) (A) (A) (A) (A)
                 (A) (A) (A) (A) (A) (A) (A) (A) (A) (A) (A) (A)
                 (A) (A) (A) (A) (A) (A) (A) (A) (A) (A) (A) (A)
                 (A) (A) (A) (A) (A) (A) (A) (A) (A) (A) (A) (A)
                 (A) (A) (A) (A) (A) (A) (A) (A) (A) (A) (A) (A)
                 (A) (A) (A) (A) (A) (A) (A) (A) (A) (A) (A) (A)
                 (A) (A) (A) (A) (A) (A) (A) (A) (A) (A) (A) (A)
                 (A) (A) (A) (A) (A) (A) (A) (A) (A) (A) (A) (A)
                 (A) (A) (A) (A) (A) (A) (A) (A) (A) (A) (A) (A)
                 (A) (A) (A) (A) (A) (A) (A) (A) (A) (A) (A) (A)
                 (A) (A) (A) (A) (A) (A) (A) (A) (A) (A) (A) (A)
                 (A) (A) (A) (A) (A) (A) (A) (A) (A) (A) (A) (A)
                 (A) (A) (A) (A) (A) (A) (A) (A) (A) (A) (A) (A)
                 (A) (A) (A) (A) (A) (A) (A) (A) (A) (A) (A) (A)
                 (A) (A) (A) (A) (A) (A) (A) (A) (A) (A) (A) (A)
                 (A) (A) (A) (A) (A) (A) (A) (A) (A) (A) (A) (A)
                 (A) (A) (A) (A) (A) (A) (A) (A) (A) (A) (A) (A)
                 (A) (A) (A) (A) (A) (A) (A) (A) (A) (A) (A) (A)
                 (A) (A) (A) (A) (A) (A) (A) (A) (A) (A) (A) (A)
                 (A) (A) (A) (A) (A) (A) (A) (A) (A) (A) (A) (A)
                 (A) (A) (A) (A) (A) (A) (A) (A) (A) (A) (A) (A)
                 (A) (A) (A) (A) (A) (A) (A) (A) (A) (A) (A) (A)
                 (A) (A) (A) (A) (A) (A) (A) (A) (A) (A) (A) (A)
                 (A) (A) (A) (A) (A) (A) (A) (A) (A) (A) (A) (A)
                 (A) (A) (A) (A) (A) (A) (A) (A) (A) (A) (A) (A)
                 (A) (A) (A) (A) (A) (A) (A) (A) (A) (A) (A) (A)
                 (A) (A) (A) (A) (A) (A) (A) (A) (A) (A) (A) (A)
                 (A) (A) (A) (A) (A) (A) (A) (A) (A) (A) (A) (A)
                 (A) (A) (A) (A) (A) (A) (A) (A) (A) (A) (A) (A)
                 (A) (A) (A) (A) (A) (A) (A) (A) (A) (A) (A) (A)
                 (A) (A) (A) (A) (A) (A) (A) (A) (A) (A) (A) (A)
                 (A) (A) (A) (A) (A) (A) (A) (A) (A) (A) (A) (A)
                 (A) (A) (A) (A) (A) (A) (A) (A) (A) (A) (A) (A)
                 (A) (A) (A) (A) (A) (A) (A) (A) (A) (A) (A) (A)
                 (A) (A) (A) (A) (A) (A) (A) (A) (A) (A) (A) (A)
                 (A) (A) (A) (A) (A) (A)
 The electronic state is 1-A.
 Alpha  occ. eigenvalues --  -77.38157 -19.31208 -14.57534 -14.57126 -10.39393
 Alpha  occ. eigenvalues --  -10.39286 -10.39173 -10.38933 -10.35657 -10.35440
 Alpha  occ. eigenvalues --  -10.35203 -10.34551 -10.34408 -10.34137 -10.34078
 Alpha  occ. eigenvalues --  -10.33565 -10.33357 -10.32685 -10.32642 -10.32450
 Alpha  occ. eigenvalues --  -10.32447 -10.32062 -10.31947 -10.31931 -10.31917
 Alpha  occ. eigenvalues --  -10.31768 -10.31729  -6.78965  -4.93983  -4.93797
 Alpha  occ. eigenvalues --   -4.93686  -1.15614  -1.14037  -1.13685  -0.98530
 Alpha  occ. eigenvalues --   -0.97603  -0.95389  -0.95183  -0.91791  -0.91509
 Alpha  occ. eigenvalues --   -0.89182  -0.86667  -0.86467  -0.86159  -0.83159
 Alpha  occ. eigenvalues --   -0.78699  -0.78028  -0.77736  -0.77393  -0.74226
 Alpha  occ. eigenvalues --   -0.72068  -0.71373  -0.71017  -0.70488  -0.70261
 Alpha  occ. eigenvalues --   -0.68052  -0.63368  -0.62744  -0.62139  -0.61418
 Alpha  occ. eigenvalues --   -0.61308  -0.59027  -0.58584  -0.58289  -0.56724
 Alpha  occ. eigenvalues --   -0.56447  -0.56116  -0.55715  -0.55591  -0.55429
 Alpha  occ. eigenvalues --   -0.55348  -0.55023  -0.54541  -0.53824  -0.53330
 Alpha  occ. eigenvalues --   -0.52024  -0.51723  -0.51036  -0.48572  -0.48319
 Alpha  occ. eigenvalues --   -0.48001  -0.47606  -0.47016  -0.46081  -0.44561
 Alpha  occ. eigenvalues --   -0.43921  -0.43507  -0.42775  -0.41308  -0.40532
 Alpha  occ. eigenvalues --   -0.38475  -0.38084  -0.37980  -0.35897  -0.35048
 Alpha  occ. eigenvalues --   -0.34852  -0.34467  -0.33817
 Alpha virt. eigenvalues --   -0.02321  -0.01580   0.01102   0.01805   0.02761
 Alpha virt. eigenvalues --    0.03005   0.04289   0.04582   0.04792   0.05487
 Alpha virt. eigenvalues --    0.06323   0.06645   0.07119   0.08018   0.08183
 Alpha virt. eigenvalues --    0.08585   0.08775   0.08951   0.09122   0.09603
 Alpha virt. eigenvalues --    0.10017   0.10460   0.10684   0.10838   0.10987
 Alpha virt. eigenvalues --    0.11269   0.11775   0.11873   0.12319   0.12822
 Alpha virt. eigenvalues --    0.13316   0.13731   0.14291   0.14756   0.14997
 Alpha virt. eigenvalues --    0.15126   0.15408   0.15716   0.15871   0.16210
 Alpha virt. eigenvalues --    0.16753   0.16879   0.17092   0.17489   0.17779
 Alpha virt. eigenvalues --    0.18166   0.18193   0.18479   0.18693   0.18902
 Alpha virt. eigenvalues --    0.19279   0.19395   0.19576   0.19967   0.20015
 Alpha virt. eigenvalues --    0.20200   0.20647   0.20961   0.21244   0.21444
 Alpha virt. eigenvalues --    0.21639   0.22261   0.22293   0.22522   0.22708
 Alpha virt. eigenvalues --    0.22844   0.22999   0.23373   0.23687   0.24006
 Alpha virt. eigenvalues --    0.24238   0.24374   0.24886   0.24971   0.25115
 Alpha virt. eigenvalues --    0.25582   0.25814   0.26044   0.26301   0.26592
 Alpha virt. eigenvalues --    0.26902   0.27030   0.27098   0.27437   0.27610
 Alpha virt. eigenvalues --    0.28083   0.28234   0.28389   0.28575   0.29090
 Alpha virt. eigenvalues --    0.29121   0.29380   0.29680   0.29925   0.29970
 Alpha virt. eigenvalues --    0.30424   0.30766   0.30879   0.31262   0.31557
 Alpha virt. eigenvalues --    0.31814   0.32215   0.32551   0.32906   0.33244
 Alpha virt. eigenvalues --    0.33550   0.33718   0.33819   0.34072   0.34201
 Alpha virt. eigenvalues --    0.34375   0.34828   0.34882   0.35421   0.35665
 Alpha virt. eigenvalues --    0.35982   0.36214   0.36383   0.36643   0.36687
 Alpha virt. eigenvalues --    0.37137   0.37147   0.37364   0.37903   0.38172
 Alpha virt. eigenvalues --    0.38319   0.38512   0.38692   0.39488   0.39502
 Alpha virt. eigenvalues --    0.39831   0.40230   0.40369   0.40674   0.40869
 Alpha virt. eigenvalues --    0.41528   0.41882   0.42207   0.42276   0.42900
 Alpha virt. eigenvalues --    0.43168   0.43713   0.43914   0.44609   0.45026
 Alpha virt. eigenvalues --    0.45458   0.46393   0.46560   0.47571   0.47977
 Alpha virt. eigenvalues --    0.48241   0.48575   0.49432   0.50380   0.51602
 Alpha virt. eigenvalues --    0.52659   0.53453   0.54105   0.55123   0.55714
 Alpha virt. eigenvalues --    0.57053   0.59520   0.61777   0.63348   0.64278
 Alpha virt. eigenvalues --    0.64853   0.65003   0.66059   0.67369   0.70469
 Alpha virt. eigenvalues --    0.71481   0.72512   0.73927   0.76262   0.76631
 Alpha virt. eigenvalues --    0.76954   0.77349   0.77860   0.78235   0.78528
 Alpha virt. eigenvalues --    0.78930   0.79408   0.79951   0.80371   0.81315
 Alpha virt. eigenvalues --    0.82037   0.82420   0.83030   0.83391   0.83857
 Alpha virt. eigenvalues --    0.84269   0.84863   0.85129   0.85421   0.85804
 Alpha virt. eigenvalues --    0.86667   0.86909   0.87478   0.88559   0.89414
 Alpha virt. eigenvalues --    0.89950   0.90188   0.90537   0.91980   0.92114
 Alpha virt. eigenvalues --    0.92359   0.93260   0.94022   0.94526   0.95644
 Alpha virt. eigenvalues --    0.96677   0.96862   0.97142   0.97740   0.98278
 Alpha virt. eigenvalues --    0.98794   0.99197   0.99298   0.99662   1.00041
 Alpha virt. eigenvalues --    1.00893   1.01099   1.01781   1.02178   1.02394
 Alpha virt. eigenvalues --    1.02648   1.03369   1.03907   1.04004   1.04273
 Alpha virt. eigenvalues --    1.04951   1.05392   1.05796   1.06785   1.07660
 Alpha virt. eigenvalues --    1.08645   1.09345   1.10243   1.10453   1.11022
 Alpha virt. eigenvalues --    1.11529   1.12515   1.12769   1.14087   1.14475
 Alpha virt. eigenvalues --    1.14965   1.16012   1.16168   1.16487   1.17264
 Alpha virt. eigenvalues --    1.17334   1.17843   1.19389   1.19416   1.20643
 Alpha virt. eigenvalues --    1.21727   1.22516   1.23106   1.23985   1.25884
 Alpha virt. eigenvalues --    1.26285   1.26931   1.27282   1.28201   1.28551
 Alpha virt. eigenvalues --    1.29362   1.30168   1.30742   1.31032   1.31332
 Alpha virt. eigenvalues --    1.31881   1.32086   1.33118   1.34298   1.34689
 Alpha virt. eigenvalues --    1.35157   1.36770   1.37951   1.38390   1.39396
 Alpha virt. eigenvalues --    1.40695   1.42664   1.43616   1.44963   1.46542
 Alpha virt. eigenvalues --    1.47137   1.47937   1.48684   1.49161   1.49543
 Alpha virt. eigenvalues --    1.49790   1.50845   1.50991   1.51474   1.52132
 Alpha virt. eigenvalues --    1.52782   1.53314   1.53645   1.54573   1.54907
 Alpha virt. eigenvalues --    1.55166   1.55287   1.55553   1.55977   1.56473
 Alpha virt. eigenvalues --    1.56948   1.57431   1.57840   1.58892   1.59239
 Alpha virt. eigenvalues --    1.60193   1.60753   1.62095   1.62870   1.65062
 Alpha virt. eigenvalues --    1.66845   1.67303   1.67628   1.69898   1.71662
 Alpha virt. eigenvalues --    1.73959   1.76201   1.77379   1.79589   1.81824
 Alpha virt. eigenvalues --    1.86034   1.87724   1.89505   1.89881   1.90382
 Alpha virt. eigenvalues --    1.93092   1.94942   1.95944   1.96837   1.98023
 Alpha virt. eigenvalues --    1.98615   2.00080   2.01612   2.02266   2.03881
 Alpha virt. eigenvalues --    2.05543   2.06643   2.06750   2.07400   2.08125
 Alpha virt. eigenvalues --    2.09737   2.10379   2.11424   2.13007   2.14171
 Alpha virt. eigenvalues --    2.14596   2.17945   2.19705   2.20201   2.20340
 Alpha virt. eigenvalues --    2.20979   2.21305   2.21967   2.22364   2.23173
 Alpha virt. eigenvalues --    2.23247   2.23967   2.24258   2.24792   2.25400
 Alpha virt. eigenvalues --    2.25682   2.26327   2.26929   2.27269   2.27918
 Alpha virt. eigenvalues --    2.28595   2.28980   2.29797   2.30366   2.31430
 Alpha virt. eigenvalues --    2.31564   2.32528   2.34276   2.35725   2.35991
 Alpha virt. eigenvalues --    2.36426   2.37270   2.37894   2.38316   2.38699
 Alpha virt. eigenvalues --    2.39614   2.40046   2.40434   2.42480   2.42972
 Alpha virt. eigenvalues --    2.44747   2.46849   2.51630   2.64378   2.66167
 Alpha virt. eigenvalues --    2.67585   2.69596   2.70247   2.70709   2.71032
 Alpha virt. eigenvalues --    2.71403   2.71499   2.71998   2.72215   2.73116
 Alpha virt. eigenvalues --    2.73785   2.76357   2.76457   2.76971   2.77598
 Alpha virt. eigenvalues --    2.78162   2.79194   2.80757   2.81198   2.84511
 Alpha virt. eigenvalues --    2.85156   2.87542   2.88558   2.88895   2.89396
 Alpha virt. eigenvalues --    2.90214   2.91355   2.92555   2.94003   2.94682
 Alpha virt. eigenvalues --    2.96853   3.00715   3.13256   3.14492   3.15638
 Alpha virt. eigenvalues --    3.17638   3.43363   3.47290   3.47750   3.48240
 Alpha virt. eigenvalues --    3.75062   4.27712   4.27883   4.37255   4.39951
 Alpha virt. eigenvalues --    4.40644   4.40872   4.42293   4.43371   4.44374
 Alpha virt. eigenvalues --    4.45878   4.48295   4.48846   4.49376   4.52012
 Alpha virt. eigenvalues --    4.52716   4.54164   4.56469   4.58766   4.61609
 Alpha virt. eigenvalues --    4.64732   4.67392   4.77637   4.78774   4.80444
 Alpha virt. eigenvalues --    4.81883   4.90254
          Condensed to atoms (all electrons):
               1          2          3          4          5          6
     1  C   11.410857  -4.955105  -1.054363   0.406025   0.036987   0.291552
     2  C   -4.955105  19.083571  -5.543411  -4.173442  -0.562022  -0.007917
     3  C   -1.054363  -5.543411  17.180678  -0.099095  -0.481372   0.025037
     4  C    0.406025  -4.173442  -0.099095  13.795898  -2.965768   0.008289
     5  C    0.036987  -0.562022  -0.481372  -2.965768   9.933377  -0.005883
     6  H    0.291552  -0.007917   0.025037   0.008289  -0.005883   0.437525
     7  H   -0.000494   0.177210   0.074129   0.049499   0.002778  -0.003124
     8  H    0.004377  -0.015104  -0.058073   0.365543  -0.056734   0.000011
     9  H    0.004629  -0.013821   0.019699  -0.013153   0.315980  -0.000108
    10  P    0.299383  -0.595949   0.038505  -0.827354  -0.193423   0.004811
    11  C   -0.338701   1.875355  -1.707545  -1.634270   0.632620  -0.004978
    12  C   -0.081336   0.849350  -1.036981  -0.510195   0.244631  -0.000456
    13  C    0.293809  -1.379234   0.890111   1.098052  -0.462159   0.002503
    14  C   -0.030370  -0.057085   0.192546   0.135492   0.013565  -0.000000
    15  H   -0.000425   0.001901   0.006052  -0.001443  -0.000344  -0.000000
    16  C    0.073173  -0.124567  -0.177245   0.287102  -0.144712  -0.000042
    17  H   -0.014143   0.010141   0.013595  -0.020749   0.036343  -0.000001
    18  H   -0.000069  -0.000214   0.000481   0.000178   0.000000   0.000000
    19  H    0.000636  -0.000667   0.000978  -0.002223  -0.000256  -0.000000
    20  C    0.733519   0.324139   0.075689   0.431196  -0.555363   0.000993
    21  C   -0.199794  -0.354028  -0.165913   0.244622   0.355806  -0.000173
    22  C   -0.056529  -0.756533   0.050562   0.871714   0.022795  -0.000258
    23  C   -0.045708   0.062855   0.198198  -0.244658   0.006228  -0.000006
    24  H   -0.000025   0.000237   0.003627  -0.009980  -0.001794   0.000000
    25  C   -0.086484   0.360733  -0.282568  -0.541023  -0.043822  -0.000055
    26  H   -0.005781   0.012692   0.054022  -0.018055  -0.030020   0.000000
    27  C   -0.002462  -0.092554  -0.055672   0.162877   0.018155  -0.000001
    28  H   -0.000001   0.000025   0.001504  -0.001347  -0.000154  -0.000000
    29  H   -0.000080   0.000139   0.002627  -0.003354  -0.001368  -0.000000
    30  H    0.000003   0.000016  -0.000257   0.000392   0.000181   0.000000
    31  C    0.321044   0.421290  -0.962857   0.200474   0.193543  -0.001225
    32  H    0.020149  -0.004527   0.003140  -0.015734   0.010640  -0.002846
    33  O   -0.061071  -0.462358   0.621942   0.178895   0.020200   0.000008
    34  C   -0.418838   3.273134  -2.012600  -2.161573   0.206937  -0.002473
    35  C   -0.310057  -4.014744   2.164162   2.808127  -0.002347   0.001725
    36  C    0.198905   2.203670  -1.359163  -1.618646   0.018032  -0.000008
    37  C    0.259859  -0.205959  -0.182157   0.251929  -0.066683   0.001055
    38  H   -0.021031  -0.007050   0.051772   0.011823  -0.005904  -0.000010
    39  C   -0.070822  -0.018723   0.132955   0.042970  -0.024816  -0.000023
    40  H   -0.000223  -0.005590   0.006113   0.002903   0.000432  -0.000000
    41  H   -0.000367  -0.001238   0.001794  -0.000430   0.000298  -0.000000
    42  H   -0.000043  -0.000527   0.000668   0.000351  -0.000003  -0.000000
    43  N   -0.009026  -0.002120  -0.025558  -0.004741   0.005507  -0.000001
    44  C   -0.011862   0.255193  -0.224343  -0.047939   0.009873  -0.000305
    45  H   -0.011550   0.014738  -0.004639  -0.003623   0.000123   0.000001
    46  H    0.003692  -0.012887   0.013176   0.003933  -0.000332  -0.000000
    47  H    0.027029   0.049040  -0.067677  -0.006532   0.001406  -0.000004
    48  N   -0.003920   0.016285  -0.031107  -0.034224   0.003641  -0.000000
    49  H    0.000066   0.000471  -0.000427  -0.000134  -0.000005   0.000000
    50  H    0.000016  -0.000154   0.000125   0.000277   0.000014  -0.000000
               7          8          9         10         11         12
     1  C   -0.000494   0.004377   0.004629   0.299383  -0.338701  -0.081336
     2  C    0.177210  -0.015104  -0.013821  -0.595949   1.875355   0.849350
     3  C    0.074129  -0.058073   0.019699   0.038505  -1.707545  -1.036981
     4  C    0.049499   0.365543  -0.013153  -0.827354  -1.634270  -0.510195
     5  C    0.002778  -0.056734   0.315980  -0.193423   0.632620   0.244631
     6  H   -0.003124   0.000011  -0.000108   0.004811  -0.004978  -0.000456
     7  H    0.444113  -0.000113   0.000011  -0.029059  -0.012764  -0.007366
     8  H   -0.000113   0.440673  -0.002904   0.010581  -0.086591  -0.007641
     9  H    0.000011  -0.002904   0.437060   0.000165  -0.002257  -0.000070
    10  P   -0.029059   0.010581   0.000165  25.025641  -2.896883  -0.695406
    11  C   -0.012764  -0.086591  -0.002257  -2.896883  22.725408  -4.627775
    12  C   -0.007366  -0.007641  -0.000070  -0.695406  -4.627775  25.540905
    13  C    0.006559   0.071761   0.002103   1.485477  -7.534860 -10.352944
    14  C   -0.000951  -0.000793   0.000007  -1.520372   1.338685  -3.321302
    15  H   -0.000001  -0.000000  -0.000000  -0.019440  -0.085276   0.381696
    16  C   -0.001872   0.013380   0.001142  -0.173989  -0.502067  -2.036354
    17  H   -0.000005  -0.001867  -0.000005   0.105660  -0.026886  -0.014499
    18  H   -0.000000  -0.000000  -0.000000  -0.003322   0.103908  -0.162926
    19  H    0.000000   0.000000  -0.000000   0.012316   0.072364   0.007934
    20  C    0.015855   0.052301   0.003021   0.619549  -1.901816  -5.691250
[...]
 011882,-0.00002193,-0.00002450,-0.00001104,-0.00010842,0.00004130,0.00
 003508,-0.00000091,0.00000546,-0.00000339,0.00000151,-0.00000164,-0.00
 000419,0.00000390,-0.00000174,-0.00000048,0.00015538,-0.00015972,-0.00
 009708,0.03725702,-0.07116047,-0.05314690,-0.01436856,0.00964756,0.020
 79724,0.00802783,-0.00293545,-0.01316941,-0.05227827,0.07932219,-0.000
 26365,0.00037186,0.00034900,-0.00137258,-0.00029864,-0.00134828,-0.001
 03584,-0.00014625,-0.00039533,0.00005393,0.00017206,0.00059951,-0.0001
 3562,-0.00026428,-0.00009989,0.00002838,0.00000822,0.00001430,0.000187
 65,-0.00005450,-0.00008994,0.00006894,-0.00002825,0.00003737,-0.000042
 50,0.00002286,-0.00000121,-0.00064223,0.00272543,-0.00114373,0.0001271
 0,0.00066719,0.00034868,-0.00013789,-0.00006162,-0.00026670,0.00030872
 ,0.00065577,-0.00032592,0.00015405,0.00001592,-0.00008207,0.00001409,-
 0.00001110,0.00002249,-0.00024614,-0.00003233,-0.00023604,-0.00002736,
 -0.00001410,0.00004507,-0.00000158,0.00000481,-0.00000185,-0.00000616,
 -0.00003351,0.00002253,0.00003527,-0.00024295,-0.00000832,0.00003720,0
 .00001105,0.00003276,-0.00004466,0.00000797,-0.00002402,-0.00003636,-0
 .00001127,0.00000455,-0.00001300,-0.00000634,-0.00002041,0.00000249,0.
 00000002,0.00002972,0.00002403,0.00001396,-0.00001475,0.00000825,0.000
 00332,0.00000284,0.00000406,-0.00000833,0.00000510,0.00000171,-0.00000
 179,0.00000534,0.00000350,-0.00000264,-0.00000216,0.00022634,0.0001507
 4,-0.00017197,0.00002339,-0.00000171,0.00000937,-0.00779484,0.00150932
 ,0.01591611,0.00029157,-0.00038891,0.00014724,-0.00009334,-0.00004496,
 -0.00006070,0.00009180,0.00004340,-0.00002048,0.00003381,-0.00000710,-
 0.00003419,-0.00001168,0.00002271,0.00001259,-0.00001058,-0.00004053,-
 0.00003251,-0.00000254,-0.00000574,0.00000897,0.00000595,-0.00000508,-
 0.00000290,0.00001069,0.00000080,-0.00000627,-0.00000517,0.00002577,0.
 00002112,0.11351083,-0.05558738,-0.21672240,0.00546367,-0.00420658,-0.
 00912207,0.01222966,-0.00419634,-0.01567034,-0.12098555,0.05918195,0.2
 2803395,0.00002058,-0.00011591,-0.00002098,0.00006423,0.00006956,-0.00
 036162,-0.00045347,0.00001293,0.00003477,-0.00002632,-0.00010525,0.000
 10887,0.00002333,-0.00004087,-0.00002540,-0.00000794,-0.00005628,-0.00
 002219,0.00003224,0.00008161,0.00002868,-0.00004052,-0.00005007,0.0000
 9159,0.00001001,-0.00003152,-0.00004482,0.00589474,0.00251844,0.003119
 65,-0.01169935,0.01717260,0.03031882,-0.07487103,-0.01798511,-0.006211
 80,0.02721831,-0.01808322,-0.03679292,-0.29036011,0.04317620,0.1315833
 5,-0.00395410,-0.00404552,-0.00306324,-0.16420499,-0.03737882,-0.03660
 888,-0.00582893,-0.00267275,-0.00081589,0.00474582,-0.00088934,-0.0024
 5908,0.00931308,0.01777405,0.02775642,-0.00125511,-0.00083425,-0.00033
 907,0.00013015,0.00005862,-0.00011840,0.00029456,0.00060533,-0.0004571
 4,-0.00011203,-0.00007896,-0.00009058,-0.00015663,-0.00030833,0.000095
 62,-0.00019938,-0.00009254,-0.00012148,-0.00000726,-0.00003995,0.00001
 700,-0.00003332,0.00010825,-0.00009737,0.00001740,0.00005145,-0.000045
 33,-0.00005565,0.00007138,-0.00005624,-0.00002156,0.00002270,-0.000030
 70,0.00000042,-0.00008860,-0.00003050,-0.00000557,-0.00002302,-0.00002
 113,-0.00301104,-0.00333352,0.00113549,0.00039444,-0.00027053,-0.00038
 584,-0.00028194,0.00018518,0.00005428,0.00003812,0.00007266,0.00016828
 ,0.00006210,-0.00016278,-0.00004211,0.00003347,0.00000806,-0.00001236,
 0.00025674,0.00002356,-0.00008043,0.00004461,-0.00013195,0.00001942,-0
 .00002223,0.00002230,0.00001431,-0.00003256,0.00000135,0.00000290,-0.0
 0027693,0.00004236,0.00009515,-0.00120615,0.00149423,-0.00060225,-0.00
 003301,-0.00022126,0.00004969,0.00015404,0.00014791,-0.00010870,0.0002
 0594,0.00007618,-0.00002370,0.88089820,0.00001495,-0.00007920,-0.00002
 224,0.00003947,0.00005446,-0.00018509,-0.00032771,-0.00008251,0.000157
 21,-0.00003585,0.00004377,0.00004991,0.00003064,-0.00000672,0.00002853
 ,0.00000223,-0.00002904,-0.00000796,-0.00000517,0.00001936,0.00002069,
 -0.00003392,-0.00002125,0.00006829,0.00000334,-0.00001115,-0.00002077,
 0.00284277,0.00025246,-0.00053250,0.01758720,-0.02161582,-0.02547167,0
 .01255356,0.02650775,0.02606752,-0.05008158,-0.00908246,-0.01785527,0.
 00282726,-0.10245195,-0.06146866,-0.00361017,0.00567994,-0.00411287,0.
 00359335,-0.15060246,-0.13931838,-0.00324160,0.00629493,-0.00316967,0.
 01908450,-0.00027087,-0.00973078,-0.00255586,-0.00203622,-0.00692593,-
 0.00055620,-0.00027161,-0.00010177,-0.00007662,0.00034152,-0.00005023,
 0.00001572,0.00034473,0.00004783,-0.00012315,-0.00007067,0.00001084,-0
 .00031911,-0.00013667,-0.00028284,-0.00005532,0.00002956,-0.00011724,-
 0.00001609,-0.00001386,0.00001433,-0.00006386,0.00002310,-0.00011635,-
 0.00000536,0.00004354,-0.00001149,0.00000375,0.00000553,-0.00005466,-0
 .00001275,0.00000214,-0.00003070,-0.00001923,-0.00005498,0.00000309,-0
 .00000433,-0.00001096,-0.00000815,-0.00035967,-0.00018933,0.00089733,0
 .00014473,-0.00012033,-0.00005217,-0.00009565,0.00006035,0.00002127,-0
 .00003525,0.00002541,0.00004945,0.00002331,-0.00005799,-0.00002960,0.0
 0001491,-0.00000317,0.00000189,0.00006134,0.00001751,-0.00001193,-0.00
 000106,-0.00001706,0.00001531,-0.00000627,0.00000726,0.00000280,-0.000
 01159,0.00000210,0.00000348,-0.00006502,0.00002659,0.00002475,0.000170
 29,0.00009542,-0.00023007,0.00000032,-0.00002344,0.00006266,0.00009899
 ,-0.00004343,0.00001460,-0.00014099,0.00003868,0.00009873,0.11545425,0
 .33010222,0.00002242,-0.00011538,-0.00005425,0.00004307,0.00011483,-0.
 00020269,-0.00036661,-0.00018027,0.00024248,0.00000812,0.00006691,0.00
 011505,-0.00000357,0.00005621,0.00004912,0.00000719,-0.00003203,-0.000
 00698,-0.00001934,0.00000268,0.00002003,-0.00001029,-0.00002353,0.0000
 8926,0.00000086,-0.00000764,-0.00002168,0.00259362,0.00125225,-0.00283
 261,0.02912051,-0.02393481,-0.05979061,0.04522217,0.03306343,0.0555273
 8,-0.08715300,-0.02790515,-0.01066650,0.06361930,-0.07217707,-0.204022
 84,-0.00192834,-0.00392064,0.00218432,0.03118514,-0.12900380,-0.284483
 03,-0.00176815,-0.00308857,0.00332326,0.03146481,-0.00431342,-0.013133
 71,-0.00583246,-0.01214255,-0.01598308,-0.00123789,-0.00055285,-0.0002
 5247,-0.00012635,0.00018332,0.00002451,0.00000889,0.00057541,0.0000729
 9,-0.00012328,0.00000132,0.00012945,0.00005853,-0.00021837,-0.00010451
 ,-0.00010033,0.00000553,-0.00017215,-0.00001948,-0.00002094,0.00001897
 ,-0.00005810,-0.00001123,-0.00012467,-0.00001519,0.00004877,0.00000257
 ,0.00001419,0.00000921,-0.00008631,-0.00000135,0.00000378,-0.00003112,
 -0.00004461,-0.00008467,0.00003845,-0.00000465,-0.00001306,-0.00000631
 ,0.00111035,0.00059258,0.00091418,0.00018003,-0.00013232,-0.00003197,-
 0.00010017,0.00005129,0.00003769,-0.00009382,0.00000848,0.00003885,0.0
 0003089,-0.00006486,-0.00004467,0.00001472,-0.00000896,0.00000847,0.00
 003481,0.00002986,0.00001477,-0.00000443,0.00004551,-0.00001742,-0.000
 00672,0.00000679,0.00000102,-0.00000429,-0.00000094,0.00000791,-0.0000
 2562,0.00004459,0.00001394,0.00023051,-0.00055815,-0.00018579,-0.00004
 517,0.00001459,0.00010627,-0.00000739,-0.00015230,0.00008776,-0.000312
 07,0.00006374,0.00022563,-0.00851197,0.29850261,0.62627033,0.00000277,
 -0.00000228,-0.00000868,-0.00001046,0.00001570,-0.00001174,0.00009830,
 0.00001711,-0.00000790,-0.00002083,-0.00006109,0.00003549,0.00000625,-
 0.00001198,-0.00001809,-0.00000122,-0.00000951,-0.00000206,0.00000055,
 0.00002337,-0.00000682,-0.00000014,0.00000600,0.00001045,0.00000056,-0
 .00000670,-0.00000970,-0.00122544,0.00065569,0.00023392,-0.00005534,-0
 .00009338,-0.00005000,0.00003508,0.00002193,0.00001641,0.00006828,0.00
 002070,0.00004839,-0.00004644,0.00000382,0.00000447,-0.00002161,-0.000
 01067,-0.00002100,-0.00001171,-0.00001794,-0.00004035,-0.00000782,-0.0
 0000205,-0.00000026,0.00000585,0.00000021,0.00000001,0.00000557,0.0000
 0447,0.00000535,0.00043702,-0.00001339,-0.00021012,-0.00007344,-0.0000
 9275,-0.00007938,0.00004257,0.00008205,-0.00006048,-0.00005763,0.00007
 784,-0.00005209,0.00002095,-0.00001241,-0.00000180,-0.00000931,-0.0000
 6353,0.00005386,0.00001209,0.00001559,0.00001758,0.00006276,0.00007682
 ,0.00000338,-0.00000333,0.00002153,-0.00000625,-0.00001036,0.00000261,
 -0.00001305,0.00000141,0.00000655,-0.00000889,-0.00000230,-0.00000811,
 -0.00001756,0.00000253,-0.00000506,-0.00000321,0.00058990,-0.00054954,
 0.00032742,-0.00038808,-0.00098764,-0.00062163,0.00382698,-0.00205877,
 0.00011894,-0.00046686,-0.00445676,0.00018222,0.00686446,0.00109721,-0
 .00116504,0.00042214,-0.00031711,-0.00006596,-0.02016828,0.00934377,0.
 00791305,-0.00038053,0.00053865,0.00037655,0.00066681,-0.00020475,-0.0
 0115988,0.00083761,0.00033972,-0.00099077,-0.35705894,0.11434679,0.113
 15438,-0.00013333,0.00011456,-0.00010937,0.00002457,-0.00003896,0.0000
 2153,0.00003633,-0.00001207,0.00002493,0.00004548,-0.00003735,-0.00000
 051,0.00005295,0.00001545,0.00001052,0.36599552,0.00000071,0.00001016,
 0.00000792,0.00000244,-0.00000611,0.00002750,-0.00006419,-0.00000967,-
 0.00000040,0.00000867,0.00002739,0.00000665,-0.00000379,-0.00000251,0.
 00000054,0.00000110,0.00000217,0.00000148,-0.00000823,0.00000870,-0.00
 001103,0.00000009,-0.00000166,-0.00000647,-0.00000049,0.00000279,0.000
 00349,0.00050604,-0.00039327,0.00010455,0.00001725,0.00002485,-0.00000
 038,-0.00000021,-0.00001158,-0.00001542,-0.00002052,-0.00000152,-0.000
 02035,0.00002608,0.00000284,0.00000296,0.00002952,0.00000203,0.0000279
 9,0.00000417,0.00000196,0.00001499,0.00000247,0.00000141,0.00000047,-0
 .00000343,0.00000168,-0.00000095,-0.00000218,-0.00000141,-0.00000223,-
 0.00025908,-0.00000279,0.00009822,0.00002873,0.00006018,0.00005271,-0.
 00004029,-0.00002581,0.00002074,0.00002730,-0.00003814,0.00001594,-0.0
 0000742,0.00000746,-0.00000024,0.00001737,0.00002450,-0.00002843,0.000
 00274,0.00000200,-0.00000714,-0.00002735,-0.00003736,0.00000390,0.0000
 0071,-0.00001124,0.00000423,0.00000446,0.00000066,0.00000710,-0.000001
 77,-0.00000155,0.00000738,0.00000635,0.00000795,0.00000036,-0.00000089
 ,0.00000188,-0.00000025,-0.00011381,0.00015251,-0.00009594,-0.00081630
 ,-0.00183263,0.00005724,-0.00100057,-0.00453404,-0.00376162,-0.0056739
 7,-0.00088514,-0.00131624,0.03131220,-0.00849202,-0.01019424,0.0011531
 3,-0.00008857,-0.00044709,-0.02066213,0.01411159,0.00940131,-0.0009451
 2,0.00053748,0.00030376,0.00017783,0.00015277,0.00134472,-0.00007097,0
 .00001700,0.00130420,0.11416915,-0.11804397,-0.05641447,0.00004518,-0.
 00003701,0.00003262,-0.00000642,0.00000883,-0.00000571,-0.00000719,0.0
 0000308,-0.00000864,-0.00001429,0.00001090,-0.00000010,-0.00002883,-0.
 00000630,-0.00000049,-0.11776958,0.11927657,0.00000765,0.00000384,-0.0
 0000554,-0.00002549,-0.00000378,0.00003580,-0.00002526,-0.00000623,0.0
 0000016,-0.00000072,0.00002295,-0.00001860,-0.00000184,0.00001270,0.00
 000875,0.00000205,0.00000272,0.00000207,0.00000120,-0.00000763,-0.0000
 0401,0.00000080,0.00000096,-0.00000288,0.00000217,0.00000104,0.0000035
 5,0.00021781,-0.00003981,-0.00074569,0.00003031,0.00006095,0.00005748,
 0.00000006,-0.00001968,-0.00000948,-0.00003111,-0.00001027,-0.00002373
 ,0.00001776,0.00000288,-0.00000130,0.00000681,0.00000385,0.00001001,0.
 00000556,0.00000464,0.00001935,0.00000295,-0.00000266,0.00000064,-0.00
 000328,-0.00000209,0.00000130,-0.00000251,-0.00000155,-0.00000214,0.00
 003796,0.00005382,0.00013034,0.00001723,0.00005388,-0.00000798,-0.0000
 2985,-0.00001825,-0.00004218,-0.00000473,0.00002016,0.00000350,0.00000
 466,-0.00000807,-0.00000730,-0.00003390,0.00000254,0.00002068,-0.00000
 191,-0.00001114,0.00000741,0.00002705,-0.00000762,-0.00000102,-0.00000
 437,-0.00000209,0.00000157,0.00000823,-0.00000343,-0.00000632,0.000003
 61,-0.00000378,-0.00000062,-0.00000585,-0.00000406,0.00000514,0.000000
 35,0.00000108,0.00000085,-0.00040798,0.00037309,-0.00019724,-0.0006274
 9,-0.00052099,-0.00099969,0.00034078,-0.00334089,0.00594198,0.00010576
 ,-0.00161778,0.00654542,0.00903618,-0.00312500,-0.00305814,0.00045350,
 -0.00008638,0.00037214,-0.00201844,0.00257487,0.00130486,-0.00005383,-
 0.00001401,0.00051675,-0.00101247,0.00143377,-0.00319722,-0.00113472,0
 .00122466,-0.00320739,0.11287514,-0.05655545,-0.07473105,0.00011240,0.
 00003643,0.00001939,-0.00003076,0.00003306,-0.00001657,-0.00001889,-0.
 00000224,-0.00000938,-0.00001586,0.00001215,0.00000385,-0.00001831,-0.
 00000453,-0.00000592,-0.11781224,0.05948235,0.07128625,-0.00000670,0.0
 0003130,0.00000586,-0.00001496,-0.00001821,0.00009000,0.00011832,0.000
 01530,-0.00003574,0.00000580,0.00001157,-0.00003435,-0.00000745,0.0000
 1093,0.00000097,0.00000132,0.00001361,0.00000481,-0.00000291,-0.000014
 88,-0.00000689,0.00000955,0.00000383,-0.00002285,-0.00000223,0.0000061
 5,0.00000985,-0.00135768,-0.00049556,-0.00031071,-0.00009012,0.0007126
 1,0.00097159,-0.00061192,0.00117744,0.00402852,0.00369637,0.00047967,0
 .00181746,-0.02047381,-0.00786054,-0.00775776,-0.00040064,-0.00039916,
 -0.00046260,0.00645955,0.00020885,-0.00131414,0.00040763,0.00013533,0.
 00028671,0.00098600,0.00052621,-0.00033691,0.00084374,0.00088204,0.000
 16533,0.00033244,0.00016052,0.00011354,-0.00002699,-0.00007130,-0.0000
 0969,-0.00004043,-0.00015100,0.00005268,0.00003753,0.00003112,-0.00000
 064,0.00000306,0.00011041,-0.00000216,0.00003773,0.00000916,0.00004742
 ,0.00000469,0.00001078,-0.00000397,0.00002296,-0.00001453,0.00003179,-
 0.00000189,-0.00001220,0.00000198,0.00000984,-0.00001170,0.00001889,0.
 00000530,-0.00000492,0.00001027,0.00000325,0.00002031,0.00000652,0.000
 00237,0.00000540,0.00000488,0.00042003,0.00051357,-0.00036586,-0.00008
 162,0.00006437,0.00008935,0.00006850,-0.00004038,-0.00001940,0.0000253
 9,-0.00001751,-0.00003929,-0.00001741,0.00004063,0.00001463,-0.0000076
 1,-0.00000025,0.00000141,-0.00004849,-0.00000891,0.00001601,-0.0000020
 6,0.00000973,0.00000177,0.00000488,-0.00000521,-0.00000283,0.00000476,
 -0.00000010,-0.00000131,0.00005477,-0.00001547,-0.00001838,0.00012657,
 -0.00017863,0.00009667,0.00000997,0.00004207,-0.00001986,-0.00002144,-
 0.00001049,0.00002835,0.00000826,-0.00002363,-0.00001362,-0.37174832,-
 0.11272298,-0.09705601,-0.00001190,0.00000533,0.00000384,0.38126598,-0
 .00000225,0.00000655,0.00001098,0.00001138,-0.00001274,0.00002865,-0.0
 0000407,0.00001804,-0.00001772,0.00003876,0.00002914,-0.00002268,-0.00
 001613,-0.00000224,0.00000196,-0.00000324,0.00000452,-0.00000044,-0.00
 000417,-0.00000337,-0.00000017,-0.00000623,-0.00001089,0.00000095,-0.0
 0000142,0.00000255,0.00000268,-0.00023829,-0.00077593,0.00018126,0.000
 78734,-0.00132700,-0.00061889,0.00168817,0.00546161,-0.00346502,-0.000
 08007,0.00396408,-0.00552552,0.00848638,0.00491572,0.00545955,0.000385
 56,0.00052648,0.00004994,-0.01672181,-0.00469045,-0.00416712,-0.000695
 90,0.00022504,-0.00017455,0.00079670,-0.00268588,0.00185479,0.00063902
 ,-0.00263384,0.00205500,0.00027252,0.00014963,0.00011696,0.00000778,0.
 00002622,0.00002587,-0.00003997,-0.00011295,0.00008296,-0.00000190,0.0
 0000287,0.00000893,0.00002496,0.00002620,-0.00004630,0.00003288,0.0000
 1367,0.00002121,0.00000083,0.00000388,-0.00000440,0.00000769,-0.000009
 97,0.00001264,-0.00000093,-0.00000827,0.00001086,0.00000621,-0.0000112
 8,0.00000947,0.00000258,-0.00000235,0.00000358,0.00000937,0.00000550,-
 0.00000068,-0.00000079,0.00000099,0.00000102,0.00002161,0.00012149,0.0
 0012509,-0.00005793,0.00003037,0.00004427,0.00002985,-0.00001649,-0.00
 000506,-0.00000513,-0.00000078,-0.00001782,-0.00000938,0.00001646,0.00
 000361,-0.00000282,0.00000014,0.,-0.00002577,-0.00000419,0.00000686,-0
 .00000824,0.00001148,-0.00000415,0.00000172,-0.00000175,-0.00000132,0.
 00000391,0.00000071,-0.00000160,0.00002415,-0.00000719,-0.00000637,-0.
 00001130,-0.00003992,-0.00001308,0.00001462,0.00000950,-0.00000411,-0.
 00001766,-0.00001816,0.00003500,0.00000885,0.00000532,-0.00001155,-0.1
 1218198,-0.08270887,-0.05607967,-0.00000477,0.00000295,0.00000100,0.11
 683930,0.07950341,-0.00000345,0.00000067,-0.00000956,-0.00000990,0.000
 01389,0.00002847,0.00007114,-0.00000989,-0.00000252,0.00000112,0.00002
 351,-0.00000660,-0.00000485,0.00001798,0.00001008,0.00000199,0.0000040
 0,0.00000280,-0.00000049,-0.00000784,-0.00000061,0.00000664,-0.0000142
 4,0.00001190,-0.00000252,0.00000167,0.00000088,-0.00057191,0.00017294,
 -0.00043875,0.00078558,-0.00014609,-0.00162614,0.00528886,-0.00328324,
 0.00029704,0.00056757,-0.00582430,-0.00232638,0.01998381,0.00970693,0.
 01133434,0.00091777,0.00022193,0.00051831,-0.02894936,-0.00833419,-0.0
 0597644,-0.00106438,-0.00039723,0.00001038,0.00000241,0.00191880,-0.00
 071482,-0.00020165,0.00197442,-0.00067089,0.00002518,-0.00001436,-0.00
 000859,-0.00003531,-0.00002659,-0.00000860,-0.00001155,-0.00000617,0.0
 0000680,0.00002074,0.00000899,-0.00000438,-0.00000692,0.00003002,0.000
 00579,0.00000892,-0.00000071,0.00000262,0.00000177,0.00000329,-0.00000
 002,0.00000139,-0.00000365,0.00000404,-0.00000272,0.00000118,-0.000001
 90,0.00000231,-0.00000057,0.00000275,0.00000070,-0.00000057,0.00000300
 ,-0.00000456,-0.00000104,0.00001199,0.00000091,0.00000011,0.00000211,0
 .00028617,0.00027399,-0.00018687,-0.00001247,0.00001041,0.00001719,0.0
 0001632,-0.00001292,-0.00000404,-0.00002779,-0.00000379,-0.00002509,-0
 .00000179,0.00001048,0.00000203,-0.00000193,-0.00000023,0.00000133,-0.
 00001740,0.00000104,0.00001289,-0.00000607,0.00001329,-0.00000208,0.00
 000157,-0.00000172,-0.00000054,0.00000236,-0.00000047,0.00000107,0.000
 02273,-0.00000049,-0.00000838,0.00010147,-0.00012037,0.00005856,-0.000
 00080,0.00002182,-0.00000155,-0.00000068,-0.00000625,0.00000660,-0.000
 01689,-0.00001053,0.00000632,-0.09707388,-0.05623957,-0.09730337,-0.00
 000402,0.00000251,0.00000215,0.09991387,0.06003313,0.09696666\\0.00000
 538,-0.00000065,-0.00001016,-0.00002123,0.00004801,-0.00001621,-0.0000
 0530,-0.00002325,-0.00003229,-0.00006143,0.00007198,0.00001766,-0.0000
 0793,0.00000228,-0.00001194,0.00000178,-0.00000182,-0.00000365,0.00003
 169,-0.00000259,-0.00001706,0.00000064,-0.00005445,-0.00003088,-0.0000
 0293,0.00000291,-0.00000499,-0.00006539,-0.00001543,0.00001083,0.00002
 761,0.00000419,-0.00018091,-0.00002943,-0.00010697,-0.00006657,-0.0000
 9397,-0.00000809,-0.00005153,0.00001665,-0.00001191,0.00003985,0.00006
 598,-0.00002443,0.00009402,-0.00003662,-0.00002286,-0.00004033,0.00003
 922,-0.00000256,0.00001068,-0.00001160,-0.00000892,-0.00000358,0.00000
 037,-0.00000340,-0.00001126,0.00005577,0.00008427,0.00004121,-0.000003
 26,-0.00001050,0.00003474,-0.00001335,-0.00003884,-0.00000529,-0.00001
 166,0.00001027,0.00000882,-0.00000680,-0.00000099,0.00003179,-0.000008
 02,0.00001325,0.00000195,0.00000839,0.00002679,0.00002481,-0.00000285,
 -0.00001122,-0.00000788,-0.00000399,0.00000391,0.00000092,-0.00000810,
 0.00000058,0.00000154,-0.00000821,0.00000932,0.00001046,-0.00000116,-0
 .00000585,-0.00000093,-0.00000737,0.00000322,-0.00000615,-0.00008209,-
 0.00001038,-0.00003915,0.00003149,-0.00002060,0.00003186,-0.00000846,0
 .00003339,0.00006767,0.00013414,0.00016137,0.00000763,0.00003317,-0.00
 000133,0.00001342,0.00000598,-0.00003816,-0.00000327,-0.00003523,-0.00
 000102,0.00001869,-0.00001601,0.00002414,0.00005010,0.00000255,-0.0000
 1727,0.00000641,0.00001148,-0.00000492,0.00000881,-0.00002832,0.000006
 46,0.00000058,0.00000955,-0.00002725,0.00000471,0.00000236,-0.00000668
 ,-0.00000259,0.00002698,0.00001193,-0.00000753,0.00002445,-0.00000869,
 0.00000505,0.00005878,-0.00001065,0.00001295,-0.00000631,-0.00001389,-
 0.00000184,-0.00000740,-0.00000270,-0.00000117\\\@


 THERE'S NOTHING SO GREAT AS THE GREAT OUTDOORS.

                                       -- ZIGGY
 Job cpu time:       1 days  7 hours 19 minutes 52.2 seconds.
 Elapsed time:       0 days  1 hours 18 minutes 30.0 seconds.
 File lengths (MBytes):  RWF=   2320 Int=      0 D2E=      0 Chk=     56 Scr=     16
 Normal termination of Gaussian 16 at Wed Mar 14 12:49:53 2018.
