Job Start Time: Wed Mar 28 23:26:44 MDT 2018
SLURM Job ID: 737648
SLURM Job Name: Product_Int3_1Ph1Pyrax_SMD
 Entering Gaussian System, Link 0=/projects/user/g16/g16
 Initial command:
 /projects/user/g16/l1.exe "/gpfs/summit/scratch/user/737648/Gau-146358.inp" -scrdir="/gpfs/summit/scratch/user/737648/"
 Entering Link 1 = /projects/user/g16/l1.exe PID=    146359.
  
 Copyright (c) 1988,1990,1992,1993,1995,1998,2003,2009,2016,
            Gaussian, Inc.  All Rights Reserved.
  
 This is part of the Gaussian(R) 16 program.  It is based on
 the Gaussian(R) 09 system (copyright 2009, Gaussian, Inc.),
 the Gaussian(R) 03 system (copyright 2003, Gaussian, Inc.),
 the Gaussian(R) 98 system (copyright 1998, Gaussian, Inc.),
 the Gaussian(R) 94 system (copyright 1995, Gaussian, Inc.),
 the Gaussian 92(TM) system (copyright 1992, Gaussian, Inc.),
 the Gaussian 90(TM) system (copyright 1990, Gaussian, Inc.),
 the Gaussian 88(TM) system (copyright 1988, Gaussian, Inc.),
 the Gaussian 86(TM) system (copyright 1986, Carnegie Mellon
 University), and the Gaussian 82(TM) system (copyright 1983,
 Carnegie Mellon University). Gaussian is a federally registered
 trademark of Gaussian, Inc.
  
 This software contains proprietary and confidential information,
 including trade secrets, belonging to Gaussian, Inc.
  
 This software is provided under written license and may be
 used, copied, transmitted, or stored only in accord with that
 written license.
  
 The following legend is applicable only to US Government
 contracts under FAR:
  
                    RESTRICTED RIGHTS LEGEND
  
 Use, reproduction and disclosure by the US Government is
 subject to restrictions as set forth in subparagraphs (a)
 and (c) of the Commercial Computer Software - Restricted
 Rights clause in FAR 52.227-19.
  
 Gaussian, Inc.
 340 Quinnipiac St., Bldg. 40, Wallingford CT 06492
  
  
 ---------------------------------------------------------------
 Warning -- This program may not be used in any manner that
 competes with the business of Gaussian, Inc. or will provide
 assistance to any competitor of Gaussian, Inc.  The licensee
 of this program is prohibited from giving any competitor of
 Gaussian, Inc. access to this program.  By using this program,
 the user acknowledges that Gaussian, Inc. is engaged in the
 business of creating and licensing software in the field of
 computational chemistry and represents and warrants to the
 licensee that it is not a competitor of Gaussian, Inc. and that
 it will not use this program in any manner prohibited above.
 ---------------------------------------------------------------
  

 Cite this work as:
 Gaussian 16, Revision A.03,
 M. J. Frisch, G. W. Trucks, H. B. Schlegel, G. E. Scuseria, 
 M. A. Robb, J. R. Cheeseman, G. Scalmani, V. Barone, 
 G. A. Petersson, H. Nakatsuji, X. Li, M. Caricato, A. V. Marenich, 
 J. Bloino, B. G. Janesko, R. Gomperts, B. Mennucci, H. P. Hratchian, 
 J. V. Ortiz, A. F. Izmaylov, J. L. Sonnenberg, D. Williams-Young, 
 F. Ding, F. Lipparini, F. Egidi, J. Goings, B. Peng, A. Petrone, 
 T. Henderson, D. Ranasinghe, V. G. Zakrzewski, J. Gao, N. Rega, 
 G. Zheng, W. Liang, M. Hada, M. Ehara, K. Toyota, R. Fukuda, 
 J. Hasegawa, M. Ishida, T. Nakajima, Y. Honda, O. Kitao, H. Nakai, 
 T. Vreven, K. Throssell, J. A. Montgomery, Jr., J. E. Peralta, 
 F. Ogliaro, M. J. Bearpark, J. J. Heyd, E. N. Brothers, K. N. Kudin, 
 V. N. Staroverov, T. A. Keith, R. Kobayashi, J. Normand, 
 K. Raghavachari, A. P. Rendell, J. C. Burant, S. S. Iyengar, 
 J. Tomasi, M. Cossi, J. M. Millam, M. Klene, C. Adamo, R. Cammi, 
 J. W. Ochterski, R. L. Martin, K. Morokuma, O. Farkas, 
 J. B. Foresman, and D. J. Fox, Gaussian, Inc., Wallingford CT, 2016.
 
 ******************************************
 Gaussian 16:  ES64L-G16RevA.03 25-Dec-2016
                28-Mar-2018 
 ******************************************
 %chk=T11eqwdrSazng.chk
 %nprocshared=24
 Will use up to   24 processors via shared memory.
 %mem=98GB
 ----------------------------------------------------------------------
 # opt=(maxcycle=200) scrf=(solvent=ethanol,smd) freq=noraman wb97xd/6-
 31+g(d) geom=connectivity
 ----------------------------------------------------------------------
 1/6=200,18=20,19=15,26=3,38=1,57=2/1,3;
 2/9=110,12=2,17=6,18=5,40=1/2;
 3/5=1,6=6,7=11,11=2,25=1,30=1,70=32201,71=1,72=4,74=-58/1,2,3;
 4//1;
 5/5=2,38=5,53=4/2;
 6/7=2,8=2,9=2,10=2,28=1/1;
 7//1,2,3,16;
 1/6=200,18=20,19=15,26=3/3(2);
 2/9=110/2;
 99//99;
 2/9=110/2;
 3/5=1,6=6,7=11,11=2,25=1,30=1,70=32205,71=1,72=4,74=-58/1,2,3;
 4/5=5,16=3,69=1/1;
 5/5=2,38=5,53=4/2;
 7//1,2,3,16;
 1/6=200,18=20,19=15,26=3/3(-5);
 2/9=110/2;
 6/7=2,8=2,9=2,10=2,19=2,28=1/1;
 99/9=1/99;
 -------------------
 Title Card Required
 -------------------
 Symbolic Z-matrix:
 Charge =  2 Multiplicity = 1
 C                    -1.2353    2.36855  -2.2304 
 C                    -0.31982   1.64626  -1.46707 
 C                    -0.52548   1.45992  -0.09418 
 C                    -1.663     2.02225   0.50041 
 C                    -2.57371   2.75027  -0.26198 
 H                    -1.05886   2.50503  -3.29405 
 H                     0.56197   1.2327   -1.94999 
 H                    -1.84383   1.88902   1.56329 
 H                    -3.44978   3.18191   0.21505 
 P                     0.53105   0.32018   0.8794 
 C                    -1.89888  -1.43727  -0.07596 
 C                    -2.33801  -1.31574   1.24782 
 C                    -2.72662  -0.97877  -1.1051 
 C                    -3.55996  -0.73487   1.50845 
 H                    -1.72931  -1.63549   2.08545 
 C                    -3.94057  -0.40006  -0.7956 
 H                    -2.45081  -1.0673   -2.14844 
 H                    -3.95814  -0.59637   2.50544 
 H                    -4.62843  -0.01563  -1.5377 
 C                     2.21719   0.74571   0.28458 
 C                     3.15169  -0.29064   0.18857 
 C                     2.62434   2.05783   0.00328 
 C                     4.46578  -0.03038  -0.20248 
 H                     2.85684  -1.30908   0.43171 
 C                     3.93524   2.32031  -0.38286 
 H                     1.91468   2.87768   0.08417 
 C                     4.85617   1.27518  -0.49131 
 H                     5.18171  -0.84465  -0.27603 
 H                     4.24129   3.34021  -0.60012 
 H                     5.87858   1.48258  -0.79585 
 C                    -2.36721   2.91885  -1.63107 
 H                    -3.08172   3.48115  -2.2262 
 O                     0.45278   1.16878   2.32639 
 C                    -0.5725   -2.0412   -0.3839 
 C                    -0.07651  -3.07922   0.42143 
 C                     0.0944   -1.75593  -1.58374 
 C                     1.08461  -3.72389   0.06657 
 H                    -0.58629  -3.3969    1.3227 
 C                     1.25995  -2.42293  -1.89327 
 H                    -0.25932  -1.00084  -2.27426 
 H                     1.52794  -4.5244    0.64491 
 H                     1.83822  -2.23156  -2.78827 
 N                     1.722    -3.37291  -1.0656 
 C                     0.94722   0.47398   3.47124 
 H                     0.72259   1.09703   4.33994 
 H                     0.45684  -0.50087   3.58728 
 H                     2.03284   0.32901   3.40571 
 N                    -4.31577  -0.29723   0.48823 
 H                    -5.21239   0.13824   0.69831 
 H                     2.57962  -3.86271  -1.31428 
 
 Add virtual bond connecting atoms H40        and H7         Dist= 4.54D+00.

 GradGradGradGradGradGradGradGradGradGradGradGradGradGradGradGradGradGrad
 Berny optimization.
 Initialization pass.
                           ----------------------------
                           !    Initial Parameters    !
                           ! (Angstroms and Degrees)  !
 --------------------------                            --------------------------
 ! Name  Definition              Value          Derivative Info.                !
 --------------------------------------------------------------------------------
 ! R1    R(1,2)                  1.3937         estimate D2E/DX2                !
 ! R2    R(1,6)                  1.0868         estimate D2E/DX2                !
 ! R3    R(1,31)                 1.394          estimate D2E/DX2                !
 ! R4    R(2,3)                  1.4007         estimate D2E/DX2                !
 ! R5    R(2,7)                  1.0871         estimate D2E/DX2                !
 ! R6    R(3,4)                  1.4013         estimate D2E/DX2                !
 ! R7    R(3,10)                 1.8339         estimate D2E/DX2                !
 ! R8    R(4,5)                  1.3931         estimate D2E/DX2                !
 ! R9    R(4,8)                  1.0863         estimate D2E/DX2                !
 ! R10   R(5,9)                  1.0869         estimate D2E/DX2                !
 ! R11   R(5,31)                 1.3948         estimate D2E/DX2                !
 ! R12   R(7,40)                 2.4017         estimate D2E/DX2                !
 ! R13   R(10,20)                1.8379         estimate D2E/DX2                !
 ! R14   R(10,33)                1.6793         estimate D2E/DX2                !
 ! R15   R(11,12)                1.4            estimate D2E/DX2                !
 ! R16   R(11,13)                1.398          estimate D2E/DX2                !
 ! R17   R(11,34)                1.4896         estimate D2E/DX2                !
 ! R18   R(12,14)                1.3779         estimate D2E/DX2                !
 ! R19   R(12,15)                1.0837         estimate D2E/DX2                !
 ! R20   R(13,16)                1.38           estimate D2E/DX2                !
 ! R21   R(13,17)                1.0828         estimate D2E/DX2                !
 ! R22   R(14,18)                1.0825         estimate D2E/DX2                !
 ! R23   R(14,48)                1.343          estimate D2E/DX2                !
 ! R24   R(16,19)                1.0824         estimate D2E/DX2                !
 ! R25   R(16,48)                1.3415         estimate D2E/DX2                !
 ! R26   R(20,21)                1.3988         estimate D2E/DX2                !
 ! R27   R(20,22)                1.4023         estimate D2E/DX2                !
 ! R28   R(21,23)                1.3955         estimate D2E/DX2                !
 ! R29   R(21,24)                1.0878         estimate D2E/DX2                !
 ! R30   R(22,25)                1.3916         estimate D2E/DX2                !
 ! R31   R(22,26)                1.0873         estimate D2E/DX2                !
 ! R32   R(23,27)                1.393          estimate D2E/DX2                !
 ! R33   R(23,28)                1.0867         estimate D2E/DX2                !
 ! R34   R(25,27)                1.3972         estimate D2E/DX2                !
 ! R35   R(25,29)                1.0868         estimate D2E/DX2                !
 ! R36   R(27,30)                1.0868         estimate D2E/DX2                !
 ! R37   R(31,32)                1.0867         estimate D2E/DX2                !
 ! R38   R(33,44)                1.4276         estimate D2E/DX2                !
 ! R39   R(34,35)                1.4043         estimate D2E/DX2                !
 ! R40   R(34,36)                1.4021         estimate D2E/DX2                !
 ! R41   R(35,37)                1.3747         estimate D2E/DX2                !
 ! R42   R(35,38)                1.0831         estimate D2E/DX2                !
 ! R43   R(36,39)                1.3781         estimate D2E/DX2                !
 ! R44   R(36,40)                1.0826         estimate D2E/DX2                !
 ! R45   R(37,41)                1.0825         estimate D2E/DX2                !
 ! R46   R(37,43)                1.3458         estimate D2E/DX2                !
 ! R47   R(39,42)                1.0826         estimate D2E/DX2                !
 ! R48   R(39,43)                1.342          estimate D2E/DX2                !
 ! R49   R(43,50)                1.0185         estimate D2E/DX2                !
 ! R50   R(44,45)                1.0924         estimate D2E/DX2                !
 ! R51   R(44,46)                1.0974         estimate D2E/DX2                !
 ! R52   R(44,47)                1.0972         estimate D2E/DX2                !
 ! R53   R(48,49)                1.0187         estimate D2E/DX2                !
 ! A1    A(2,1,6)              119.6351         estimate D2E/DX2                !
 ! A2    A(2,1,31)             120.1632         estimate D2E/DX2                !
 ! A3    A(6,1,31)             120.2008         estimate D2E/DX2                !
 ! A4    A(1,2,3)              120.6193         estimate D2E/DX2                !
 ! A5    A(1,2,7)              119.1208         estimate D2E/DX2                !
 ! A6    A(3,2,7)              120.2589         estimate D2E/DX2                !
 ! A7    A(2,3,4)              118.7966         estimate D2E/DX2                !
 ! A8    A(2,3,10)             121.2281         estimate D2E/DX2                !
 ! A9    A(4,3,10)             119.4589         estimate D2E/DX2                !
 ! A10   A(3,4,5)              120.5425         estimate D2E/DX2                !
 ! A11   A(3,4,8)              120.0695         estimate D2E/DX2                !
 ! A12   A(5,4,8)              119.3875         estimate D2E/DX2                !
 ! A13   A(4,5,9)              119.6223         estimate D2E/DX2                !
 ! A14   A(4,5,31)             120.2356         estimate D2E/DX2                !
 ! A15   A(9,5,31)             120.1412         estimate D2E/DX2                !
 ! A16   A(2,7,40)              97.8389         estimate D2E/DX2                !
 ! A17   A(3,10,20)            102.2887         estimate D2E/DX2                !
 ! A18   A(3,10,33)             96.6921         estimate D2E/DX2                !
 ! A19   A(20,10,33)           101.8082         estimate D2E/DX2                !
 ! A20   A(12,11,13)           118.8076         estimate D2E/DX2                !
 ! A21   A(12,11,34)           120.6615         estimate D2E/DX2                !
 ! A22   A(13,11,34)           120.5307         estimate D2E/DX2                !
 ! A23   A(11,12,14)           119.5792         estimate D2E/DX2                !
 ! A24   A(11,12,15)           121.9423         estimate D2E/DX2                !
 ! A25   A(14,12,15)           118.4451         estimate D2E/DX2                !
 ! A26   A(11,13,16)           119.556          estimate D2E/DX2                !
 ! A27   A(11,13,17)           122.1187         estimate D2E/DX2                !
 ! A28   A(16,13,17)           118.3241         estimate D2E/DX2                !
 ! A29   A(12,14,18)           123.6685         estimate D2E/DX2                !
 ! A30   A(12,14,48)           119.5237         estimate D2E/DX2                !
 ! A31   A(18,14,48)           116.8056         estimate D2E/DX2                !
 ! A32   A(13,16,19)           123.6552         estimate D2E/DX2                !
 ! A33   A(13,16,48)           119.5266         estimate D2E/DX2                !
 ! A34   A(19,16,48)           116.818          estimate D2E/DX2                !
 ! A35   A(10,20,21)           117.6196         estimate D2E/DX2                !
 ! A36   A(10,20,22)           123.2235         estimate D2E/DX2                !
 ! A37   A(21,20,22)           119.0451         estimate D2E/DX2                !
 ! A38   A(20,21,23)           120.6753         estimate D2E/DX2                !
 ! A39   A(20,21,24)           119.8175         estimate D2E/DX2                !
 ! A40   A(23,21,24)           119.5034         estimate D2E/DX2                !
 ! A41   A(20,22,25)           120.3749         estimate D2E/DX2                !
 ! A42   A(20,22,26)           120.0715         estimate D2E/DX2                !
 ! A43   A(25,22,26)           119.5535         estimate D2E/DX2                !
 ! A44   A(21,23,27)           119.7886         estimate D2E/DX2                !
 ! A45   A(21,23,28)           119.9721         estimate D2E/DX2                !
 ! A46   A(27,23,28)           120.2387         estimate D2E/DX2                !
 ! A47   A(22,25,27)           120.09           estimate D2E/DX2                !
 ! A48   A(22,25,29)           119.8535         estimate D2E/DX2                !
 ! A49   A(27,25,29)           120.0565         estimate D2E/DX2                !
 ! A50   A(23,27,25)           120.0175         estimate D2E/DX2                !
 ! A51   A(23,27,30)           120.0417         estimate D2E/DX2                !
 ! A52   A(25,27,30)           119.9399         estimate D2E/DX2                !
 ! A53   A(1,31,5)             119.6378         estimate D2E/DX2                !
 ! A54   A(1,31,32)            120.1789         estimate D2E/DX2                !
 ! A55   A(5,31,32)            120.1823         estimate D2E/DX2                !
 ! A56   A(10,33,44)           115.3998         estimate D2E/DX2                !
 ! A57   A(11,34,35)           119.7121         estimate D2E/DX2                !
 ! A58   A(11,34,36)           121.1956         estimate D2E/DX2                !
 ! A59   A(35,34,36)           118.2396         estimate D2E/DX2                !
 ! A60   A(34,35,37)           119.7979         estimate D2E/DX2                !
 ! A61   A(34,35,38)           121.8543         estimate D2E/DX2                !
 ! A62   A(37,35,38)           118.3472         estimate D2E/DX2                !
 ! A63   A(34,36,39)           119.7373         estimate D2E/DX2                !
 ! A64   A(34,36,40)           122.1627         estimate D2E/DX2                !
 ! A65   A(39,36,40)           118.0757         estimate D2E/DX2                !
 ! A66   A(35,37,41)           123.6969         estimate D2E/DX2                !
 ! A67   A(35,37,43)           119.6618         estimate D2E/DX2                !
 ! A68   A(41,37,43)           116.6372         estimate D2E/DX2                !
 ! A69   A(36,39,42)           123.4958         estimate D2E/DX2                !
 ! A70   A(36,39,43)           119.6879         estimate D2E/DX2                !
 ! A71   A(42,39,43)           116.8142         estimate D2E/DX2                !
 ! A72   A(7,40,36)            116.7934         estimate D2E/DX2                !
 ! A73   A(37,43,39)           122.7097         estimate D2E/DX2                !
 ! A74   A(37,43,50)           118.6067         estimate D2E/DX2                !
 ! A75   A(39,43,50)           118.6701         estimate D2E/DX2                !
 ! A76   A(33,44,45)           106.7936         estimate D2E/DX2                !
 ! A77   A(33,44,46)           111.247          estimate D2E/DX2                !
 ! A78   A(33,44,47)           111.0451         estimate D2E/DX2                !
 ! A79   A(45,44,46)           109.3109         estimate D2E/DX2                !
 ! A80   A(45,44,47)           109.045          estimate D2E/DX2                !
 ! A81   A(46,44,47)           109.3351         estimate D2E/DX2                !
 ! A82   A(14,48,16)           122.9991         estimate D2E/DX2                !
 ! A83   A(14,48,49)           118.5541         estimate D2E/DX2                !
 ! A84   A(16,48,49)           118.4456         estimate D2E/DX2                !
 ! D1    D(6,1,2,3)            179.8784         estimate D2E/DX2                !
 ! D2    D(6,1,2,7)              0.2425         estimate D2E/DX2                !
 ! D3    D(31,1,2,3)             0.2232         estimate D2E/DX2                !
 ! D4    D(31,1,2,7)          -179.4128         estimate D2E/DX2                !
 ! D5    D(2,1,31,5)             0.4309         estimate D2E/DX2                !
 ! D6    D(2,1,31,32)         -179.9342         estimate D2E/DX2                !
 ! D7    D(6,1,31,5)          -179.2224         estimate D2E/DX2                !
 ! D8    D(6,1,31,32)            0.4125         estimate D2E/DX2                !
 ! D9    D(1,2,3,4)             -0.5174         estimate D2E/DX2                !
 ! D10   D(1,2,3,10)           171.1941         estimate D2E/DX2                !
 ! D11   D(7,2,3,4)            179.1145         estimate D2E/DX2                !
 ! D12   D(7,2,3,10)            -9.174          estimate D2E/DX2                !
 ! D13   D(1,2,7,40)           -97.7703         estimate D2E/DX2                !
 ! D14   D(3,2,7,40)            82.5923         estimate D2E/DX2                !
 ! D15   D(2,3,4,5)              0.1625         estimate D2E/DX2                !
 ! D16   D(2,3,4,8)            179.8868         estimate D2E/DX2                !
 ! D17   D(10,3,4,5)          -171.6985         estimate D2E/DX2                !
 ! D18   D(10,3,4,8)             8.0258         estimate D2E/DX2                !
 ! D19   D(2,3,10,20)           44.7786         estimate D2E/DX2                !
 ! D20   D(2,3,10,33)          148.4545         estimate D2E/DX2                !
 ! D21   D(4,3,10,20)         -143.5638         estimate D2E/DX2                !
 ! D22   D(4,3,10,33)          -39.8879         estimate D2E/DX2                !
 ! D23   D(3,4,5,9)           -179.8559         estimate D2E/DX2                !
 ! D24   D(3,4,5,31)             0.4881         estimate D2E/DX2                !
 ! D25   D(8,4,5,9)              0.4179         estimate D2E/DX2                !
 ! D26   D(8,4,5,31)          -179.238          estimate D2E/DX2                !
 ! D27   D(4,5,31,1)            -0.7847         estimate D2E/DX2                !
 ! D28   D(4,5,31,32)          179.5804         estimate D2E/DX2                !
 ! D29   D(9,5,31,1)           179.5611         estimate D2E/DX2                !
 ! D30   D(9,5,31,32)           -0.0738         estimate D2E/DX2                !
 ! D31   D(2,7,40,36)         -102.1113         estimate D2E/DX2                !
 ! D32   D(3,10,20,21)        -145.1247         estimate D2E/DX2                !
 ! D33   D(3,10,20,22)          38.7624         estimate D2E/DX2                !
 ! D34   D(33,10,20,21)        115.2396         estimate D2E/DX2                !
 ! D35   D(33,10,20,22)        -60.8733         estimate D2E/DX2                !
 ! D36   D(3,10,33,44)         168.0672         estimate D2E/DX2                !
 ! D37   D(20,10,33,44)        -87.842          estimate D2E/DX2                !
 ! D38   D(13,11,12,14)         -0.8578         estimate D2E/DX2                !
 ! D39   D(13,11,12,15)       -178.725          estimate D2E/DX2                !
 ! D40   D(34,11,12,14)        179.0063         estimate D2E/DX2                !
 ! D41   D(34,11,12,15)          1.1391         estimate D2E/DX2                !
 ! D42   D(12,11,13,16)          1.0637         estimate D2E/DX2                !
 ! D43   D(12,11,13,17)       -178.535          estimate D2E/DX2                !
 ! D44   D(34,11,13,16)       -178.8006         estimate D2E/DX2                !
 ! D45   D(34,11,13,17)          1.6007         estimate D2E/DX2                !
 ! D46   D(12,11,34,35)         33.9062         estimate D2E/DX2                !
 ! D47   D(12,11,34,36)       -156.8522         estimate D2E/DX2                !
 ! D48   D(13,11,34,35)       -146.2321         estimate D2E/DX2                !
 ! D49   D(13,11,34,36)         23.0095         estimate D2E/DX2                !
 ! D50   D(11,12,14,18)       -179.2088         estimate D2E/DX2                !
 ! D51   D(11,12,14,48)          0.2375         estimate D2E/DX2                !
 ! D52   D(15,12,14,18)         -1.2671         estimate D2E/DX2                !
 ! D53   D(15,12,14,48)        178.1792         estimate D2E/DX2                !
 ! D54   D(11,13,16,19)        179.4723         estimate D2E/DX2                !
 ! D55   D(11,13,16,48)         -0.6529         estimate D2E/DX2                !
 ! D56   D(17,13,16,19)         -0.9138         estimate D2E/DX2                !
 ! D57   D(17,13,16,48)        178.9609         estimate D2E/DX2                !
 ! D58   D(12,14,48,16)          0.197          estimate D2E/DX2                !
 ! D59   D(12,14,48,49)       -179.3973         estimate D2E/DX2                !
 ! D60   D(18,14,48,16)        179.6807         estimate D2E/DX2                !
 ! D61   D(18,14,48,49)          0.0864         estimate D2E/DX2                !
 ! D62   D(13,16,48,14)          0.0133         estimate D2E/DX2                !
 ! D63   D(13,16,48,49)        179.608          estimate D2E/DX2                !
 ! D64   D(19,16,48,14)        179.8965         estimate D2E/DX2                !
 ! D65   D(19,16,48,49)         -0.5088         estimate D2E/DX2                !
 ! D66   D(10,20,21,23)       -177.3282         estimate D2E/DX2                !
 ! D67   D(10,20,21,24)          1.9594         estimate D2E/DX2                !
 ! D68   D(22,20,21,23)         -1.0474         estimate D2E/DX2                !
 ! D69   D(22,20,21,24)        178.2401         estimate D2E/DX2                !
 ! D70   D(10,20,22,25)        176.9052         estimate D2E/DX2                !
 ! D71   D(10,20,22,26)         -3.2118         estimate D2E/DX2                !
 ! D72   D(21,20,22,25)          0.8449         estimate D2E/DX2                !
 ! D73   D(21,20,22,26)       -179.272          estimate D2E/DX2                !
 ! D74   D(20,21,23,27)          0.4732         estimate D2E/DX2                !
 ! D75   D(20,21,23,28)       -179.8236         estimate D2E/DX2                !
 ! D76   D(24,21,23,27)       -178.8166         estimate D2E/DX2                !
 ! D77   D(24,21,23,28)          0.8866         estimate D2E/DX2                !
 ! D78   D(20,22,25,27)         -0.0719         estimate D2E/DX2                !
 ! D79   D(20,22,25,29)        179.9181         estimate D2E/DX2                !
 ! D80   D(26,22,25,27)       -179.9555         estimate D2E/DX2                !
 ! D81   D(26,22,25,29)          0.0345         estimate D2E/DX2                !
 ! D82   D(21,23,27,25)          0.3151         estimate D2E/DX2                !
 ! D83   D(21,23,27,30)        179.9765         estimate D2E/DX2                !
 ! D84   D(28,23,27,25)       -179.3873         estimate D2E/DX2                !
 ! D85   D(28,23,27,30)          0.2742         estimate D2E/DX2                !
 ! D86   D(22,25,27,23)         -0.5145         estimate D2E/DX2                !
 ! D87   D(22,25,27,30)        179.8237         estimate D2E/DX2                !
 ! D88   D(29,25,27,23)        179.4955         estimate D2E/DX2                !
 ! D89   D(29,25,27,30)         -0.1663         estimate D2E/DX2                !
 ! D90   D(10,33,44,45)       -173.415          estimate D2E/DX2                !
 ! D91   D(10,33,44,46)        -54.2084         estimate D2E/DX2                !
 ! D92   D(10,33,44,47)         67.8128         estimate D2E/DX2                !
 ! D93   D(11,34,35,37)        173.8157         estimate D2E/DX2                !
 ! D94   D(11,34,35,38)         -5.9125         estimate D2E/DX2                !
 ! D95   D(36,34,35,37)          4.2582         estimate D2E/DX2                !
 ! D96   D(36,34,35,38)       -175.4699         estimate D2E/DX2                !
 ! D97   D(11,34,36,39)       -174.1113         estimate D2E/DX2                !
 ! D98   D(11,34,36,40)          7.7166         estimate D2E/DX2                !
 ! D99   D(35,34,36,39)         -4.7159         estimate D2E/DX2                !
 ! D100  D(35,34,36,40)        177.1121         estimate D2E/DX2                !
 ! D101  D(34,35,37,41)        179.3869         estimate D2E/DX2                !
 ! D102  D(34,35,37,43)         -1.3717         estimate D2E/DX2                !
 ! D103  D(38,35,37,41)         -0.8755         estimate D2E/DX2                !
 ! D104  D(38,35,37,43)        178.366          estimate D2E/DX2                !
 ! D105  D(34,36,39,42)       -178.2495         estimate D2E/DX2                !
 ! D106  D(34,36,39,43)          2.2997         estimate D2E/DX2                !
 ! D107  D(40,36,39,42)         -0.0033         estimate D2E/DX2                !
 ! D108  D(40,36,39,43)       -179.4541         estimate D2E/DX2                !
 ! D109  D(34,36,40,7)          89.7247         estimate D2E/DX2                !
 ! D110  D(39,36,40,7)         -88.4764         estimate D2E/DX2                !
 ! D111  D(35,37,43,39)         -1.2063         estimate D2E/DX2                !
 ! D112  D(35,37,43,50)       -179.8462         estimate D2E/DX2                !
 ! D113  D(41,37,43,39)        178.0876         estimate D2E/DX2                !
 ! D114  D(41,37,43,50)         -0.5522         estimate D2E/DX2                !
 ! D115  D(36,39,43,37)          0.7372         estimate D2E/DX2                !
 ! D116  D(36,39,43,50)        179.3762         estimate D2E/DX2                !
 ! D117  D(42,39,43,37)       -178.7497         estimate D2E/DX2                !
 ! D118  D(42,39,43,50)         -0.1107         estimate D2E/DX2                !
 --------------------------------------------------------------------------------
 Trust Radius=3.00D-01 FncErr=1.00D-07 GrdErr=1.00D-06 EigMax=2.50D+02 EigMin=1.00D-04
 Number of steps in this run=    200 maximum allowed number of steps=    300.
 GradGradGradGradGradGradGradGradGradGradGradGradGradGradGradGradGradGrad

                          Input orientation:                          
 ---------------------------------------------------------------------
 Center     Atomic      Atomic             Coordinates (Angstroms)
 Number     Number       Type             X           Y           Z
 ---------------------------------------------------------------------
      1          6           0       -1.235296    2.368550   -2.230404
      2          6           0       -0.319816    1.646263   -1.467068
      3          6           0       -0.525483    1.459919   -0.094177
      4          6           0       -1.662997    2.022249    0.500413
      5          6           0       -2.573712    2.750273   -0.261976
      6          1           0       -1.058859    2.505029   -3.294045
      7          1           0        0.561970    1.232701   -1.949985
      8          1           0       -1.843832    1.889019    1.563288
      9          1           0       -3.449778    3.181908    0.215051
     10         15           0        0.531052    0.320183    0.879403
     11          6           0       -1.898879   -1.437267   -0.075964
     12          6           0       -2.338011   -1.315736    1.247822
     13          6           0       -2.726624   -0.978774   -1.105098
     14          6           0       -3.559960   -0.734869    1.508454
     15          1           0       -1.729311   -1.635486    2.085450
     16          6           0       -3.940567   -0.400060   -0.795599
     17          1           0       -2.450811   -1.067295   -2.148440
     18          1           0       -3.958140   -0.596370    2.505437
     19          1           0       -4.628426   -0.015628   -1.537699
     20          6           0        2.217189    0.745706    0.284581
     21          6           0        3.151692   -0.290637    0.188572
     22          6           0        2.624336    2.057827    0.003279
     23          6           0        4.465783   -0.030384   -0.202479
     24          1           0        2.856841   -1.309080    0.431708
     25          6           0        3.935239    2.320314   -0.382859
     26          1           0        1.914678    2.877684    0.084165
     27          6           0        4.856174    1.275182   -0.491311
     28          1           0        5.181711   -0.844652   -0.276034
     29          1           0        4.241287    3.340207   -0.600121
     30          1           0        5.878583    1.482578   -0.795850
     31          6           0       -2.367211    2.918847   -1.631071
     32          1           0       -3.081716    3.481146   -2.226196
     33          8           0        0.452775    1.168779    2.326388
     34          6           0       -0.572500   -2.041202   -0.383898
     35          6           0       -0.076506   -3.079222    0.421425
     36          6           0        0.094398   -1.755931   -1.583741
     37          6           0        1.084613   -3.723891    0.066574
     38          1           0       -0.586293   -3.396895    1.322698
     39          6           0        1.259954   -2.422933   -1.893271
     40          1           0       -0.259322   -1.000837   -2.274258
     41          1           0        1.527937   -4.524405    0.644911
     42          1           0        1.838215   -2.231559   -2.788269
     43          7           0        1.721999   -3.372907   -1.065599
     44          6           0        0.947218    0.473975    3.471237
     45          1           0        0.722587    1.097035    4.339937
     46          1           0        0.456835   -0.500873    3.587280
     47          1           0        2.032844    0.329014    3.405707
     48          7           0       -4.315774   -0.297227    0.488231
     49          1           0       -5.212387    0.138236    0.698314
     50          1           0        2.579624   -3.862709   -1.314279
 ---------------------------------------------------------------------
                    Distance matrix (angstroms):
                    1          2          3          4          5
     1  C    0.000000
     2  C    1.393730   0.000000
     3  C    2.427532   1.400662   0.000000
     4  C    2.785716   2.411738   1.401317   0.000000
     5  C    2.410763   2.784085   2.426605   1.393075   0.000000
     6  H    1.086779   2.149769   3.408211   3.872463   3.398289
     7  H    2.144517   1.087101   2.162916   3.402692   3.871034
     8  H    3.871998   3.400678   2.160870   1.086349   2.146176
     9  H    3.397901   3.870968   3.407693   2.149146   1.086902
    10  P    4.121492   2.826374   1.833882   2.802590   4.104588
    11  C    4.423369   3.733198   3.206281   3.515125   4.245644
    12  C    5.185364   4.496352   3.576378   3.486604   4.343671
    13  C    3.833399   3.579744   3.437180   3.565825   3.826229
    14  C    5.386495   5.002205   4.073521   3.495185   4.031541
    15  H    5.907872   5.037553   3.972595   3.986949   5.045622
    16  C    4.128239   4.212855   3.951495   3.568551   3.475291
    17  H    3.645439   3.516931   3.783344   4.145160   4.260009
    18  H    6.215531   5.835032   4.771735   4.018080   4.557986
    19  H    4.204459   4.618549   4.592944   4.135289   3.674170
    20  C    4.569292   3.211802   2.859337   4.090475   5.222044
    21  C    5.671718   4.306285   4.082402   5.350506   6.498490
    22  C    4.470195   3.316525   3.207546   4.316206   5.250671
    23  C    6.509199   5.226116   5.210131   6.501485   7.569021
    24  H    6.112069   4.736090   4.402729   5.615284   6.815457
    25  C    5.490918   4.442448   4.552105   5.675320   6.524256
    26  H    3.941926   2.985914   2.827764   3.701998   4.503520
    27  C    6.428523   5.280215   5.399451   6.636356   7.578370
    28  H    7.437890   6.155487   6.157612   7.461368   8.548115
    29  H    5.796111   4.942136   5.149132   6.148883   6.848838
    30  H    7.310962   6.236784   6.442431   7.671178   8.563490
    31  C    1.394008   2.416235   2.807575   2.417236   1.394805
    32  H    2.155726   3.401641   3.894251   3.402285   2.156479
    33  O    5.005336   3.900666   2.626954   2.922172   4.284901
    34  C    4.826468   3.851559   3.513402   4.299165   5.194030
    35  C    6.168728   5.094685   4.590341   5.343051   6.378565
    36  C    4.381507   3.429302   3.597881   4.659053   5.401088
    37  C    6.912013   5.758735   5.430482   6.384019   7.443526
    38  H    6.803388   5.769510   5.059632   5.585926   6.651970
    39  C    5.412785   4.385850   4.636924   5.833782   6.642302
    40  H    3.508164   2.768096   3.298320   4.336837   4.845256
    41  H    7.963399   6.778775   6.369844   7.284341   8.400411
    42  H    5.560457   4.630353   5.145115   6.416292   7.117999
    43  N    6.562522   5.433438   5.417660   6.558834   7.522784
    44  C    6.392299   5.231299   3.981597   4.246901   5.613854
    45  H    6.972764   5.925332   4.620685   4.613998   5.897151
    46  H    6.703905   5.546153   4.285181   4.515372   5.879706
    47  H    6.826873   5.569030   4.480309   4.996701   6.366691
    48  N    4.897621   4.854691   4.218183   3.523825   3.589547
    49  H    5.419312   5.558802   4.933757   4.023287   3.835036
    50  H    7.363524   6.227268   6.281776   7.478347   8.449600
                    6          7          8          9         10
     6  H    0.000000
     7  H    2.460163   0.000000
     8  H    4.958763   4.308332   0.000000
     9  H    4.299816   4.957914   2.463406   0.000000
    10  P    4.971824   2.973059   2.927289   4.947509   0.000000
    11  C    5.157846   4.086130   3.708687   4.881266   3.147367
    12  C    6.071493   5.013022   3.257942   4.746730   3.323174
    13  C    4.439573   4.052074   4.015450   4.424593   4.029638
    14  C    6.310027   5.729087   3.135744   4.126278   4.271442
    15  H    6.821461   5.455383   3.564815   5.446621   3.223109
    16  C    4.794373   4.926597   3.898785   3.754035   4.829054
    17  H    4.001430   3.795552   4.783842   4.963844   4.470395
    18  H    7.187385   6.605125   3.396336   4.447436   4.861780
    19  H    4.709594   5.354299   4.582332   3.832177   5.707483
    20  C    5.160840   2.823154   4.408418   6.168827   1.837918
    21  C    6.137842   3.687905   5.621032   7.459134   2.778147
    22  C    4.963694   2.957943   4.735678   6.180879   2.858118
    23  C    6.819660   4.459699   6.827392   8.552734   4.095787
    24  H    6.615238   4.171276   5.796951   7.745280   2.874756
    25  C    5.783609   3.875272   6.113196   7.459110   4.145156
    26  H    4.515872   2.945090   4.158324   5.374669   3.014571
    27  C    6.659989   4.535386   7.034789   8.551222   4.636546
    28  H    7.698926   5.334746   7.759788   9.537135   4.931582
    29  H    6.003857   4.449841   6.619287   7.735764   5.007532
    30  H    7.444091   5.446177   8.084950   9.535615   5.723087
    31  C    2.156041   3.394834   3.396822   2.156228   4.632004
    32  H    2.486977   4.290483   4.292716   2.486906   5.717388
    33  O    5.971588   4.278244   2.524970   4.872407   1.679288
    34  C    5.419752   3.802380   4.566668   5.993192   2.896532
    35  C    6.778908   4.962249   5.395434   7.115005   3.483508
    36  C    4.734017   3.047077   5.190972   6.338698   3.250845
    37  C    7.395112   5.376567   6.505436   8.262736   4.161929
    38  H    7.508018   5.784645   5.438766   7.259964   3.906615
    39  C    5.623511   3.722104   6.338313   7.618454   3.967834
    40  H    3.737689   2.401742   5.058527   5.819882   3.509325
    41  H    8.462850   6.388337   7.303715   9.184209   4.951646
    42  H    5.575313   3.785845   7.033682   8.141770   4.655307
    43  N    6.873811   4.831090   6.878522   8.447067   4.340542
    44  C    7.342926   5.487598   3.665048   6.104852   2.629534
    45  H    7.964526   6.293435   3.863098   6.226557   3.551828
    46  H    7.660640   5.803244   3.886026   6.340065   2.830590
    47  H    7.692876   5.627038   4.566918   6.955461   2.938991
    48  N    5.724137   5.663741   3.470723   3.595686   4.901626
    49  H    6.228357   6.446281   3.893659   3.550250   5.749173
    50  H    7.596454   5.517087   7.805750   9.397828   5.148347
                   11         12         13         14         15
    11  C    0.000000
    12  C    1.400006   0.000000
    13  C    1.398032   2.408484   0.000000
    14  C    2.400611   1.377859   2.754014   0.000000
    15  H    2.177098   1.083686   3.406685   2.120215   0.000000
    16  C    2.400451   2.753583   1.379984   2.359156   3.836193
    17  H    2.176388   3.407204   1.082807   3.835830   4.332347
    18  H    3.407535   2.173454   3.833905   1.082453   2.494760
    19  H    3.407074   3.833459   2.175234   3.307261   4.914877
    20  C    4.673048   5.091878   5.417225   6.088137   4.948542
    21  C    5.185847   5.684160   6.058194   6.854612   5.406566
    22  C    5.716768   6.128189   6.251577   6.950555   6.077026
    23  C    6.519528   7.074399   7.310601   8.236270   6.796334
    24  H    4.784458   5.258571   5.800513   6.531802   4.886123
    25  C    6.946260   7.431934   7.469005   8.311992   7.336759
    26  H    5.760873   6.084754   6.150471   6.711989   6.136163
    27  C    7.291134   7.841794   7.934474   8.880916   7.647241
    28  H    7.108163   7.687020   7.952804   8.922626   7.346036
    29  H    7.797476   8.269212   8.213427   9.050513   8.223008
    30  H    8.338624   8.917375   8.955639   9.965590   8.712305
    31  C    4.649024   5.120603   3.949339   4.962752   5.912816
    32  H    5.496671   5.969252   4.612357   5.652531   6.826362
    33  O    4.253592   3.889037   5.147393   4.516075   3.561384
    34  C    1.489578   2.511143   2.507814   3.769936   2.756900
    35  C    2.502889   2.984497   3.710159   4.337289   2.754109
    36  C    2.519542   3.758741   2.965002   4.894749   4.099193
    37  C    3.761674   4.348438   4.840869   5.708356   4.044189
    38  H    2.742130   2.721276   4.040114   3.995445   2.234019
    39  C    3.775231   4.902826   4.312727   6.136193   5.038452
    40  H    2.776889   4.101848   2.730385   5.027311   4.644427
    41  H    4.668313   5.060100   5.808211   6.402576   4.585921
    42  H    4.685442   5.879594   5.023972   7.059901   6.069241
    43  N    4.223368   5.105639   5.052097   6.440814   4.985908
    44  C    4.933128   4.351939   6.045696   5.062457   3.678864
    45  H    5.726688   4.974927   6.771591   5.450998   4.308270
    46  H    4.454838   3.734733   5.690449   4.528898   2.884801
    47  H    5.540779   5.144516   6.686569   6.000906   4.444789
    48  N    2.731188   2.350720   2.351298   1.342997   3.321421
    49  H    3.749807   3.267726   3.267878   2.036947   4.147536
    50  H    5.241487   6.102013   6.042938   7.446187   5.923310
                   16         17         18         19         20
    16  C    0.000000
    17  H    2.120084   0.000000
    18  H    3.306915   4.914507   0.000000
    19  H    1.082428   2.494196   4.139262   0.000000
    20  C    6.355905   5.567476   6.698362   7.124800   0.000000
    21  C    7.161055   6.119874   7.484053   7.974075   1.398757
    22  C    7.055308   6.336671   7.525593   7.699116   1.402341
    23  C    8.435353   7.259561   8.866545   9.191717   2.428110
    24  H    6.966876   5.906504   7.159069   7.847344   2.157069
    25  C    8.342608   7.441425   8.896894   8.951348   2.424162
    26  H    6.767679   6.293241   7.240276   7.335796   2.162640
    27  C    8.960004   7.850179   9.496070   9.629058   2.801177
    28  H    9.147872   7.861989   9.556940   9.925617   3.410560
    29  H    8.998363   8.161344   9.611021   9.529559   3.407507
    30  H    9.998001   8.815336  10.582138  10.639182   3.887945
    31  C    3.766777   4.020446   5.656722   3.705800   5.423005
    32  H    4.224688   4.592647   6.307345   3.885070   6.470319
    33  O    5.613333   5.784023   4.754364   6.492503   2.731506
    34  C    3.769180   2.755024   4.679568   4.678113   3.999511
    35  C    4.856956   4.036010   5.057148   5.826127   4.462044
    36  C    4.329030   2.696515   5.872736   5.033472   3.775587
    37  C    6.086348   4.946010   6.415512   6.997408   4.616010
    38  H    4.971856   4.577364   4.539952   5.996138   5.108654
    39  C    5.687031   3.958869   7.064947   6.371387   3.962274
    40  H    4.012347   2.196104   6.057255   4.538967   3.966255
    41  H    6.999273   5.965304   6.999147   7.936855   5.327192
    42  H    6.381179   4.490060   8.018410   6.949225   4.295362
    43  N    6.401201   4.888838   7.261228   7.198757   4.362473
    44  C    6.546775   6.745583   5.112822   7.511122   3.441139
    45  H    7.096480   7.540147   5.304924   8.026080   4.336263
    46  H    6.209423   6.455519   4.546593   7.236073   3.944696
    47  H    7.339221   7.273334   6.128516   8.302323   3.154210
    48  N    1.341482   3.320109   2.070389   2.069164   6.618821
    49  H    2.034469   4.145312   2.319154   2.316126   7.465842
    50  H    7.400801   5.815104   8.246306   8.173490   4.891339
                   21         22         23         24         25
    21  C    0.000000
    22  C    2.414067   0.000000
    23  C    1.395524   2.791754   0.000000
    24  H    1.087786   3.402010   2.150802   0.000000
    25  C    2.785237   1.391571   2.416567   3.872849   0.000000
    26  H    3.402846   1.087347   3.879067   4.305514   2.147426
    27  C    2.412320   2.416248   1.392958   3.395248   1.397206
    28  H    2.154940   3.878475   1.086736   2.474189   3.403250
    29  H    3.871987   2.150144   3.401382   4.959560   1.086761
    30  H    3.398428   3.399947   2.153404   4.293155   2.156142
    31  C    6.638537   5.322405   7.578169   7.030017   6.452686
    32  H    7.675469   6.289310   8.566856   8.079429   7.347318
    33  O    3.739560   3.301957   4.892586   3.938163   4.560001
    34  C    4.154733   5.212649   5.427762   3.600222   6.272363
    35  C    4.272200   5.818820   5.506093   3.426081   6.774656
    36  C    3.825601   4.843962   4.898408   3.448594   5.727997
    37  C    4.009356   5.983562   5.014648   3.017520   6.697796
    38  H    4.990753   6.465524   6.259635   4.124076   7.485964
    39  C    3.529792   5.053281   4.342857   3.032531   5.651273
    40  H    4.266724   4.781013   5.249825   4.138567   5.674661
    41  H    4.557370   6.703698   5.435553   3.485650   7.328137
    42  H    3.788665   5.177795   4.293669   3.500974   5.559052
    43  N    3.621789   5.607993   4.409738   2.790910   6.146327
    44  C    4.027434   4.165098   5.111836   4.008077   5.214527
    45  H    5.005998   4.831808   5.993007   5.061490   5.841434
    46  H    4.342542   4.908164   5.536723   4.046092   5.985014
    47  H    3.462044   3.862017   4.366619   3.493851   4.683761
    48  N    7.473479   7.344834   8.812720   7.243856   8.699973
    49  H    8.390565   8.098279   9.721463   8.202332   9.466227
    50  H    3.917336   6.065534   4.413662   3.105856   6.398047
                   26         27         28         29         30
    26  H    0.000000
    27  C    3.398762   0.000000
    28  H    4.965786   2.155462   0.000000
    29  H    2.468863   2.157372   4.301450   0.000000
    30  H    4.293401   1.086774   2.484319   2.483915   0.000000
    31  C    4.612841   7.495197   8.543200   6.701690   8.411515
    32  H    5.537679   8.419394   9.528897   7.502690   9.291239
    33  O    3.175702   5.228831   5.761019   5.256651   6.267873
    34  C    5.531779   6.362424   5.878291   7.223494   7.362282
    35  C    6.289935   6.642684   5.755745   7.803586   7.599662
    36  C    5.250306   5.749396   5.331161   6.643404   6.675740
    37  C    6.653579   6.287021   5.019324   7.765987   7.129744
    38  H    6.867253   7.398607   6.506901   8.508308   8.372104
    39  C    5.695214   5.345498   4.526213   6.616220   6.147283
    40  H    5.033027   5.876007   5.798460   6.473243   6.784314
    41  H    7.433366   6.782579   5.266762   8.412164   7.555644
    42  H    5.861833   5.165397   4.406110   6.450374   5.838589
    43  N    6.358378   5.635387   4.357189   7.185359   6.397319
    44  C    4.264511   5.623491   5.806182   5.970103   6.598763
    45  H    4.764807   6.360757   6.705306   6.466625   7.287609
    46  H    5.080528   6.256473   6.112923   6.827174   7.248535
    47  H    4.188356   4.904404   4.984784   5.476419   5.811497
    48  N    7.004417   9.357169   9.543898   9.361556  10.427919
    49  H    7.660079  10.202146  10.485833  10.065312  11.271619
    50  H    6.915974   5.679602   4.117946   7.426516   6.302697
                   31         32         33         34         35
    31  C    0.000000
    32  H    1.086679   0.000000
    33  O    5.164934   6.210128   0.000000
    34  C    5.420195   6.339287   4.324444   0.000000
    35  C    6.740690   7.686326   4.685567   1.404294   0.000000
    36  C    5.283494   6.158525   4.896067   1.402054   2.408526
    37  C    7.676135   8.632940   5.426251   2.404244   1.374669
    38  H    7.196181   8.131988   4.788782   2.179579   1.083094
    39  C    6.462174   7.336149   5.599773   2.404540   2.752210
    40  H    4.496755   5.296828   5.136172   2.180344   3.408785
    41  H    8.703693   9.673727   6.032883   3.411243   2.170884
    42  H    6.749178   7.560201   6.296146   3.410100   3.832339
    43  N    7.525129   8.449894   5.808908   2.739139   2.352044
    44  C    6.557163   7.598429   1.427552   4.847445   4.793180
    45  H    6.965543   7.954295   2.032812   5.817250   5.782249
    46  H    6.848424   7.885070   2.092272   4.382054   4.117642
    47  H    7.171949   8.234864   2.089678   5.173669   4.997136
    48  N    4.316419   4.813223   5.316677   4.220682   5.071031
    49  H    4.610082   4.926212   5.983870   5.239245   6.066793
    50  H    8.400062   9.317434   6.564588   3.757577   3.268264
                   36         37         38         39         40
    36  C    0.000000
    37  C    2.752623   0.000000
    38  H    3.406390   2.115822   0.000000
    39  C    1.378122   2.358862   3.834017   0.000000
    40  H    1.082635   3.834146   4.334293   2.115587   0.000000
    41  H    3.832280   1.082512   2.490109   3.306111   4.912369
    42  H    2.172097   3.308338   4.912871   1.082604   2.485668
    43  N    2.352056   1.345833   3.321558   1.342005   3.318615
    44  C    5.590401   5.406726   4.685244   6.104738   6.053224
    45  H    6.604847   6.452443   5.568869   7.178567   7.008052
    46  H    5.333478   4.814283   3.821438   5.863084   5.926253
    47  H    5.744490   5.336196   5.008114   6.020776   6.267737
    48  N    5.086305   6.409680   4.920702   6.424867   4.957945
    49  H    6.079277   7.413996   5.855574   7.427456   5.887829
    50  H    3.269170   2.039873   4.146524   2.037085   4.143849
                   41         42         43         44         45
    41  H    0.000000
    42  H    4.140065   0.000000
    43  N    2.071099   2.069728   0.000000
    44  C    5.771408   6.877151   5.998472   0.000000
    45  H    6.775131   7.945784   7.085127   1.092384   0.000000
    46  H    5.098392   6.749156   5.612353   1.097392   1.786177
    47  H    5.606479   6.705203   5.813211   1.097220   1.783092
    48  N    7.214052   7.235238   6.951899   6.098538   6.493434
    49  H    8.196038   8.214815   7.970271   6.763324   7.028843
    50  H    2.319981   2.320126   1.018464   6.661287   7.747116
                   46         47         48         49         50
    46  H    0.000000
    47  H    1.790387   0.000000
    48  N    5.694153   7.014898   0.000000
    49  H    6.394894   7.736908   1.018665   0.000000
    50  H    6.311375   6.336227   7.969204   8.987409   0.000000
 Stoichiometry    C23H23N2OP(2+)
 Framework group  C1[X(C23H23N2OP)]
 Deg. of freedom   144
 Full point group                 C1      NOp   1
 Largest Abelian subgroup         C1      NOp   1
 Largest concise Abelian subgroup C1      NOp   1
                         Standard orientation:                         
 ---------------------------------------------------------------------
 Center     Atomic      Atomic             Coordinates (Angstroms)
 Number     Number       Type             X           Y           Z
 ---------------------------------------------------------------------
      1          6           0        1.235296   -2.368550   -2.230404
      2          6           0        0.319816   -1.646263   -1.467068
      3          6           0        0.525483   -1.459919   -0.094177
      4          6           0        1.662997   -2.022249    0.500413
      5          6           0        2.573712   -2.750273   -0.261976
      6          1           0        1.058859   -2.505029   -3.294045
      7          1           0       -0.561970   -1.232701   -1.949985
      8          1           0        1.843832   -1.889019    1.563288
      9          1           0        3.449778   -3.181908    0.215051
     10         15           0       -0.531052   -0.320183    0.879403
     11          6           0        1.898879    1.437267   -0.075964
     12          6           0        2.338011    1.315736    1.247822
     13          6           0        2.726624    0.978774   -1.105098
     14          6           0        3.559960    0.734869    1.508454
     15          1           0        1.729311    1.635486    2.085450
     16          6           0        3.940567    0.400060   -0.795599
     17          1           0        2.450811    1.067295   -2.148440
     18          1           0        3.958140    0.596370    2.505437
     19          1           0        4.628426    0.015629   -1.537699
     20          6           0       -2.217189   -0.745706    0.284581
     21          6           0       -3.151692    0.290637    0.188572
     22          6           0       -2.624336   -2.057827    0.003279
     23          6           0       -4.465783    0.030383   -0.202479
     24          1           0       -2.856841    1.309080    0.431708
     25          6           0       -3.935239   -2.320314   -0.382859
     26          1           0       -1.914678   -2.877684    0.084165
     27          6           0       -4.856174   -1.275183   -0.491311
     28          1           0       -5.181711    0.844651   -0.276034
     29          1           0       -4.241287   -3.340208   -0.600121
     30          1           0       -5.878583   -1.482579   -0.795850
     31          6           0        2.367211   -2.918847   -1.631071
     32          1           0        3.081716   -3.481146   -2.226196
     33          8           0       -0.452775   -1.168779    2.326388
     34          6           0        0.572500    2.041202   -0.383898
     35          6           0        0.076506    3.079222    0.421425
     36          6           0       -0.094398    1.755931   -1.583741
     37          6           0       -1.084613    3.723891    0.066574
     38          1           0        0.586293    3.396895    1.322698
     39          6           0       -1.259954    2.422933   -1.893271
     40          1           0        0.259322    1.000837   -2.274258
     41          1           0       -1.527938    4.524405    0.644911
     42          1           0       -1.838215    2.231559   -2.788269
     43          7           0       -1.721999    3.372907   -1.065599
     44          6           0       -0.947218   -0.473975    3.471237
     45          1           0       -0.722587   -1.097035    4.339937
     46          1           0       -0.456835    0.500873    3.587280
     47          1           0       -2.032844   -0.329014    3.405707
     48          7           0        4.315774    0.297228    0.488231
     49          1           0        5.212387   -0.138235    0.698314
     50          1           0       -2.579624    3.862709   -1.314279
 ---------------------------------------------------------------------
 Rotational constants (GHZ):           0.2567379           0.1724360           0.1404017
 Standard basis: 6-31+G(d) (6D, 7F)
 There are   563 symmetry adapted cartesian basis functions of A   symmetry.
 There are   563 symmetry adapted basis functions of A   symmetry.
   563 basis functions,   980 primitive gaussians,   563 cartesian basis functions
    98 alpha electrons       98 beta electrons
       nuclear repulsion energy      2684.2940543955 Hartrees.
 NAtoms=   50 NActive=   50 NUniq=   50 SFac= 1.00D+00 NAtFMM=   60 NAOKFM=F Big=F
 Integral buffers will be    131072 words long.
 Raffenetti 2 integral format.
 Two-electron integral symmetry is turned on.
 Nuclear repulsion after empirical dispersion term =     2684.2459704708 Hartrees.
 ------------------------------------------------------------------------------
 Polarizable Continuum Model (PCM)
 =================================
 Model                : PCM.
 Atomic radii         : SMD-Coulomb.
 Polarization charges : Total charges.
 Charge compensation  : None.
 Solution method      : On-the-fly selection.
 Cavity type          : VdW (van der Waals Surface) (Alpha=1.000).
 Cavity algorithm     : GePol (No added spheres)
                        Default sphere list used, NSphG=   50.
                        Lebedev-Laikov grids with approx.  5.0 points / Ang**2.
                        Smoothing algorithm: York/Karplus (Gamma=1.0000).
                        Polarization charges: spherical gaussians, with
                                              point-specific exponents (IZeta= 3).
                        Self-potential: point-specific (ISelfS= 7).
                        Self-field    : sphere-specific E.n sum rule (ISelfD= 2).
 1st derivatives      : Analytical E(r).r(x)/FMM algorithm (CHGder, D1EAlg=3).
                        Cavity 1st derivative terms included.
 Solvent              : Ethanol, Eps=  24.852000 Eps(inf)=   1.852593
 ------------------------------------------------------------------------------
 ------------------------------------------------------------------------------
 Atomic radii for non-electrostatic terms: SMD-CDS.
 ------------------------------------------------------------------------------
 Nuclear repulsion after PCM non-electrostatic terms =     2684.2446758364 Hartrees.
 One-electron integrals computed using PRISM.
 NBasis=   563 RedAO= T EigKep=  1.18D-06  NBF=   563
 NBsUse=   561 1.00D-06 EigRej=  6.64D-07 NBFU=   561
 ExpMin= 3.48D-02 ExpMax= 1.94D+04 ExpMxC= 2.91D+03 IAcc=3 IRadAn=         5 AccDes= 0.00D+00
 Harris functional with IExCor= 4639 and IRadAn=       5 diagonalized for initial guess.
 HarFok:  IExCor= 4639 AccDes= 0.00D+00 IRadAn=         5 IDoV= 1 UseB2=F ITyADJ=14
 ICtDFT=  3500011 ScaDFX=  1.000000  1.000000  1.000000  1.000000
 FoFCou: FMM=F IPFlag=           0 FMFlag=      100000 FMFlg1=           0
         NFxFlg=           0 DoJE=T BraDBF=F KetDBF=T FulRan=T
         wScrn=  0.000000 ICntrl=       500 IOpCl=  0 I1Cent=   200000004 NGrid=           0
         NMat0=    1 NMatS0=      1 NMatT0=    0 NMatD0=    1 NMtDS0=    0 NMtDT0=    0
 Petite list used in FoFCou.
 Requested convergence on RMS density matrix=1.00D-08 within 128 cycles.
 Requested convergence on MAX density matrix=1.00D-06.
 Requested convergence on             energy=1.00D-06.
 No special actions if energy rises.
 Inv3:  Mode=1 IEnd=    41403675.
 Iteration    1 A*A^-1 deviation from unit magnitude is 1.04D-14 for   1272.
 Iteration    1 A*A^-1 deviation from orthogonality  is 4.84D-15 for   1272    997.
 Iteration    1 A^-1*A deviation from unit magnitude is 8.44D-15 for    773.
 Iteration    1 A^-1*A deviation from orthogonality  is 7.06D-15 for   3696   3653.
 Error on total polarization charges =  0.05696
 SCF Done:  E(RwB97XD) =  -1415.75306433     A.U. after   17 cycles
            NFock= 17  Conv=0.87D-08     -V/T= 2.0081
 SMD-CDS (non-electrostatic) energy       (kcal/mol) =      -0.81
 (included in total energy above)

 **********************************************************************

            Population analysis using the SCF density.

 **********************************************************************

 Orbital symmetries:
       Occupied  (A) (A) (A) (A) (A) (A) (A) (A) (A) (A) (A) (A)
                 (A) (A) (A) (A) (A) (A) (A) (A) (A) (A) (A) (A)
                 (A) (A) (A) (A) (A) (A) (A) (A) (A) (A) (A) (A)
                 (A) (A) (A) (A) (A) (A) (A) (A) (A) (A) (A) (A)
                 (A) (A) (A) (A) (A) (A) (A) (A) (A) (A) (A) (A)
                 (A) (A) (A) (A) (A) (A) (A) (A) (A) (A) (A) (A)
                 (A) (A) (A) (A) (A) (A) (A) (A) (A) (A) (A) (A)
                 (A) (A) (A) (A) (A) (A) (A) (A) (A) (A) (A) (A)
                 (A) (A)
       Virtual   (A) (A) (A) (A) (A) (A) (A) (A) (A) (A) (A) (A)
                 (A) (A) (A) (A) (A) (A) (A) (A) (A) (A) (A) (A)
                 (A) (A) (A) (A) (A) (A) (A) (A) (A) (A) (A) (A)
                 (A) (A) (A) (A) (A) (A) (A) (A) (A) (A) (A) (A)
                 (A) (A) (A) (A) (A) (A) (A) (A) (A) (A) (A) (A)
                 (A) (A) (A) (A) (A) (A) (A) (A) (A) (A) (A) (A)
                 (A) (A) (A) (A) (A) (A) (A) (A) (A) (A) (A) (A)
                 (A) (A) (A) (A) (A) (A) (A) (A) (A) (A) (A) (A)
                 (A) (A) (A) (A) (A) (A) (A) (A) (A) (A) (A) (A)
                 (A) (A) (A) (A) (A) (A) (A) (A) (A) (A) (A) (A)
                 (A) (A) (A) (A) (A) (A) (A) (A) (A) (A) (A) (A)
                 (A) (A) (A) (A) (A) (A) (A) (A) (A) (A) (A) (A)
                 (A) (A) (A) (A) (A) (A) (A) (A) (A) (A) (A) (A)
                 (A) (A) (A) (A) (A) (A) (A) (A) (A) (A) (A) (A)
                 (A) (A) (A) (A) (A) (A) (A) (A) (A) (A) (A) (A)
                 (A) (A) (A) (A) (A) (A) (A) (A) (A) (A) (A) (A)
                 (A) (A) (A) (A) (A) (A) (A) (A) (A) (A) (A) (A)
                 (A) (A) (A) (A) (A) (A) (A) (A) (A) (A) (A) (A)
                 (A) (A) (A) (A) (A) (A) (A) (A) (A) (A) (A) (A)
                 (A) (A) (A) (A) (A) (A) (A) (A) (A) (A) (A) (A)
                 (A) (A) (A) (A) (A) (A) (A) (A) (A) (A) (A) (A)
                 (A) (A) (A) (A) (A) (A) (A) (A) (A) (A) (A) (A)
                 (A) (A) (A) (A) (A) (A) (A) (A) (A) (A) (A) (A)
                 (A) (A) (A) (A) (A) (A) (A) (A) (A) (A) (A) (A)
                 (A) (A) (A) (A) (A) (A) (A) (A) (A) (A) (A) (A)
                 (A) (A) (A) (A) (A) (A) (A) (A) (A) (A) (A) (A)
                 (A) (A) (A) (A) (A) (A) (A) (A) (A) (A) (A) (A)
                 (A) (A) (A) (A) (A) (A) (A) (A) (A) (A) (A) (A)
                 (A) (A) (A) (A) (A) (A) (A) (A) (A) (A) (A) (A)
                 (A) (A) (A) (A) (A) (A) (A) (A) (A) (A) (A) (A)
                 (A) (A) (A) (A) (A) (A) (A) (A) (A) (A) (A) (A)
                 (A) (A) (A) (A) (A) (A) (A) (A) (A) (A) (A) (A)
                 (A) (A) (A) (A) (A) (A) (A) (A) (A) (A) (A) (A)
                 (A) (A) (A) (A) (A) (A) (A) (A) (A) (A) (A) (A)
                 (A) (A) (A) (A) (A) (A) (A) (A) (A) (A) (A) (A)
                 (A) (A) (A) (A) (A) (A) (A) (A) (A) (A) (A) (A)
                 (A) (A) (A) (A) (A) (A) (A) (A) (A) (A) (A) (A)
                 (A) (A) (A) (A) (A) (A) (A) (A) (A) (A) (A) (A)
                 (A) (A) (A) (A) (A) (A) (A)
 The electronic state is 1-A.
 Alpha  occ. eigenvalues --  -77.28803 -19.29800 -14.58432 -14.58176 -10.40264
 Alpha  occ. eigenvalues --  -10.40200 -10.40168 -10.39999 -10.39259 -10.38886
 Alpha  occ. eigenvalues --  -10.35863 -10.35846 -10.35587 -10.35547 -10.34352
 Alpha  occ. eigenvalues --  -10.32320 -10.31995 -10.31937 -10.31776 -10.31771
 Alpha  occ. eigenvalues --  -10.31692 -10.31614 -10.31485 -10.31431 -10.31416
 Alpha  occ. eigenvalues --  -10.31392 -10.31371  -6.71138  -4.86157  -4.85872
 Alpha  occ. eigenvalues --   -4.85393  -1.15189  -1.14966  -1.13683  -1.00633
 Alpha  occ. eigenvalues --   -0.97281  -0.96789  -0.94938  -0.93199  -0.92714
 Alpha  occ. eigenvalues --   -0.87719  -0.85824  -0.85788  -0.85290  -0.83355
 Alpha  occ. eigenvalues --   -0.80662  -0.79791  -0.78211  -0.75721  -0.73613
 Alpha  occ. eigenvalues --   -0.71677  -0.71223  -0.71073  -0.70766  -0.69975
 Alpha  occ. eigenvalues --   -0.66489  -0.65487  -0.64128  -0.61935  -0.61692
 Alpha  occ. eigenvalues --   -0.60910  -0.60191  -0.59010  -0.57691  -0.57571
 Alpha  occ. eigenvalues --   -0.56592  -0.56481  -0.56035  -0.55543  -0.55051
 Alpha  occ. eigenvalues --   -0.54576  -0.54295  -0.53811  -0.53604  -0.52466
 Alpha  occ. eigenvalues --   -0.51471  -0.51281  -0.51084  -0.49873  -0.48967
 Alpha  occ. eigenvalues --   -0.48698  -0.48011  -0.46876  -0.46253  -0.45692
 Alpha  occ. eigenvalues --   -0.43458  -0.43340  -0.42363  -0.42040  -0.40096
 Alpha  occ. eigenvalues --   -0.39316  -0.39213  -0.38158  -0.35355  -0.34399
 Alpha  occ. eigenvalues --   -0.34330  -0.33764  -0.30454
 Alpha virt. eigenvalues --   -0.06279  -0.00184   0.00733   0.01076   0.02814
 Alpha virt. eigenvalues --    0.03492   0.04161   0.04953   0.05164   0.05513
 Alpha virt. eigenvalues --    0.06108   0.06609   0.07346   0.07934   0.08123
 Alpha virt. eigenvalues --    0.08355   0.08731   0.09456   0.09524   0.09848
 Alpha virt. eigenvalues --    0.09949   0.10077   0.10630   0.11132   0.11546
 Alpha virt. eigenvalues --    0.11641   0.12104   0.12272   0.12669   0.13128
 Alpha virt. eigenvalues --    0.13222   0.13619   0.13895   0.14565   0.14774
 Alpha virt. eigenvalues --    0.15486   0.15541   0.15808   0.15959   0.16385
 Alpha virt. eigenvalues --    0.16564   0.17197   0.17315   0.17436   0.17706
 Alpha virt. eigenvalues --    0.18108   0.18382   0.18728   0.19079   0.19149
 Alpha virt. eigenvalues --    0.19668   0.19888   0.19913   0.20205   0.20693
 Alpha virt. eigenvalues --    0.20752   0.21005   0.21154   0.21339   0.21692
 Alpha virt. eigenvalues --    0.22077   0.22532   0.22652   0.22779   0.23047
 Alpha virt. eigenvalues --    0.23385   0.23516   0.23683   0.23957   0.24230
 Alpha virt. eigenvalues --    0.24426   0.24552   0.24931   0.25248   0.25438
 Alpha virt. eigenvalues --    0.25717   0.25937   0.26079   0.26215   0.26724
 Alpha virt. eigenvalues --    0.26843   0.27050   0.27212   0.27589   0.27658
 Alpha virt. eigenvalues --    0.28022   0.28208   0.28354   0.28757   0.29004
 Alpha virt. eigenvalues --    0.29099   0.29529   0.29964   0.30112   0.30242
 Alpha virt. eigenvalues --    0.30504   0.30728   0.30866   0.31130   0.31231
 Alpha virt. eigenvalues --    0.31599   0.31715   0.32006   0.32297   0.32542
 Alpha virt. eigenvalues --    0.32833   0.33011   0.33135   0.33523   0.33664
 Alpha virt. eigenvalues --    0.34389   0.34512   0.34833   0.34891   0.35295
 Alpha virt. eigenvalues --    0.35478   0.35777   0.36082   0.36379   0.36538
 Alpha virt. eigenvalues --    0.36734   0.36960   0.37642   0.37827   0.38091
 Alpha virt. eigenvalues --    0.38263   0.38373   0.38436   0.38697   0.38993
 Alpha virt. eigenvalues --    0.39591   0.39802   0.40344   0.41049   0.41151
 Alpha virt. eigenvalues --    0.41407   0.42018   0.42350   0.42698   0.42865
 Alpha virt. eigenvalues --    0.43232   0.43487   0.43919   0.44729   0.44928
 Alpha virt. eigenvalues --    0.45121   0.45773   0.46333   0.46674   0.46906
 Alpha virt. eigenvalues --    0.46972   0.47348   0.48229   0.49163   0.49755
 Alpha virt. eigenvalues --    0.50358   0.51233   0.51634   0.52571   0.53163
 Alpha virt. eigenvalues --    0.55109   0.56271   0.58609   0.60883   0.63590
 Alpha virt. eigenvalues --    0.64781   0.65118   0.66404   0.66598   0.67887
 Alpha virt. eigenvalues --    0.71101   0.72014   0.73555   0.74536   0.75010
 Alpha virt. eigenvalues --    0.76011   0.76296   0.76990   0.77751   0.78300
 Alpha virt. eigenvalues --    0.78829   0.79168   0.79849   0.80133   0.80686
 Alpha virt. eigenvalues --    0.81101   0.81469   0.82144   0.82579   0.83435
 Alpha virt. eigenvalues --    0.83826   0.84447   0.84612   0.85433   0.85688
 Alpha virt. eigenvalues --    0.86092   0.86284   0.86620   0.87845   0.88635
 Alpha virt. eigenvalues --    0.89119   0.89221   0.90264   0.90445   0.90734
 Alpha virt. eigenvalues --    0.91523   0.91971   0.93256   0.93612   0.94391
 Alpha virt. eigenvalues --    0.94864   0.96019   0.96432   0.96765   0.97089
 Alpha virt. eigenvalues --    0.97291   0.98343   0.98556   0.98969   0.99940
 Alpha virt. eigenvalues --    1.01053   1.01316   1.01748   1.02100   1.02676
 Alpha virt. eigenvalues --    1.02981   1.03573   1.03732   1.04280   1.04598
 Alpha virt. eigenvalues --    1.05144   1.05630   1.05912   1.06241   1.07478
 Alpha virt. eigenvalues --    1.07884   1.08809   1.09413   1.10166   1.10630
 Alpha virt. eigenvalues --    1.10808   1.11025   1.12391   1.12806   1.13123
 Alpha virt. eigenvalues --    1.13384   1.13852   1.14530   1.14853   1.15737
 Alpha virt. eigenvalues --    1.16287   1.18199   1.18424   1.18791   1.19569
 Alpha virt. eigenvalues --    1.20179   1.21364   1.21828   1.22687   1.23481
 Alpha virt. eigenvalues --    1.23902   1.25182   1.25897   1.26270   1.26664
 Alpha virt. eigenvalues --    1.26953   1.27544   1.28467   1.28696   1.29594
 Alpha virt. eigenvalues --    1.30050   1.30716   1.31536   1.32453   1.33164
 Alpha virt. eigenvalues --    1.33893   1.34473   1.35010   1.36640   1.37824
 Alpha virt. eigenvalues --    1.38185   1.39290   1.39719   1.40218   1.42154
 Alpha virt. eigenvalues --    1.43844   1.44465   1.45247   1.46606   1.46979
 Alpha virt. eigenvalues --    1.47379   1.48384   1.49305   1.49810   1.51105
 Alpha virt. eigenvalues --    1.51571   1.51875   1.52138   1.52867   1.53317
 Alpha virt. eigenvalues --    1.54218   1.54590   1.55082   1.55492   1.55785
 Alpha virt. eigenvalues --    1.56545   1.56751   1.57278   1.57355   1.57946
 Alpha virt. eigenvalues --    1.58971   1.59511   1.60038   1.60630   1.61062
 Alpha virt. eigenvalues --    1.62482   1.62755   1.64982   1.66033   1.67046
 Alpha virt. eigenvalues --    1.69522   1.72740   1.73524   1.76370   1.76617
 Alpha virt. eigenvalues --    1.81053   1.82381   1.86222   1.88356   1.89608
 Alpha virt. eigenvalues --    1.90930   1.93319   1.93964   1.94322   1.95666
 Alpha virt. eigenvalues --    1.96740   1.97196   1.98802   1.99189   1.99447
 Alpha virt. eigenvalues --    2.01243   2.02679   2.04602   2.06439   2.06879
 Alpha virt. eigenvalues --    2.09397   2.10584   2.11508   2.12202   2.12814
 Alpha virt. eigenvalues --    2.14138   2.14328   2.16495   2.17608   2.19103
 Alpha virt. eigenvalues --    2.20017   2.20752   2.21552   2.21801   2.22356
 Alpha virt. eigenvalues --    2.22966   2.23290   2.23394   2.24133   2.24921
 Alpha virt. eigenvalues --    2.25756   2.26273   2.26331   2.26708   2.27267
 Alpha virt. eigenvalues --    2.28032   2.28341   2.28906   2.29400   2.29470
 Alpha virt. eigenvalues --    2.30532   2.31825   2.32420   2.34204   2.34719
 Alpha virt. eigenvalues --    2.35624   2.36728   2.36996   2.38052   2.38287
 Alpha virt. eigenvalues --    2.38801   2.39655   2.40446   2.41784   2.42065
 Alpha virt. eigenvalues --    2.45431   2.48800   2.49581   2.51053   2.61560
 Alpha virt. eigenvalues --    2.63290   2.68145   2.68943   2.69111   2.69873
 Alpha virt. eigenvalues --    2.70897   2.71082   2.72176   2.72355   2.72539
 Alpha virt. eigenvalues --    2.73181   2.74522   2.75639   2.76073   2.76883
 Alpha virt. eigenvalues --    2.78188   2.80592   2.81049   2.81770   2.82030
 Alpha virt. eigenvalues --    2.84301   2.85463   2.86210   2.86942   2.87430
 Alpha virt. eigenvalues --    2.88847   2.89982   2.90997   2.91781   2.94468
 Alpha virt. eigenvalues --    2.95598   2.98044   3.03352   3.08037   3.14153
 Alpha virt. eigenvalues --    3.16254   3.25640   3.45119   3.45396   3.47463
 Alpha virt. eigenvalues --    3.55837   3.73902   4.29013   4.30773   4.37253
 Alpha virt. eigenvalues --    4.37692   4.39048   4.41339   4.42831   4.43841
 Alpha virt. eigenvalues --    4.45967   4.46221   4.47539   4.48170   4.49759
 Alpha virt. eigenvalues --    4.50370   4.53670   4.54289   4.55623   4.58399
 Alpha virt. eigenvalues --    4.58563   4.61704   4.65108   4.66736   4.76503
 Alpha virt. eigenvalues --    4.79438   4.80491   4.86316
          Condensed to atoms (all electrons):
               1          2          3          4          5          6
     1  C   14.078934  -3.698201  -1.989562  -2.378858   0.713952   0.303321
     2  C   -3.698201  33.045078  -4.164048 -20.839040   0.603035  -0.065505
     3  C   -1.989562  -4.164048  29.499515 -12.806577   1.295350   0.075013
     4  C   -2.378858 -20.839040 -12.806577  46.455600  -7.604683   0.019713
     5  C    0.713952   0.603035   1.295350  -7.604683  11.971552   0.007313
     6  H    0.303321  -0.065505   0.075013   0.019713   0.007313   0.447650
     7  H   -0.037771   0.169258   0.081837   0.066280  -0.005403  -0.003243
     8  H   -0.005806   0.067907   0.071324   0.175434  -0.018771   0.000013
     9  H    0.005261   0.002238   0.087684  -0.100663   0.317373  -0.000123
    10  P    0.277264  -1.971842  -4.564302   3.120233  -0.421845   0.001669
    11  C   -0.085508   1.187850  -0.673012  -0.539102   0.002856  -0.000630
    12  C   -0.214581   0.112323   0.187428   0.155738  -0.187311   0.000638
    13  C    0.142364  -2.307136  -0.221866   1.931897   0.031331   0.006600
    14  C    0.085377  -0.073626   0.374667  -0.367818   0.232091   0.000084
    15  H   -0.000673  -0.001205  -0.020454   0.014013  -0.001740   0.000000
    16  C   -0.422991   0.602811  -0.193241   0.481766  -0.538877  -0.004988
    17  H    0.017995   0.013170  -0.007143  -0.023472   0.001139  -0.000026
    18  H    0.000831  -0.000533  -0.002190  -0.000071   0.000735  -0.000000
    19  H   -0.004939   0.004622  -0.007199   0.002238  -0.002314   0.000001
    20  C   -0.538734   3.020460  -0.302147  -1.661471  -0.895758   0.000571
    21  C    0.362926  -0.650307  -3.144561   0.885500  -0.386936   0.000147
    22  C    0.292151   0.492224   2.217876  -1.631598   1.025466  -0.001848
    23  C   -0.134796  -0.575119   1.023340   0.330605  -0.071842   0.000114
    24  H   -0.000467   0.000300   0.003765  -0.006716  -0.000025  -0.000000
    25  C   -0.185908   0.008466   0.109625   0.357079   0.142119  -0.001400
    26  H    0.004651   0.109772  -0.012107  -0.077848  -0.006395  -0.000003
    27  C    0.040967   0.062495  -0.177594  -0.066655   0.025390  -0.000096
    28  H   -0.000116  -0.000192   0.000373  -0.000228  -0.000003  -0.000000
    29  H   -0.001029  -0.001833   0.001198   0.000168   0.000024   0.000000
    30  H    0.000151  -0.000421   0.000572   0.000059   0.000006   0.000000
    31  C   -0.237108   0.134456  -1.721261   1.699096  -0.128581  -0.032879
    32  H    0.001095   0.018896  -0.015643   0.019405  -0.011366  -0.002879
    33  O   -0.033018  -0.041284   0.421270  -0.189511  -0.079207   0.000017
    34  C    0.388628   1.862555  -0.730675  -2.161453   0.322465  -0.004092
    35  C   -0.058105  -0.644479   0.309854   0.541872  -0.032183  -0.000140
    36  C    0.010338  -0.568650   0.879412   0.196252   0.033211   0.002955
    37  C   -0.058528   0.310950  -0.057112  -0.171389   0.004124  -0.000050
    38  H   -0.000087   0.000029   0.000637   0.000128   0.000474  -0.000000
    39  C    0.070494  -0.171589   0.186508   0.041818  -0.021518   0.001893
    40  H    0.008784  -0.017998   0.005223   0.005409   0.001906  -0.000008
    41  H    0.000009  -0.000035   0.000622  -0.000023  -0.000004  -0.000000
    42  H    0.004314   0.003321  -0.005068  -0.000636   0.000143  -0.000000
    43  N    0.020424  -0.009367  -0.027903  -0.005355   0.001142  -0.000001
    44  C   -0.026862  -0.009610   0.102850   0.002400   0.078821  -0.000027
    45  H    0.000091  -0.001101  -0.013010   0.008638   0.001083   0.000000
    46  H    0.000246   0.001241  -0.007313   0.008252   0.004288  -0.000000
    47  H   -0.000264   0.006767   0.015503  -0.021150  -0.003223   0.000000
    48  N   -0.006349   0.020250   0.106824  -0.185980   0.070236   0.000025
    49  H    0.000080  -0.000971  -0.000525   0.001877  -0.001393   0.000000
    50  H   -0.000016   0.000039  -0.000030  -0.000035  -0.000005   0.000000
               7          8          9         10         11         12
     1  C   -0.037771  -0.005806   0.005261   0.277264  -0.085508  -0.214581
     2  C    0.169258   0.067907   0.002238  -1.971842   1.187850   0.112323
     3  C    0.081837   0.071324   0.087684  -4.564302  -0.673012   0.187428
     4  C    0.066280   0.175434  -0.100663   3.120233  -0.539102   0.155738
     5  C   -0.005403  -0.018771   0.317373  -0.421845   0.002856  -0.187311
     6  H   -0.003243   0.000013  -0.000123   0.001669  -0.000630   0.000638
     7  H    0.458493  -0.000123   0.000014  -0.011622  -0.007233  -0.006608
     8  H   -0.000123   0.457523  -0.003004  -0.018298  -0.032569   0.048811
     9  H    0.000014  -0.003004   0.453866  -0.013275   0.003625  -0.004996
    10  P   -0.011622  -0.018298  -0.013275  22.143872   0.130952  -0.208635
    11  C   -0.007233  -0.032569   0.003625   0.130952  11.436267  -3.279195
    12  C   -0.006608   0.048811  -0.004996  -0.208635  -3.279195  15.232187
    13  C    0.017203   0.013220  -0.012248   0.736077  -3.144650  -2.144224
    14  C    0.000075  -0.002687   0.002606  -0.443217   0.759907  -2.985283
    15  H   -0.000000  -0.000039   0.000000   0.016766   0.018934   0.199464
    16  C    0.000127  -0.019044   0.014447  -0.320713   1.042133  -1.092976
    17  H    0.000006  -0.000001   0.000001  -0.008681  -0.009796  -0.005127
    18  H    0.000000  -0.000073  -0.000004   0.007610   0.056741  -0.100128
    19  H   -0.000000   0.000002  -0.000032  -0.000555   0.068000   0.003364
    20  C    0.011173   0.000465  -0.000833  -3.546230  -0.149727   0.281724
    21  C   -0.075265  -0.008880  -0.000431   8.266487   0.304768  -0.635136
    22  C    0.098996   0.010359   0.001777  -4.632557  -0.101336   0.368298
    23  C   -0.007079  -0.000215  -0.000009  -1.545085  -0.076292   0.015809
    24  H    0.000013   0.000000  -0.000000   0.055308   0.001852   0.000445
    25  C   -0.009919   0.000649   0.000034  -1.254606   0.003021   0.014583
    26  H   -0.000672   0.000010  -0.000000   0.006920   0.000212   0.000614
    27  C   -0.000445  -0.000028   0.000004   0.376149   0.008272  -0.003886
    28  H   -0.000000  -0.000000  -0.000000  -0.003892  -0.000058   0.000067
    29  H   -0.000006   0.000000  -0.000000   0.003230   0.000025  -0.000008
    30  H    0.000000   0.000000  -0.000000  -0.000029  -0.000001  -0.000000
    31  C    0.003135   0.009841   0.000124  -0.182702   0.043905   0.061441
    32  H   -0.000123  -0.000127  -0.002767   0.002513   0.001630   0.000063
    33  O    0.000123   0.004523   0.000070  -0.153260  -0.108479   0.069429
    34  C   -0.013535  -0.005353   0.000232   0.473618   2.536868  -1.140968
    35  C   -0.005656  -0.000356   0.000052  -0.033100  -2.131149   2.701491
    36  C    0.013007  -0.001630  -0.000383  -0.398552  -1.745928  -1.972333
    37  C    0.001035   0.000338   0.000020  -0.632709   0.190048  -0.197940
    38  H    0.000000  -0.000000  -0.000000   0.006079  -0.001542   0.003326
    39  C   -0.002315   0.000208  -0.000016  -0.496465   0.376633   0.393777
    40  H    0.000768  -0.000001   0.000000   0.016019   0.016575  -0.003026
    41  H   -0.000000  -0.000000  -0.000000  -0.000361   0.009334  -0.009103
    42  H   -0.000021   0.000000  -0.000000   0.003197   0.003003   0.001577
    43  N   -0.000269   0.000002  -0.000000   0.140008  -0.080447   0.013539
    44  C   -0.000502  -0.002982   0.000092  -0.398103  -0.038584  -0.003993
    45  H    0.000000   0.000049   0.000000  -0.002632  -0.002174   0.002218
    46  H   -0.000000   0.000010   0.000000  -0.004134   0.014998  -0.014413
    47  H   -0.000000  -0.000010  -0.000000  -0.030262  -0.002169   0.001198
    48  N    0.000028   0.003390   0.001033   0.029198   0.033815  -0.087567
    49  H    0.000000  -0.000019  -0.000050  -0.000812  -0.004371   0.037603
    50  H   -0.000000   0.000000  -0.000000  -0.004681  -0.000142   0.000378
              13         14         15         16         17         18
     1  C    0.142364   0.085377  -0.000673  -0.422991   0.017995   0.000831
     2  C   -2.307136  -0.073626  -0.001205   0.602811   0.013170  -0.000533
     3  C   -0.221866   0.374667  -0.020454  -0.193241  -0.007143  -0.002190
     4  C    1.931897  -0.367818   0.014013   0.481766  -0.023472  -0.000071
     5  C    0.031331   0.232091  -0.001740  -0.538877   0.001139   0.000735
     6  H    0.006600   0.000084   0.000000  -0.004988  -0.000026  -0.000000
     7  H    0.017203   0.000075  -0.000000   0.000127   0.000006   0.000000
     8  H    0.013220  -0.002687  -0.000039  -0.019044  -0.000001  -0.000073
[...]
 052,0.00000939,0.00000864,-0.00000186,0.00001339,0.00000386,-0.0000009
 2,0.00000276,0.00381958,0.00270155,0.00231693,0.00000203,0.00000338,0.
 00000349,0.00000006,-0.00000341,0.00000009,0.00000156,0.00000331,0.000
 00377,0.00000035,-0.00000092,0.00000238,-0.00000145,-0.00000055,-0.000
 00104,0.00000082,-0.00000197,-0.00000632,-0.00000099,-0.00000049,-0.00
 000289,-0.00000008,-0.00000073,-0.00000034,-0.00000052,0.00000031,-0.0
 0000055,0.00000093,0.00000227,0.00000202,0.05887384,-0.07025146,-0.012
 45445,0.02816862,-0.00449013,-0.00552191,-0.02260562,0.00711857,0.0043
 6754,-0.06665118,0.06555291,-0.00012950,0.00005961,-0.00005547,-0.0000
 6324,-0.00004967,0.00016702,0.00006012,-0.00018616,-0.00035274,-0.0000
 8428,0.00001462,-0.00017195,0.00005621,-0.00009541,0.00009315,-0.00000
 255,0.00001502,-0.00001738,0.00001640,0.00001825,0.00000615,0.00005632
 ,0.00003386,-0.00001685,-0.00001777,0.00000345,-0.00000105,-0.00214982
 ,0.00335374,0.00205057,-0.00000572,0.00000540,-0.00000553,-0.00000806,
 -0.00000716,0.00000923,0.00000455,-0.00000876,0.00000589,0.00000961,-0
 .00000317,-0.00000438,-0.00000366,0.00000102,-0.00000854,-0.00000533,0
 .00000589,0.00000270,0.00000080,0.00000076,0.00000040,-0.00000160,-0.0
 0000084,-0.00000114,0.00000070,-0.00000042,0.00000057,0.00048869,0.000
 03316,-0.00015289,0.00009996,0.00012374,0.00003350,0.00003612,-0.00014
 848,-0.00015068,-0.00003576,-0.00003688,-0.00003861,-0.00000456,0.0000
 1653,0.00003366,0.00005226,0.00002371,-0.00003832,-0.00005614,0.000007
 57,0.00002913,0.00001057,0.00003204,0.00000044,0.00000572,-0.00000420,
 -0.00002374,0.00002144,0.00000020,0.00000342,0.00000450,0.00000246,0.0
 0000069,0.00003843,0.00001065,-0.00014410,-0.00000173,0.00001525,-0.00
 000792,-0.04031734,0.00652413,-0.00724307,-0.00000514,-0.00000094,-0.0
 0000218,0.00000290,0.00000088,-0.00000127,0.00000059,-0.00000264,-0.00
 000381,-0.00000363,0.00000051,0.00000100,0.00000077,0.00000114,0.00000
 069,-0.00000300,-0.00000016,0.00000256,0.00000121,0.00000045,0.0000038
 1,0.00000078,0.00000001,-0.00000025,0.00000004,-0.00000011,0.00000008,
 0.00000376,-0.00000120,-0.00000055,0.05433920,-0.01396920,-0.06108777,
 0.01346349,-0.00187396,-0.00083502,0.01620051,-0.00537694,-0.00095835,
 -0.04207174,0.01145944,0.06888746,-0.00007067,0.00015370,-0.00013022,-
 0.00013034,-0.00014076,0.00014482,-0.00002319,0.00007208,0.00003155,-0
 .00052898,-0.00058208,0.00011795,-0.00049108,-0.00083934,0.00044019,-0
 .00001499,0.00000474,0.00000822,0.00002026,0.00000976,-0.00001797,0.00
 001064,0.00002296,-0.00007523,0.00003884,0.00003595,-0.00001063,0.0001
 5146,0.00012205,0.00000464,-0.00092784,-0.00005398,-0.01948124,-0.0517
 2443,0.02907450,-0.00926962,0.00029399,-0.00280970,0.04274946,-0.21900
 956,0.08972805,-0.11595160,-0.00318220,0.00504604,0.00395522,-0.158087
 86,0.03115036,0.08915211,-0.00412014,0.00552584,0.00112615,0.00933061,
 -0.00393792,0.00676162,0.01184581,-0.00053432,-0.02404799,-0.00005199,
 0.00005353,-0.00001930,0.00000735,-0.00000446,-0.00005674,0.00000241,-
 0.00001295,0.00000982,-0.00001071,-0.00000941,-0.00001511,0.00001546,0
 .00000277,0.00006444,0.00000263,-0.00000848,-0.00000665,-0.00000113,-0
 .00000505,-0.00000026,0.00001077,0.00001453,0.00000397,0.00001041,-0.0
 0000781,-0.00000448,-0.00000138,-0.00000385,0.00000266,-0.00000315,-0.
 00000110,0.00000539,0.00020460,-0.00021950,-0.00055783,0.00000547,0.00
 000404,0.00001590,-0.00002152,-0.00009051,-0.00003346,0.00123917,-0.00
 101795,-0.00082959,-0.00159838,0.00084363,0.00085978,-0.00150377,0.000
 69842,0.00020005,0.00104332,-0.00048522,-0.00094094,0.00020868,-0.0002
 2126,0.00016028,0.00116534,-0.00053913,0.00003540,0.00011337,0.0001037
 4,-0.00002676,-0.00007591,0.00003607,0.00008485,-0.00012229,0.00002543
 ,-0.00003358,-0.00154269,0.00056526,0.00060244,0.00000915,-0.00001189,
 0.00004395,-0.00000375,-0.00000328,-0.00000460,-0.00000053,0.00000969,
 -0.00000166,0.00000018,0.00000314,-0.00000699,0.77424422,-0.00093238,0
 .00039534,-0.00014808,-0.00001721,-0.00030298,0.00083477,0.00044837,0.
 00019711,-0.00021818,-0.00063026,-0.00107798,0.00032905,-0.00139336,-0
 .00163321,0.00036103,-0.00002260,0.00000402,0.00001848,-0.00000930,0.0
 0000098,0.00001443,0.00002983,0.00013411,0.00015209,-0.00000263,0.0002
 2081,0.00005934,0.00000470,-0.00008333,0.00009476,-0.00159523,-0.01203
 997,0.01868863,0.03825329,-0.00777465,-0.00344400,-0.00970816,0.016296
 32,-0.01652035,0.08014095,-0.11615922,0.08577970,0.00495723,0.00635328
 ,-0.00086809,0.04116416,-0.08443693,0.00462354,0.00560904,0.00593017,0
 .00041667,0.00123474,0.00170250,0.00023060,-0.00624867,0.00287194,0.01
 538173,0.00000644,0.00000841,-0.00003700,-0.00001456,-0.00001509,0.000
 01527,0.00000731,0.00000226,0.00000239,0.00000902,0.00000727,0.0000142
 3,-0.00000623,-0.00000230,-0.00002835,0.00000254,0.00000582,-0.0000007
 5,0.00000267,0.00000510,-0.00000075,-0.00000568,-0.00000196,0.00000174
 ,-0.00000585,0.00000424,0.00000145,0.00000036,0.00000188,-0.00000072,0
 .00000031,0.00000109,-0.00000220,0.00075951,0.00006789,-0.00096834,0.0
 0000910,-0.00001734,0.00001627,0.00000914,0.00012007,-0.00001531,-0.00
 103880,-0.00078038,0.00019782,0.00087557,-0.00033202,-0.00042479,0.000
 58541,-0.00021489,-0.00007136,-0.00044435,0.00021650,0.00048576,-0.000
 15503,0.00006727,-0.00007496,-0.00045882,0.00017191,0.00004902,0.00001
 143,-0.00008059,0.00001540,0.00003120,-0.00002006,-0.00003972,0.000039
 85,-0.00001679,0.00000562,0.00066252,-0.00019612,-0.00027929,-0.000008
 18,0.00000279,-0.00002502,0.00000141,0.00000155,0.00000145,0.00000133,
 -0.00000960,-0.00000025,-0.00000261,-0.00000098,0.00000216,-0.29049694
 ,0.28148953,0.00096070,-0.00023369,0.00004612,0.00014991,0.00071826,-0
 .00010422,0.00003259,-0.00001500,-0.00022970,-0.00013567,-0.00009857,0
 .00018841,0.00002267,-0.00028006,0.00034541,-0.00002480,-0.00000544,0.
 00000970,-0.00001699,0.00001219,-0.00000160,0.00005500,0.00008282,-0.0
 0013357,-0.00002097,-0.00000002,-0.00000616,0.00009251,0.00002756,-0.0
 0028646,-0.01814225,0.02062353,-0.07684351,-0.06399570,0.02086242,0.06
 465433,0.09640159,-0.04202688,-0.01030239,-0.04280953,0.04997921,-0.26
 069656,0.00287490,-0.00045283,0.00062186,0.01488139,0.03993584,-0.3540
 5389,0.00210130,-0.00017532,0.00190062,-0.02876953,0.01736424,-0.01980
 353,0.01176250,-0.00100272,-0.02324124,-0.00001435,0.00003902,0.000029
 80,0.00006198,-0.00001659,0.00004717,-0.00004134,-0.00001671,-0.000012
 15,-0.00001511,0.00000237,0.00001992,0.00000215,0.00000530,-0.00002038
 ,0.00000825,-0.00000359,-0.00000803,-0.00000035,0.00000250,-0.00000070
 ,-0.00000701,0.00001617,-0.00000496,-0.00000726,-0.00000069,0.00000041
 ,0.00000326,0.00000151,0.00000459,0.00000093,0.00000041,-0.00000141,-0
 .00058299,-0.00083008,-0.00026759,0.00000746,0.00005040,0.00000690,-0.
 00006216,-0.00010926,0.00002068,-0.00066236,0.00042766,-0.00111686,0.0
 0007287,0.00030375,-0.00012725,0.00114594,-0.00012986,-0.00023519,-0.0
 0033206,-0.00016188,-0.00005882,0.00026094,-0.00002930,0.00030838,-0.0
 0080868,0.00004837,-0.00025088,-0.00003815,0.00007166,0.00045700,0.000
 01356,-0.00001840,-0.00003367,0.00003893,-0.00001032,0.00000672,0.0005
 0439,-0.00035481,0.00010031,0.00000787,-0.00000952,0.00004815,-0.00000
 152,0.00000151,-0.00000330,0.00000191,0.00001001,-0.00000187,-0.000002
 50,0.00000057,-0.00000749,-0.07325968,-0.07043162,0.78398479,0.0000911
 3,-0.00000645,0.00002249,0.00003653,0.00004447,-0.00006758,-0.00005235
 ,0.00001965,0.00002246,0.00005612,0.00009412,-0.00004181,0.00012610,0.
 00012393,-0.00007389,0.00000483,-0.00000416,-0.00000914,-0.00000081,-0
 .00000476,-0.00000154,0.00000159,-0.00001828,-0.00004040,0.00002227,-0
 .00005141,-0.00001047,-0.00004902,-0.00004755,-0.00001155,-0.00008110,
 -0.00030226,-0.00063542,0.00208108,0.00280150,-0.00274564,0.00409273,0
 .00148272,0.00038365,-0.01408421,0.00607447,0.00445022,-0.00016483,0.0
 0024357,0.00040925,-0.00106613,0.00003876,0.00287650,0.00021844,0.0001
 0627,-0.00021757,0.00021299,-0.00193590,-0.00012279,0.00014472,-0.0017
 8922,-0.00076582,0.00001300,0.00001156,-0.00000914,0.00001019,0.000009
 82,0.00001632,0.00000473,-0.00001066,-0.00000632,0.00000002,0.00000067
 ,0.00000034,-0.00000458,0.00000059,-0.00001151,0.00000433,0.00000420,0
 .00000310,-0.00000136,0.00000109,0.00000010,-0.00000031,-0.00000173,-0
 .00000337,-0.00000093,0.00000014,0.00000015,0.00000259,0.00000136,-0.0
 0000146,0.00000176,-0.00000002,-0.00000156,-0.00004666,0.00003732,0.00
 013902,-0.00000162,0.00000592,-0.00001301,0.00003748,0.00005378,0.0000
 3827,-0.00068840,-0.00024548,0.00008456,0.00045988,-0.00018901,-0.0001
 7134,0.00027327,-0.00009650,-0.00006870,-0.00025946,0.00003672,0.00024
 448,-0.00001548,0.00002015,0.00000383,-0.00018889,0.00007752,-0.000004
 92,-0.00002125,-0.00000451,0.00003892,0.00001754,-0.00001094,-0.000024
 26,0.00002091,-0.00001207,-0.00000102,0.00031072,-0.00007349,-0.000150
 55,-0.00001552,0.00000408,-0.00002579,0.00000217,0.00000191,0.00000477
 ,0.00000013,-0.00000315,0.00000036,0.00000360,-0.00000118,0.00000332,-
 0.35704913,0.13848432,0.09831751,0.36560128,0.00004133,-0.00001067,-0.
 00000396,0.00000586,-0.00003206,-0.00004325,-0.00002997,-0.00000540,0.
 00000539,0.00008207,0.00003985,-0.00001041,-0.00003340,0.00006744,-0.0
 0000847,0.00000460,-0.00000151,-0.00000476,0.00000392,0.00000034,-0.00
 000418,-0.00001077,-0.00000240,-0.00001575,0.00002330,-0.00007939,-0.0
 0000454,-0.00000674,0.00002587,0.00000264,-0.00027968,-0.00074974,0.00
 031557,0.00308132,0.00537165,0.00288278,0.00129272,0.00636681,0.001987
 92,0.01045988,-0.00392198,-0.00431269,0.00041325,0.00025018,-0.0002340
 9,-0.00458022,0.00269614,-0.00014909,-0.00011049,0.00041779,0.00013102
 ,-0.00190120,-0.00293794,-0.00054149,-0.00187233,-0.00299387,-0.000339
 82,0.00000106,-0.00000642,0.00000078,-0.00000061,0.00000738,-0.0000073
 4,0.00000122,0.00000098,-0.00000024,-0.00000029,-0.00000207,-0.0000032
 0,-0.00000038,-0.00000110,0.00000611,0.00000095,-0.00000205,0.00000133
 ,-0.00000075,-0.00000127,0.00000030,0.00000137,-0.00000025,-0.00000045
 ,0.00000166,-0.00000106,-0.00000048,-0.00000046,-0.00000023,-0.0000003
 7,0.00000029,-0.00000014,0.00000040,-0.00001041,-0.00003333,0.00002241
 ,-0.00000356,0.00000317,0.00000450,0.00001314,-0.00001972,0.00000599,-
 0.00026348,-0.00096857,-0.00022655,0.00005405,-0.00002661,0.00000236,-
 0.00033703,0.00012444,0.00011847,-0.00003048,-0.00002451,0.00005478,0.
 00002661,-0.00000798,0.00002005,0.00022582,-0.00015494,0.00006018,0.00
 000960,0.00001349,0.00001093,-0.00001044,-0.00000649,-0.00000721,-0.00
 002112,-0.00000211,-0.00001343,-0.00010967,0.00015324,-0.00006571,-0.0
 0000313,0.00000139,-0.00000258,-0.00000118,-0.00000097,0.00000020,-0.0
 0000141,0.00000104,0.00000074,0.00000204,0.00000028,-0.00000014,0.1388
 4555,-0.09111853,-0.03428220,-0.14500098,0.08757258,0.00001900,-0.0000
 0966,-0.00001061,-0.00001445,0.00000013,-0.00001297,-0.00000571,0.0000
 0977,-0.00000581,0.00001183,-0.00001763,0.00003502,-0.00004581,-0.0000
 2644,0.00001224,0.00000015,0.00000111,0.00000203,0.00000038,0.00000190
 ,-0.00000252,-0.00000809,0.00000586,-0.00001090,0.00000182,0.00001934,
 0.00002563,0.00001495,0.00001772,0.00000947,-0.00059220,0.00059136,-0.
 00237281,-0.00405772,0.00341846,-0.00242186,0.00165427,0.00121136,-0.0
 0549636,-0.02453453,0.00960827,0.01363071,-0.00101966,0.00045890,0.000
 56266,0.03187144,-0.01400002,-0.00579145,0.00122000,-0.00048851,-0.000
 02234,-0.00051132,-0.00039878,0.00032489,-0.00035718,-0.00054441,0.000
 44094,-0.00000422,0.00000105,0.00000040,-0.00000344,-0.00000081,-0.000
 00556,0.00000121,0.00000120,0.00000175,-0.00000109,-0.00000034,-0.0000
 0045,0.00000156,-0.00000031,0.00000426,-0.00000164,-0.00000125,-0.0000
 0247,0.00000028,-0.00000035,0.00000069,0.00000095,0.00000045,0.0000007
 0,0.00000051,-0.00000033,0.00000014,-0.00000025,-0.00000026,0.00000058
 ,-0.00000013,-0.00000008,0.00000068,-0.00002175,-0.00005705,-0.0000195
 2,0.00000579,0.00000724,-0.00000577,-0.00000924,-0.00003458,-0.0000193
 4,0.00010180,-0.00023673,0.00002294,-0.00008212,0.00005836,0.00002018,
 -0.00013449,0.00008331,0.00003003,0.00007352,-0.00003415,-0.00004815,0
 .00003323,-0.00003799,0.00001840,0.00006623,-0.00005574,0.00002080,-0.
 00000681,-0.00000871,0.00001796,-0.00000568,0.00000116,0.00000414,-0.0
 0000989,0.00000288,-0.00000238,-0.00009905,0.00002839,0.00003617,0.000
 00204,-0.00000612,0.00001394,-0.00000223,-0.00000097,-0.00000194,-0.00
 000075,0.00000391,-0.00000125,0.00000055,0.00000062,-0.00000238,0.0982
 7201,-0.03421568,-0.10509509,-0.10184626,0.03465203,0.10611505,-0.0000
 0654,-0.00001154,-0.00001074,-0.00001284,-0.00001497,-0.00000277,0.000
 00537,-0.00000699,0.00000085,-0.00000698,-0.00000973,-0.00000428,-0.00
 000323,-0.00000195,0.00000721,0.00000077,0.00000382,0.00000107,0.00001
 128,0.00000854,-0.00000317,0.00000035,0.00000203,0.00000150,0.00000147
 ,0.00000203,-0.00000022,0.00002153,0.00003743,0.00000264,-0.00067089,-
 0.00014766,-0.00020708,0.00045929,-0.00019759,-0.00014414,0.00029064,-
 0.00006167,-0.00010122,-0.00027971,0.00020373,-0.00004804,-0.00001631,
 0.00000723,0.00001822,-0.00017434,0.00003553,0.00009535,-0.00003003,0.
 00003119,-0.00001833,0.00001971,-0.00002506,-0.00000037,0.00001637,-0.
 00000859,-0.00001256,-0.00004713,0.00003610,-0.00000337,0.00002196,0.0
 0002673,-0.00005740,-0.00002654,-0.00001048,0.00001902,0.00000315,-0.0
 0008847,-0.00001175,0.00002338,0.00000352,0.00007403,0.00002604,-0.000
 02425,0.00000105,-0.00000114,-0.00000251,0.00000277,-0.00001656,0.0000
 4643,-0.00000432,-0.00003040,-0.00005939,-0.00003527,-0.00000098,0.000
 00039,0.00000175,-0.00000868,-0.00000782,0.00000256,-0.00000206,-0.000
 00844,-0.00000742,0.00000211,0.00000098,0.00000125,-0.00002076,-0.0000
 3456,-0.00001848,-0.00004260,-0.00048852,-0.00007393,0.00314703,-0.000
 30252,0.00293428,0.00382927,0.00221222,0.00033426,-0.00953632,0.003345
 98,0.00397305,-0.00002893,0.00033807,-0.00000563,-0.00569885,0.0037711
 7,0.00094528,0.00008781,-0.00006226,0.00026233,0.00010897,-0.00116794,
 -0.00170315,0.00004965,-0.00164008,-0.00126464,-0.36188906,0.13012639,
 0.10811624,0.00001245,-0.00000358,0.00001589,-0.00000133,-0.00000037,-
 0.00000253,-0.00000019,0.00000208,-0.00000038,-0.00000322,0.00000064,-
 0.00000142,0.00032344,-0.00014490,-0.00003202,-0.00006007,0.00002859,0
 .00002217,0.37015366,-0.00000562,-0.00001912,-0.00000211,0.00000858,0.
 00001131,-0.00000061,-0.00002313,-0.00000422,0.00001063,0.00000685,0.0
 0001571,-0.00000598,-0.00000373,0.00000037,-0.00000559,0.00000248,0.00
 000174,-0.00000068,0.00000615,-0.00000640,0.00000130,0.00000008,-0.000
 00140,0.00000046,-0.00000205,-0.00000029,-0.00000031,0.00004035,-0.000
 03948,-0.00004304,-0.00010712,-0.00045152,-0.00055337,-0.00002383,0.00
 001345,0.00002929,-0.00027917,0.00010954,0.00011716,0.00002721,-0.0000
 1757,-0.00003891,0.00003135,0.00001355,-0.00004329,0.00013814,-0.00001
 263,-0.00015637,-0.00000716,0.00001940,-0.00001394,-0.00000930,-0.0000
 0277,-0.00000029,-0.00001595,-0.00000693,0.00000739,-0.00001357,-0.000
 05367,0.00003482,0.00004794,0.00005068,0.00001893,0.00003477,0.0000457
 2,-0.00001549,0.00007480,-0.00006247,0.00002411,-0.00002104,0.00000647
 ,-0.00003126,-0.00005125,0.00004753,0.00000462,-0.00000304,0.00000666,
 -0.00000233,-0.00003356,-0.00005666,0.00007862,-0.00010910,0.00007335,
 -0.00001883,0.00000035,0.00001030,-0.00000400,0.00000337,-0.00000057,-
 0.00000614,-0.00000220,0.00001604,0.00000989,-0.00000143,0.00000046,-0
 .00000089,0.00000104,0.00003593,0.00003296,-0.00043468,-0.00174133,0.0
 0110695,-0.00128586,0.00205580,0.00576218,0.00323227,-0.00092178,0.005
 30574,-0.01788926,0.01059890,0.00281807,-0.00069212,0.00057566,0.00037
 325,0.02505339,-0.00744487,-0.01003202,0.00100162,0.00002816,-0.000332
 96,-0.00148878,-0.00116774,-0.00152417,-0.00130477,-0.00103248,-0.0017
 5671,0.12992717,-0.10727276,-0.01986078,-0.00000832,0.00000248,-0.0000
 1907,0.00000132,0.00000128,0.00000301,0.00000004,-0.00000233,0.0000019
 5,0.00000157,-0.00000165,0.00000078,-0.00011493,0.00003475,0.00010808,
 0.00002912,-0.00000070,-0.00000787,-0.13573897,0.10654612,0.00000992,0
 .00000865,0.00001436,-0.00000383,0.00001534,-0.00000218,0.00000072,0.0
 0000640,-0.00000667,-0.00000240,0.00000980,-0.00001253,-0.00000443,0.0
 0001208,0.00000420,-0.00000052,-0.00000085,-0.00000308,-0.00000667,-0.
 00000279,0.00000935,0.00000014,-0.00000143,0.00000059,-0.00000178,0.00
 000039,-0.00000001,0.00001954,-0.00003282,-0.00002340,-0.00017181,-0.0
 0055780,-0.00046146,0.00000431,-0.00000304,-0.00003158,-0.00028746,0.0
 0010118,0.00007479,-0.00002964,0.00002602,-0.00002463,0.00001052,0.000
 01365,0.00000096,0.00017025,-0.00002081,-0.00015498,0.00002137,0.00000
 142,0.00001135,-0.00000798,-0.00000581,-0.00000022,-0.00001497,-0.0000
 0849,0.00000660,0.00001213,-0.00005112,0.00003498,-0.00002159,0.000060
 15,-0.00000175,0.00003758,0.00004205,-0.00002374,0.00009251,-0.0001048
 6,-0.00003094,0.00000939,0.00000674,-0.00002959,-0.00004237,0.00006018
 ,-0.00000109,-0.00000077,0.00000620,-0.00000202,-0.00004405,-0.0000387
 2,0.00004691,-0.00011538,0.00001578,0.00003181,0.00000091,0.00001194,0
 .00000125,0.00001407,0.00000374,0.00000243,-0.00000600,-0.00000198,0.0
 0000909,-0.00000241,0.00000029,-0.00000108,0.00000060,0.00003134,0.000
 02066,-0.00022851,0.00078408,-0.00149902,0.00392287,0.00524787,-0.0001
 3336,-0.00044455,0.00605325,0.00198276,0.02374941,-0.01168194,-0.00524
 437,0.00091882,-0.00041005,0.00010003,-0.01871997,0.00460242,0.0091003
 5,-0.00065837,0.00035167,0.00052950,-0.00145242,-0.00170996,-0.0013865
 2,-0.00148944,-0.00151169,-0.00151481,0.10786803,-0.01996958,-0.085592
 69,-0.00000166,-0.00000174,-0.00000967,0.00000023,0.00000214,0.0000022
 4,0.00000154,-0.00000084,0.00000022,-0.00000024,-0.00000221,0.00000131
 ,-0.00007072,0.00002143,0.00014716,0.00002322,-0.00000450,-0.00000051,
 -0.11305814,0.01862681,0.08405899\\0.00000358,-0.00000715,-0.00000288,
 0.00000657,-0.00000375,-0.00000106,-0.00000969,0.00000340,0.00000877,0
 .00001040,0.00000843,-0.00000380,0.00000307,0.00000256,-0.00000018,-0.
 00000103,-0.00000136,-0.00000194,0.00000032,0.00000775,-0.00000650,0.0
 0000577,0.00000242,0.00000205,0.00000348,0.00000431,0.00000121,0.00000
 893,0.00000297,-0.00000513,-0.00001747,-0.00000137,-0.00001049,0.00001
 067,0.00000342,0.00000985,-0.00000809,0.00000702,0.00000573,-0.0000129
 4,0.00001050,0.00000244,0.,0.00000667,0.00000304,0.00000555,0.00000307
 ,0.00000019,-0.00000286,-0.00000237,0.00000435,0.00000165,0.00000901,0
 .00000667,-0.00000333,0.00000423,0.00000809,-0.00000664,-0.00000336,0.
 00000279,0.00000996,-0.00000729,-0.00000593,0.00000829,0.00000021,-0.0
 0001123,-0.00000148,-0.00000472,0.00000024,-0.00001036,-0.00000727,-0.
 00000540,0.00000005,-0.00000111,-0.00000635,0.00000467,-0.00000371,-0.
 00000732,-0.00000249,-0.00000961,-0.00000424,0.00000043,-0.00000416,-0
 .00000509,0.00000343,-0.00000791,-0.00000928,-0.00000099,-0.00000932,-
 0.00000865,-0.00000229,0.00000290,0.00000017,0.00000124,0.00000210,0.0
 0000111,0.00001331,0.00000353,-0.00001106,0.00000096,-0.00000429,0.000
 01832,0.00000423,0.00000032,0.00000510,-0.00000960,-0.00000650,-0.0000
 1009,-0.00001135,-0.00000247,0.00000710,-0.00000670,0.00000088,0.,-0.0
 0000513,-0.00000095,0.00000752,-0.00000140,-0.00000358,0.00000730,-0.0
 0000456,-0.00000180,0.00000342,-0.00000613,-0.00000782,-0.00000188,-0.
 00000834,0.00000042,-0.00000115,0.00000333,0.00000121,0.00000165,0.000
 00952,0.00000352,-0.00000614,0.00000813,0.00000514,-0.00000403,0.00000
 705,0.00000237,-0.00000520,0.00000386,0.00000028,0.00001928,0.00000154
 ,0.00001091,0.00000601,-0.00000714,-0.00000768,0.00000262\\\@


 CHRISTMAS IS ON TOP OF A STEEP HILL.
 THE CLOSER YOU GET, THE STEEPER THE HILL IS.
          -- LINUS, OF PEANUTS
 Job cpu time:       1 days  7 hours 46 minutes 58.3 seconds.
 Elapsed time:       0 days  1 hours 19 minutes 38.2 seconds.
 File lengths (MBytes):  RWF=   2352 Int=      0 D2E=      0 Chk=     56 Scr=     16
 Normal termination of Gaussian 16 at Thu Mar 29 03:32:26 2018.
