Job Start Time: Sun Mar 18 20:48:40 MDT 2018
SLURM Job ID: 703593
SLURM Job Name: TS_Int3_1Ph1Pyr_Pyrat_SMD
 Entering Gaussian System, Link 0=/projects/user/g16/g16
 Initial command:
 /projects/user/g16/l1.exe "/gpfs/summit/scratch/user/703593/Gau-189818.inp" -scrdir="/gpfs/summit/scratch/user/703593/"
 Entering Link 1 = /projects/user/g16/l1.exe PID=    189819.
  
 Copyright (c) 1988,1990,1992,1993,1995,1998,2003,2009,2016,
            Gaussian, Inc.  All Rights Reserved.
  
 This is part of the Gaussian(R) 16 program.  It is based on
 the Gaussian(R) 09 system (copyright 2009, Gaussian, Inc.),
 the Gaussian(R) 03 system (copyright 2003, Gaussian, Inc.),
 the Gaussian(R) 98 system (copyright 1998, Gaussian, Inc.),
 the Gaussian(R) 94 system (copyright 1995, Gaussian, Inc.),
 the Gaussian 92(TM) system (copyright 1992, Gaussian, Inc.),
 the Gaussian 90(TM) system (copyright 1990, Gaussian, Inc.),
 the Gaussian 88(TM) system (copyright 1988, Gaussian, Inc.),
 the Gaussian 86(TM) system (copyright 1986, Carnegie Mellon
 University), and the Gaussian 82(TM) system (copyright 1983,
 Carnegie Mellon University). Gaussian is a federally registered
 trademark of Gaussian, Inc.
  
 This software contains proprietary and confidential information,
 including trade secrets, belonging to Gaussian, Inc.
  
 This software is provided under written license and may be
 used, copied, transmitted, or stored only in accord with that
 written license.
  
 The following legend is applicable only to US Government
 contracts under FAR:
  
                    RESTRICTED RIGHTS LEGEND
  
 Use, reproduction and disclosure by the US Government is
 subject to restrictions as set forth in subparagraphs (a)
 and (c) of the Commercial Computer Software - Restricted
 Rights clause in FAR 52.227-19.
  
 Gaussian, Inc.
 340 Quinnipiac St., Bldg. 40, Wallingford CT 06492
  
  
 ---------------------------------------------------------------
 Warning -- This program may not be used in any manner that
 competes with the business of Gaussian, Inc. or will provide
 assistance to any competitor of Gaussian, Inc.  The licensee
 of this program is prohibited from giving any competitor of
 Gaussian, Inc. access to this program.  By using this program,
 the user acknowledges that Gaussian, Inc. is engaged in the
 business of creating and licensing software in the field of
 computational chemistry and represents and warrants to the
 licensee that it is not a competitor of Gaussian, Inc. and that
 it will not use this program in any manner prohibited above.
 ---------------------------------------------------------------
  

 Cite this work as:
 Gaussian 16, Revision A.03,
 M. J. Frisch, G. W. Trucks, H. B. Schlegel, G. E. Scuseria, 
 M. A. Robb, J. R. Cheeseman, G. Scalmani, V. Barone, 
 G. A. Petersson, H. Nakatsuji, X. Li, M. Caricato, A. V. Marenich, 
 J. Bloino, B. G. Janesko, R. Gomperts, B. Mennucci, H. P. Hratchian, 
 J. V. Ortiz, A. F. Izmaylov, J. L. Sonnenberg, D. Williams-Young, 
 F. Ding, F. Lipparini, F. Egidi, J. Goings, B. Peng, A. Petrone, 
 T. Henderson, D. Ranasinghe, V. G. Zakrzewski, J. Gao, N. Rega, 
 G. Zheng, W. Liang, M. Hada, M. Ehara, K. Toyota, R. Fukuda, 
 J. Hasegawa, M. Ishida, T. Nakajima, Y. Honda, O. Kitao, H. Nakai, 
 T. Vreven, K. Throssell, J. A. Montgomery, Jr., J. E. Peralta, 
 F. Ogliaro, M. J. Bearpark, J. J. Heyd, E. N. Brothers, K. N. Kudin, 
 V. N. Staroverov, T. A. Keith, R. Kobayashi, J. Normand, 
 K. Raghavachari, A. P. Rendell, J. C. Burant, S. S. Iyengar, 
 J. Tomasi, M. Cossi, J. M. Millam, M. Klene, C. Adamo, R. Cammi, 
 J. W. Ochterski, R. L. Martin, K. Morokuma, O. Farkas, 
 J. B. Foresman, and D. J. Fox, Gaussian, Inc., Wallingford CT, 2016.
 
 ******************************************
 Gaussian 16:  ES64L-G16RevA.03 25-Dec-2016
                18-Mar-2018 
 ******************************************
 %chk=TS_Indhfyseeankosok.chk
 %nprocshared=24
 Will use up to   24 processors via shared memory.
 %mem=98GB
 ----------------------------------------------------------------------
 # opt=(calcfc,qst3,maxcycle=200) scrf=(solvent=ethanol,smd) freq=noram
 an wb97xd/6-31+g(d) geom=connectivity
 ----------------------------------------------------------------------
 1/5=1,6=200,10=4,18=20,26=3,27=203,38=1,57=2/1,3;
 2/9=110,12=2,17=6,18=5,40=1/2;
 3/5=1,6=6,7=11,11=2,25=1,30=1,70=32201,71=2,72=4,74=-58,140=1/1,2,3;
 4//1;
 5/5=2,38=5,53=4/2;
 8/6=4,10=90,11=11/1;
 11/6=1,8=1,9=11,15=111,16=1/1,2,10;
 10/6=1,13=1/2;
 6/7=2,8=2,9=2,10=2,28=1/1;
 7/10=1,18=20,25=1/1,2,3,16;
 1/5=1,6=200,10=4,18=20,26=3,27=203/3(2);
 2/9=110/2;
 99//99;
 2/9=110/2;
 3/5=1,6=6,7=11,11=2,25=1,30=1,70=32205,71=1,72=4,74=-58/1,2,3;
 4/5=5,16=3,69=1/1;
 5/5=2,38=5,53=4/2;
 7//1,2,3,16;
 1/5=1,6=200,18=20,26=3,27=203/3(-5);
 2/9=110/2;
 6/7=2,8=2,9=2,10=2,19=2,28=1/1;
 99/9=1/99;
 -------------------
 Title Card Required
 -------------------
 Symbolic Z-matrix:
 Charge =  2 Multiplicity = 1
 C                    -0.14808   3.25187  -2.05063 
 C                     0.30987   2.04093  -1.5405 
 C                    -0.08761   1.63838  -0.26058 
 C                    -0.90891   2.45826   0.51993 
 C                    -1.35046   3.67279   0.00617 
 H                     0.15227   3.56271  -3.04676 
 H                     0.97465   1.42132  -2.13723 
 H                    -1.21031   2.14825   1.51596 
 H                    -1.98729   4.31205   0.61032 
 P                     0.51094   0.07874   0.40208 
 C                    -1.8976   -0.55361   0.22799 
 C                    -2.48468  -0.87338   1.449 
 C                    -2.66739   0.03462  -0.7728 
 C                    -3.80361  -0.52973   1.67174 
 H                    -1.93609  -1.3797    2.23599 
 C                    -3.9809    0.36154  -0.51204 
 H                    -2.2568    0.25918  -1.75317 
 H                    -4.33376  -0.72371   2.59625 
 H                    -4.64338   0.83802  -1.22411 
 C                     2.30822   0.11782   0.22773 
 C                     3.01896  -1.01635  -0.18356 
 C                     2.99581   1.30214   0.53241 
 C                     4.40727  -0.96298  -0.28902 
 H                     2.50323  -1.94053  -0.4259 
 C                     4.38121   1.34611   0.42963 
 H                     2.45139   2.18906   0.84699 
 C                     5.0865    0.21401   0.01779 
 H                     4.9556   -1.84291  -0.61227 
 H                     4.91086   2.2642    0.66638 
 H                     6.16894   0.25241  -0.06665 
 C                    -0.97884   4.06465  -1.27998 
 H                    -1.33076   5.01138  -1.67985 
 O                     0.16015   0.07361   1.9554 
 C                    -0.17363  -1.38396  -0.32309 
 C                    -0.05136  -2.63923   0.42497 
 C                    -0.19346  -1.54175  -1.77873 
 C                    -0.29675  -3.81434  -0.19678 
 H                     0.17928  -2.63923   1.48339 
 C                    -0.43513  -2.76006  -2.3154 
 H                    -0.05847  -0.69336  -2.43831 
 H                    -0.27206  -4.76354   0.32529 
 H                    -0.50983  -2.91808  -3.38495 
 N                    -0.55881  -3.87473  -1.53692 
 C                     1.10509  -0.2718    2.99709 
 H                     0.49486  -0.46963   3.87808 
 H                     1.67741  -1.16162   2.72775 
 H                     1.77084   0.57403   3.17769 
 N                    -4.50038   0.08132   0.69762 
 H                    -5.47286   0.32487   0.87536 
 H                    -0.6858   -4.77686  -1.97756 
 
 Add virtual bond connecting atoms C34        and C11        Dist= 3.76D+00.
 -------------------
 Title Card Required
 -------------------
 Symbolic Z-matrix:
 Charge =  2 Multiplicity = 1
 C                     1.42128   3.06564  -2.04578 
 C                     1.22792   1.79646  -1.50542 
 C                     0.57347   1.65496  -0.27863 
 C                     0.1459    2.78688   0.42061 
 C                     0.37358   4.05548  -0.10581 
 H                     1.9131    3.17145  -3.00851 
 H                     1.58835   0.92214  -2.04114 
 H                    -0.36173   2.683     1.3763 
 H                     0.05565   4.93394   0.44847 
 P                     0.31133   0.01413   0.47555 
 C                    -1.77222   0.39744   0.5948 
 C                    -2.55406  -0.01295   1.68595 
 C                    -2.44579   1.04436  -0.45446 
 C                    -3.91718   0.19709   1.70015 
 H                    -2.10613  -0.50491   2.54188 
 C                    -3.80792   1.24011  -0.41112 
 H                    -1.91361   1.40502  -1.33035 
 H                    -4.56743  -0.09571   2.51564 
 H                    -4.37574   1.73297  -1.19077 
 C                     2.07266  -0.60389   0.28976 
 C                     2.38807  -1.86491  -0.2249 
 C                     3.12654   0.23746   0.67973 
 C                     3.71732  -2.27637  -0.3481 
 H                     1.60867  -2.55162  -0.5411 
 C                     4.45105  -0.17005   0.56327 
 H                     2.91372   1.22635   1.08022 
 C                     4.75065  -1.43195   0.04621 
 H                     3.93932  -3.25945  -0.75458 
 H                     5.2507    0.49774   0.87233 
 H                     5.78489  -1.75118  -0.05013 
 C                     1.0009    4.19486  -1.34383 
 H                     1.16638   5.18489  -1.75971 
 O                     0.21065  -0.05866   2.09415 
 C                    -0.56162  -1.30724  -0.49709 
 C                    -1.03337  -2.43507   0.19438 
 C                    -0.78764  -1.21849  -1.87702 
 C                    -1.75798  -3.38923  -0.48036 
 H                    -0.8506   -2.57047   1.25542 
 C                    -1.52784  -2.19594  -2.50508 
 H                    -0.40522  -0.39562  -2.46935 
 H                    -2.15678  -4.28126  -0.0141 
 H                    -1.7549   -2.18845  -3.56383 
 N                    -1.99294  -3.23925  -1.79705 
 C                     1.1443   -0.6739    2.99963 
 H                     0.59134  -0.78933   3.93367 
 H                     1.46779  -1.65259   2.64029 
 H                     2.00774  -0.02496   3.15862 
 N                    -4.50451   0.81177   0.65836 
 H                    -5.509     0.97128   0.68507 
 H                    -2.52768  -3.95794  -2.28129 
 
 Add virtual bond connecting atoms C11        and P10        Dist= 4.01D+00.
 -------------------
 Title Card Required
 -------------------
 Symbolic Z-matrix:
 Charge =  2 Multiplicity = 1
 C                     0.48974   3.29211  -2.01377 
 C                     0.7113    2.00811  -1.52272 
 C                     0.242     1.66523  -0.25068 
 C                    -0.41221   2.61288   0.54281 
 C                    -0.61015   3.89945   0.05263 
 H                     0.84321   3.55583  -3.00615 
 H                     1.25174   1.28582  -2.12936 
 H                    -0.76827   2.34883   1.53412 
 H                    -1.11216   4.63856   0.67004 
 P                     0.54041   0.01553   0.40257 
 C                    -1.97177  -0.09762   0.38033 
 C                    -2.64343  -0.50763   1.53636 
 C                    -2.72331   0.51592  -0.62764 
 C                    -3.99692  -0.27585   1.67525 
 H                    -2.12292  -1.01087   2.34631 
 C                    -4.07373   0.73316  -0.46116 
 H                    -2.2621    0.83753  -1.55928 
 H                    -4.57806  -0.55338   2.54684 
 H                    -4.71305   1.21205  -1.19333 
 C                     2.33506  -0.22129   0.22667 
 C                     2.86632  -1.43614  -0.2222 
 C                     3.20077   0.8311    0.56041 
 C                     4.24656  -1.5959   -0.33378 
 H                     2.21822  -2.26503  -0.4903 
 C                     4.57692   0.66525   0.45167 
 H                     2.80259   1.7819    0.90656 
 C                     5.10058  -0.54859   0.00362 
 H                     4.65117  -2.54011  -0.68646 
 H                     5.24082   1.48423   0.71272 
 H                     6.17598  -0.67538  -0.08506 
 C                    -0.16907   4.23613  -1.22749 
 H                    -0.33163   5.23997  -1.6097 
 O                     0.2336   -0.02459   1.96816 
 C                    -0.27392  -1.34817  -0.406 
 C                    -0.43911  -2.57236   0.31301 
 C                    -0.48679  -1.38192  -1.81598 
 C                    -0.99182  -3.64851  -0.31553 
 H                    -0.17204  -2.65049   1.36059 
 C                    -1.04459  -2.49338  -2.37977 
 H                    -0.25006  -0.53697  -2.45055 
 H                    -1.17831  -4.59229   0.18207 
 H                    -1.26925  -2.56817  -3.43675 
 N                    -1.31694  -3.58669  -1.63014 
 C                     1.1829   -0.45271   2.97193 
 H                     0.59218  -0.57092   3.88041 
 H                     1.6413   -1.40445   2.69649 
 H                     1.9458    0.31463   3.11598 
 N                    -4.66788   0.33774   0.68228 
 H                    -5.66445   0.50571   0.79749 
 H                    -1.71384  -4.40618  -2.07925 
 

 GradGradGradGradGradGradGradGradGradGradGradGradGradGradGradGradGradGrad
 Berny optimization.
 Initialization pass.
                           ----------------------------
                           !    Initial Parameters    !
                           ! (Angstroms and Degrees)  !
 --------------------------                            --------------------------
 ! Name  Definition         TS        Reactant Product Derivative Info.         !
 --------------------------------------------------------------------------------
 ! R1    R(1,2)             1.3924    1.3915    1.3929 calculate D2E/DX2 analyti!
 ! R2    R(1,6)             1.086     1.0859    1.0862 calculate D2E/DX2 analyti!
 ! R3    R(1,31)            1.3941    1.3945    1.3945 calculate D2E/DX2 analyti!
 ! R4    R(2,3)             1.3985    1.3994    1.3976 calculate D2E/DX2 analyti!
 ! R5    R(2,7)             1.0871    1.0872    1.0869 calculate D2E/DX2 analyti!
 ! R6    R(3,4)             1.3984    1.3985    1.3975 calculate D2E/DX2 analyti!
 ! R7    R(3,10)            1.7992    1.7972    1.8248 calculate D2E/DX2 analyti!
 ! R8    R(4,5)             1.3909    1.3907    1.3922 calculate D2E/DX2 analyti!
 ! R9    R(4,8)             1.0859    1.0858    1.0871 calculate D2E/DX2 analyti!
 ! R10   R(5,9)             1.086     1.0859    1.0863 calculate D2E/DX2 analyti!
 ! R11   R(5,31)            1.3952    1.3949    1.3949 calculate D2E/DX2 analyti!
 ! R12   R(10,11)           2.5148    2.4962    2.1219 calculate D2E/DX2 analyti!
 ! R13   R(10,20)           1.8187    1.8061    1.8758 calculate D2E/DX2 analyti!
 ! R14   R(10,33)           1.5959    1.5925    1.6234 calculate D2E/DX2 analyti!
 ! R15   R(10,34)           1.7823    1.7703    1.8585 calculate D2E/DX2 analyti!
 ! R16   R(11,12)           1.3984    1.392     1.4037 calculate D2E/DX2 analyti!
 ! R17   R(11,13)           1.399     1.3929    1.4047 calculate D2E/DX2 analyti!
 ! R18   R(11,34)           2.2505    1.9913    2.3588 calculate D2E/DX2 analyti!
 ! R19   R(12,14)           1.3802    1.381     1.3793 calculate D2E/DX2 analyti!
 ! R20   R(12,15)           1.0864    1.0847    1.0841 calculate D2E/DX2 analyti!
 ! R21   R(13,16)           1.3779    1.3785    1.3768 calculate D2E/DX2 analyti!
 ! R22   R(13,17)           1.0882    1.0863    1.0865 calculate D2E/DX2 analyti!
 ! R23   R(14,18)           1.0837    1.0832    1.0833 calculate D2E/DX2 analyti!
 ! R24   R(14,48)           1.3464    1.3445    1.3447 calculate D2E/DX2 analyti!
 ! R25   R(16,19)           1.0836    1.083     1.0831 calculate D2E/DX2 analyti!
 ! R26   R(16,48)           1.3479    1.346     1.3463 calculate D2E/DX2 analyti!
 ! R27   R(20,21)           1.3999    1.4002    1.398  calculate D2E/DX2 analyti!
 ! R28   R(20,22)           1.403     1.4029    1.4038 calculate D2E/DX2 analyti!
 ! R29   R(21,23)           1.3939    1.3933    1.3969 calculate D2E/DX2 analyti!
 ! R30   R(21,24)           1.0858    1.0857    1.0858 calculate D2E/DX2 analyti!
 ! R31   R(22,25)           1.3904    1.3899    1.3907 calculate D2E/DX2 analyti!
 ! R32   R(22,26)           1.0874    1.0872    1.0879 calculate D2E/DX2 analyti!
 ! R33   R(23,27)           1.3929    1.3931    1.3915 calculate D2E/DX2 analyti!
 ! R34   R(23,28)           1.0861    1.086     1.0867 calculate D2E/DX2 analyti!
 ! R35   R(25,27)           1.3958    1.396     1.3962 calculate D2E/DX2 analyti!
 ! R36   R(25,29)           1.0861    1.086     1.0867 calculate D2E/DX2 analyti!
 ! R37   R(27,30)           1.0865    1.0864    1.0867 calculate D2E/DX2 analyti!
 ! R38   R(31,32)           1.0864    1.0863    1.0865 calculate D2E/DX2 analyti!
 ! R39   R(33,44)           1.4464    1.4482    1.4388 calculate D2E/DX2 analyti!
 ! R40   R(34,35)           1.4293    1.4664    1.4045 calculate D2E/DX2 analyti!
 ! R41   R(34,36)           1.4264    1.4643    1.4011 calculate D2E/DX2 analyti!
 ! R42   R(35,37)           1.3633    1.3519    1.375  calculate D2E/DX2 analyti!
 ! R43   R(35,38)           1.0839    1.0833    1.0851 calculate D2E/DX2 analyti!
 ! R44   R(36,39)           1.3654    1.353     1.3776 calculate D2E/DX2 analyti!
 ! R45   R(36,40)           1.0829    1.0831    1.0836 calculate D2E/DX2 analyti!
 ! R46   R(37,41)           1.0831    1.0836    1.0827 calculate D2E/DX2 analyti!
 ! R47   R(37,43)           1.3556    1.3668    1.3459 calculate D2E/DX2 analyti!
 ! R48   R(39,42)           1.0832    1.0837    1.0829 calculate D2E/DX2 analyti!
 ! R49   R(39,43)           1.3533    1.3652    1.3439 calculate D2E/DX2 analyti!
 ! R50   R(43,50)           1.0153    1.012     1.0183 calculate D2E/DX2 analyti!
 ! R51   R(44,45)           1.0901    1.0898    1.0916 calculate D2E/DX2 analyti!
 ! R52   R(44,46)           1.0917    1.0917    1.0916 calculate D2E/DX2 analyti!
 ! R53   R(44,47)           1.0916    1.0915    1.0918 calculate D2E/DX2 analyti!
 ! R54   R(48,49)           1.0172    1.0181    1.0174 calculate D2E/DX2 analyti!
 ! A1    A(2,1,6)         119.6301  119.6298  119.6986 calculate D2E/DX2 analyti!
 ! A2    A(2,1,31)        120.0479  120.044   120.0473 calculate D2E/DX2 analyti!
 ! A3    A(6,1,31)        120.3179  120.324   120.2484 calculate D2E/DX2 analyti!
 ! A4    A(1,2,3)         119.5669  119.483   119.8531 calculate D2E/DX2 analyti!
 ! A5    A(1,2,7)         119.6688  119.7347  119.7173 calculate D2E/DX2 analyti!
 ! A6    A(3,2,7)         120.7633  120.7817  120.4296 calculate D2E/DX2 analyti!
 ! A7    A(2,3,4)         120.4595  120.5714  120.03   calculate D2E/DX2 analyti!
 ! A8    A(2,3,10)        119.9582  119.491   121.4054 calculate D2E/DX2 analyti!
 ! A9    A(4,3,10)        119.5315  119.905   118.5266 calculate D2E/DX2 analyti!
 ! A10   A(3,4,5)         119.5652  119.4898  119.9216 calculate D2E/DX2 analyti!
 ! A11   A(3,4,8)         120.4373  120.5017  120.3533 calculate D2E/DX2 analyti!
 ! A12   A(5,4,8)         119.997   120.0055  119.7248 calculate D2E/DX2 analyti!
 ! A13   A(4,5,9)         119.665   119.6562  119.7408 calculate D2E/DX2 analyti!
 ! A14   A(4,5,31)        120.1028  120.0902  120.0129 calculate D2E/DX2 analyti!
 ! A15   A(9,5,31)        120.2319  120.2534  120.2452 calculate D2E/DX2 analyti!
 ! A16   A(3,10,11)        82.6672   82.6909   90.1065 calculate D2E/DX2 analyti!
 ! A17   A(3,10,20)       104.3552  106.084    96.9167 calculate D2E/DX2 analyti!
 ! A18   A(3,10,33)       110.3249  106.8037  117.4719 calculate D2E/DX2 analyti!
 ! A19   A(3,10,34)       117.455   115.926   119.3729 calculate D2E/DX2 analyti!
 ! A20   L(11,10,20,3,-1)  187.0224  188.7749  187.0232 calculate D2E/DX2 analyt!
 ! A21   L(11,10,20,3,-2)  189.6132  194.2718  185.9853 calculate D2E/DX2 analyt!
 ! A22   A(11,10,33)       79.3679   81.6436   83.7517 calculate D2E/DX2 analyti!
 ! A23   A(11,10,34)       60.3397   52.3397   72.3399 calculate D2E/DX2 analyti!
 ! A24   A(20,10,33)      106.3382  108.2658   98.176  calculate D2E/DX2 analyti!
 ! A25   A(20,10,34)      107.8991  111.2927   98.914  calculate D2E/DX2 analyti!
 ! A26   A(33,10,34)      109.754   108.1629  117.4385 calculate D2E/DX2 analyti!
 ! A27   A(10,11,12)      119.0563  113.8248  122.5348 calculate D2E/DX2 analyti!
 ! A28   A(10,11,13)      121.5517  118.4483  120.8017 calculate D2E/DX2 analyti!
 ! A29   A(12,11,13)      117.7851  119.6134  116.6296 calculate D2E/DX2 analyti!
 ! A30   A(12,11,34)      119.2263  120.8024  115.7485 calculate D2E/DX2 analyti!
 ! A31   A(13,11,34)      113.4051  117.1116  103.4833 calculate D2E/DX2 analyti!
 ! A32   A(11,12,14)      120.328   119.1485  120.9275 calculate D2E/DX2 analyti!
 ! A33   A(11,12,15)      121.467   122.0263  121.0829 calculate D2E/DX2 analyti!
 ! A34   A(14,12,15)      118.2049  118.824   117.9895 calculate D2E/DX2 analyti!
 ! A35   A(11,13,16)      120.5694  119.3968  121.0891 calculate D2E/DX2 analyti!
 ! A36   A(11,13,17)      121.2502  121.7912  121.3447 calculate D2E/DX2 analyti!
 ! A37   A(16,13,17)      118.18    118.8047  117.5659 calculate D2E/DX2 analyti!
 ! A38   A(12,14,18)      124.3191  124.0891  124.042  calculate D2E/DX2 analyti!
 ! A39   A(12,14,48)      119.4082  119.4167  119.5578 calculate D2E/DX2 analyti!
 ! A40   A(18,14,48)      116.2723  116.4938  116.3971 calculate D2E/DX2 analyti!
 ! A41   A(13,16,19)      124.4919  124.2519  124.1031 calculate D2E/DX2 analyti!
 ! A42   A(13,16,48)      119.2263  119.235   119.4501 calculate D2E/DX2 analyti!
 ! A43   A(19,16,48)      116.2814  116.5131  116.445  calculate D2E/DX2 analyti!
 ! A44   A(10,20,21)      121.2316  121.0593  123.0566 calculate D2E/DX2 analyti!
 ! A45   A(10,20,22)      119.2223  119.0133  118.6817 calculate D2E/DX2 analyti!
 ! A46   A(21,20,22)      119.5432  119.9194  118.2612 calculate D2E/DX2 analyti!
 ! A47   A(20,21,23)      120.0604  119.7997  120.8518 calculate D2E/DX2 analyti!
 ! A48   A(20,21,24)      121.008   120.9253  121.0451 calculate D2E/DX2 analyti!
 ! A49   A(23,21,24)      118.9315  119.2747  118.103  calculate D2E/DX2 analyti!
 ! A50   A(20,22,25)      120.1761  119.9451  121.0738 calculate D2E/DX2 analyti!
 ! A51   A(20,22,26)      120.3757  120.4026  120.012  calculate D2E/DX2 analyti!
 ! A52   A(25,22,26)      119.4482  119.6522  118.9142 calculate D2E/DX2 analyti!
 ! A53   A(21,23,27)      120.1032  120.0988  120.1916 calculate D2E/DX2 analyti!
 ! A54   A(21,23,28)      119.637   119.642   119.5923 calculate D2E/DX2 analyti!
 ! A55   A(27,23,28)      120.2598  120.2592  120.216  calculate D2E/DX2 analyti!
 ! A56   A(22,25,27)      120.0106  119.9845  120.0146 calculate D2E/DX2 analyti!
 ! A57   A(22,25,29)      119.7534  119.7842  119.7996 calculate D2E/DX2 analyti!
 ! A58   A(27,25,29)      120.2356  120.2307  120.1854 calculate D2E/DX2 analyti!
 ! A59   A(23,27,25)      120.1058  120.2518  119.6062 calculate D2E/DX2 analyti!
 ! A60   A(23,27,30)      119.9589  119.9026  120.2235 calculate D2E/DX2 analyti!
 ! A61   A(25,27,30)      119.935   119.8453  120.1701 calculate D2E/DX2 analyti!
 ! A62   A(1,31,5)        120.2307  120.2989  120.095  calculate D2E/DX2 analyti!
 ! A63   A(1,31,32)       119.8677  119.8366  119.9528 calculate D2E/DX2 analyti!
 ! A64   A(5,31,32)       119.8993  119.8621  119.9516 calculate D2E/DX2 analyti!
 ! A65   A(10,33,44)      124.2003  123.9632  127.3307 calculate D2E/DX2 analyti!
 ! A66   A(10,34,11)       76.1738   82.928    59.0012 calculate D2E/DX2 analyti!
 ! A67   A(10,34,35)      118.6804  117.7805  118.1013 calculate D2E/DX2 analyti!
 ! A68   A(10,34,36)      122.3266  120.0977  123.1038 calculate D2E/DX2 analyti!
 ! A69   A(11,34,35)      102.2967  106.7362  100.3724 calculate D2E/DX2 analyti!
 ! A70   A(11,34,36)      104.2377  107.9577  109.1073 calculate D2E/DX2 analyti!
 ! A71   A(35,34,36)      117.3717  114.5829  118.7865 calculate D2E/DX2 analyti!
 ! A72   A(34,35,37)      119.4072  119.6259  119.5133 calculate D2E/DX2 analyti!
 ! A73   A(34,35,38)      121.2957  121.0771  121.6685 calculate D2E/DX2 analyti!
 ! A74   A(37,35,38)      119.2468  119.2099  118.8146 calculate D2E/DX2 analyti!
 ! A75   A(34,36,39)      119.2351  119.5866  119.3896 calculate D2E/DX2 analyti!
 ! A76   A(34,36,40)      121.8828  121.285   121.9733 calculate D2E/DX2 analyti!
 ! A77   A(39,36,40)      118.8481  119.0805  118.6343 calculate D2E/DX2 analyti!
 ! A78   A(35,37,41)      123.0808  122.3916  123.6767 calculate D2E/DX2 analyti!
 ! A79   A(35,37,43)      120.5519  121.6092  119.6523 calculate D2E/DX2 analyti!
 ! A80   A(41,37,43)      116.3568  115.9793  116.6691 calculate D2E/DX2 analyti!
 ! A81   A(36,39,42)      122.9465  122.3469  123.6091 calculate D2E/DX2 analyti!
 ! A82   A(36,39,43)      120.7383  121.681   119.7746 calculate D2E/DX2 analyti!
 ! A83   A(42,39,43)      116.296   115.9426  116.6098 calculate D2E/DX2 analyti!
 ! A84   A(37,43,39)      121.7179  120.3734  122.7863 calculate D2E/DX2 analyti!
 ! A85   A(37,43,50)      119.0721  119.3646  118.5709 calculate D2E/DX2 analyti!
 ! A86   A(39,43,50)      119.0606  119.4006  118.6274 calculate D2E/DX2 analyti!
 ! A87   A(33,44,45)      104.7626  105.035   104.7736 calculate D2E/DX2 analyti!
 ! A88   A(33,44,46)      111.0107  111.0381  111.6238 calculate D2E/DX2 analyti!
 ! A89   A(33,44,47)      110.011   109.401   110.5291 calculate D2E/DX2 analyti!
 ! A90   A(45,44,46)      110.0769  110.1838  109.6938 calculate D2E/DX2 analyti!
 ! A91   A(45,44,47)      110.1805  110.3933  109.809  calculate D2E/DX2 analyti!
 ! A92   A(46,44,47)      110.6506  110.6522  110.2725 calculate D2E/DX2 analyti!
 ! A93   A(14,48,16)      122.6615  123.0746  122.3374 calculate D2E/DX2 analyti!
 ! A94   A(14,48,49)      118.6841  118.5038  118.853  calculate D2E/DX2 analyti!
 ! A95   A(16,48,49)      118.6536  118.4067  118.8033 calculate D2E/DX2 analyti!
 ! D1    D(6,1,2,3)      -179.266  -179.4973 -178.8197 calculate D2E/DX2 analyti!
 ! D2    D(6,1,2,7)         1.0932    0.7814    1.2353 calculate D2E/DX2 analyti!
 ! D3    D(31,1,2,3)        1.4586    1.0419    2.0507 calculate D2E/DX2 analyti!
 ! D4    D(31,1,2,7)     -178.1822 -178.6794 -177.8944 calculate D2E/DX2 analyti!
 ! D5    D(2,1,31,5)       -0.0624    0.2808   -0.6659 calculate D2E/DX2 analyti!
 ! D6    D(2,1,31,32)     179.3926  179.725   179.0509 calculate D2E/DX2 analyti!
 ! D7    D(6,1,31,5)     -179.3327 -179.1763 -179.7907 calculate D2E/DX2 analyti!
 ! D8    D(6,1,31,32)       0.1222    0.268    -0.0739 calculate D2E/DX2 analyti!
 ! D9    D(1,2,3,4)        -1.8391   -1.7434   -1.6944 calculate D2E/DX2 analyti!
 ! D10   D(1,2,3,10)     -179.234  -179.6656 -179.4198 calculate D2E/DX2 analyti!
 ! D11   D(7,2,3,4)       177.7977  177.9749  178.2502 calculate D2E/DX2 analyti!
 ! D12   D(7,2,3,10)        0.4028    0.0527    0.5249 calculate D2E/DX2 analyti!
 ! D13   D(2,3,4,5)         0.8105    1.1081   -0.0501 calculate D2E/DX2 analyti!
 ! D14   D(2,3,4,8)      -179.4283 -179.5198 -179.8671 calculate D2E/DX2 analyti!
 ! D15   D(10,3,4,5)      178.2165  179.0218  177.7403 calculate D2E/DX2 analyti!
 ! D16   D(10,3,4,8)       -2.0223   -1.6061   -2.0767 calculate D2E/DX2 analyti!
 ! D17   D(2,3,10,11)    -117.8884 -113.6096 -125.0269 calculate D2E/DX2 analyti!
 ! D18   D(2,3,10,20)      52.4984   52.1186   48.9878 calculate D2E/DX2 analyti!
 ! D19   D(2,3,10,33)     166.3549  167.4477  151.9636 calculate D2E/DX2 analyti!
 ! D20   D(2,3,10,34)     -66.874   -71.9639  -55.3355 calculate D2E/DX2 analyti!
 ! D21   D(4,3,10,11)      64.6924   68.4541   57.2145 calculate D2E/DX2 analyti!
 ! D22   D(4,3,10,20)    -124.9208 -125.8176 -128.7708 calculate D2E/DX2 analyti!
 ! D23   D(4,3,10,33)     -11.0643  -10.4886  -25.795  calculate D2E/DX2 analyti!
 ! D24   D(4,3,10,34)     115.7069  110.0999  126.9059 calculate D2E/DX2 analyti!
 ! D25   D(3,4,5,9)      -179.5958 -179.9272 -178.9228 calculate D2E/DX2 analyti!
 ! D26   D(3,4,5,31)        0.5986    0.2279    1.4384 calculate D2E/DX2 analyti!
 ! D27   D(8,4,5,9)         0.6419    0.6976    0.8954 calculate D2E/DX2 analyti!
 ! D28   D(8,4,5,31)     -179.1637 -179.1473 -178.7435 calculate D2E/DX2 analyti!
 ! D29   D(4,5,31,1)       -0.9757   -0.9229   -1.0846 calculate D2E/DX2 analyti!
 ! D30   D(4,5,31,32)     179.5695  179.633   179.1986 calculate D2E/DX2 analyti!
 ! D31   D(9,5,31,1)      179.2198  179.2331  179.2783 calculate D2E/DX2 analyti!
 ! D32   D(9,5,31,32)      -0.235    -0.211    -0.4385 calculate D2E/DX2 analyti!
 ! D33   D(3,10,11,12)   -129.4832 -118.5536 -141.8729 calculate D2E/DX2 analyti!
 ! D34   D(3,10,11,13)     35.7437   30.0519   40.319  calculate D2E/DX2 analyti!
 ! D35   D(33,10,11,12)   -17.1197  -10.2875  -24.236  calculate D2E/DX2 analyti!
 ! D36   D(33,10,11,13)   148.1073  138.3179  157.9559 calculate D2E/DX2 analyti!
 ! D37   D(34,10,11,12)   103.0553  110.4664   97.1858 calculate D2E/DX2 analyti!
 ! D38   D(34,10,11,13)   -91.7178 -100.9281  -80.6223 calculate D2E/DX2 analyti!
 ! D39   D(3,10,20,21)   -137.801  -138.951  -132.3791 calculate D2E/DX2 analyti!
 ! D40   D(3,10,20,22)     42.8256   42.0804   47.3768 calculate D2E/DX2 analyti!
 ! D41   D(33,10,20,21)   105.542   106.7184  108.4841 calculate D2E/DX2 analyti!
 ! D42   D(33,10,20,22)   -73.8314  -72.2502  -71.76   calculate D2E/DX2 analyti!
 ! D43   D(34,10,20,21)   -12.1551  -12.0287  -11.1035 calculate D2E/DX2 analyti!
 ! D44   D(34,10,20,22)   168.4715  169.0027  168.6524 calculate D2E/DX2 analyti!
 ! D45   D(3,10,33,44)   -124.2927 -131.6828 -112.6457 calculate D2E/DX2 analyti!
 ! D46   D(11,10,33,44)   157.7136  148.6102  160.4968 calculate D2E/DX2 analyti!
 ! D47   D(20,10,33,44)   -11.7046  -17.8273  -10.4161 calculate D2E/DX2 analyti!
 ! D48   D(34,10,33,44)   104.7554  102.8854   94.1195 calculate D2E/DX2 analyti!
 ! D49   D(3,10,34,11)    -62.5225  -56.3665  -79.8074 calculate D2E/DX2 analyti!
 ! D50   D(3,10,34,35)   -159.1476 -161.592  -165.0625 calculate D2E/DX2 analyti!
 ! D51   D(3,10,34,36)     35.7567   50.3231   13.8702 calculate D2E/DX2 analyti!
 ! D52   D(11,10,34,35)   -96.6251 -105.2256  -85.2552 calculate D2E/DX2 analyti!
 ! D53   D(11,10,34,36)    98.2792  106.6896   93.6776 calculate D2E/DX2 analyti!
 ! D54   D(20,10,34,11)   179.9987 -177.7042  177.0037 calculate D2E/DX2 analyti!
 ! D55   D(20,10,34,35)    83.3736   77.0702   91.7486 calculate D2E/DX2 analyti!
 ! D56   D(20,10,34,36)   -81.7221  -71.0147  -89.3187 calculate D2E/DX2 analyti!
 ! D57   D(33,10,34,11)    64.5259   63.487    72.9025 calculate D2E/DX2 analyti!
 ! D58   D(33,10,34,35)   -32.0992  -41.7385  -12.3526 calculate D2E/DX2 analyti!
 ! D59   D(33,10,34,36)   162.805   170.1766  166.5801 calculate D2E/DX2 analyti!
 ! D60   D(10,11,12,14)   164.1792  144.5009 -176.865  calculate D2E/DX2 analyti!
 ! D61   D(10,11,12,15)   -15.6649  -35.0988    3.0754 calculate D2E/DX2 analyti!
 ! D62   D(13,11,12,14)    -1.6027   -3.7069    1.0289 calculate D2E/DX2 analyti!
 ! D63   D(13,11,12,15)   178.5532  176.6934 -179.0307 calculate D2E/DX2 analyti!
 ! D64   D(34,11,12,14)  -145.6294 -165.3553 -121.0724 calculate D2E/DX2 analyti!
 ! D65   D(34,11,12,15)    34.5264   15.045    58.868  calculate D2E/DX2 analyti!
 ! D66   D(10,11,13,16)  -163.8453 -143.0639  176.9233 calculate D2E/DX2 analyti!
 ! D67   D(10,11,13,17)    15.9211   35.9412   -2.8486 calculate D2E/DX2 analyti!
 ! D68   D(12,11,13,16)     1.5619    3.697    -1.0095 calculate D2E/DX2 analyti!
 ! D69   D(12,11,13,17)  -178.6716 -177.298   179.2186 calculate D2E/DX2 analyti!
 ! D70   D(34,11,13,16)   147.6036  166.0099  127.3044 calculate D2E/DX2 analyti!
 ! D71   D(34,11,13,17)   -32.63    -14.985   -52.4675 calculate D2E/DX2 analyti!
 ! D72   D(12,11,20,21)    88.8971   98.0989   82.4058 calculate D2E/DX2 analyti!
 ! D73   D(12,11,20,22)   -92.1209  -84.3372  -97.1358 calculate D2E/DX2 analyti!
 ! D74   D(13,11,20,21)  -100.1025 -106.5963  -90.1768 calculate D2E/DX2 analyti!
 ! D75   D(13,11,20,22)    78.8795   70.9676   90.2815 calculate D2E/DX2 analyti!
 ! D76   D(12,11,34,10)  -102.6398  -93.8091 -111.7747 calculate D2E/DX2 analyti!
 ! D77   D(12,11,34,35)    14.2454   23.1355    4.8837 calculate D2E/DX2 analyti!
 ! D78   D(12,11,34,36)   136.982   146.7853  130.4397 calculate D2E/DX2 analyti!
 ! D79   D(13,11,34,10)   111.851   104.1002  119.3683 calculate D2E/DX2 analyti!
 ! D80   D(13,11,34,35)  -131.2638 -138.9552 -123.9734 calculate D2E/DX2 analyti!
 ! D81   D(13,11,34,36)    -8.5272  -15.3054    1.5827 calculate D2E/DX2 analyti!
 ! D82   D(11,12,14,18)  -179.1465 -178.8895 -179.8066 calculate D2E/DX2 analyti!
 ! D83   D(11,12,14,48)     0.6089    1.318    -0.4577 calculate D2E/DX2 analyti!
 ! D84   D(15,12,14,18)     0.7026    0.7231    0.2512 calculate D2E/DX2 analyti!
 ! D85   D(15,12,14,48)  -179.542  -179.0694  179.6001 calculate D2E/DX2 analyti!
 ! D86   D(11,13,16,19)   179.2506  178.751   179.9222 calculate D2E/DX2 analyti!
 ! D87   D(11,13,16,48)    -0.5217   -1.2846    0.416  calculate D2E/DX2 analyti!
 ! D88   D(17,13,16,19)    -0.5229   -0.2839   -0.2975 calculate D2E/DX2 analyti!
 ! D89   D(17,13,16,48)   179.7048  179.6806 -179.8038 calculate D2E/DX2 analyti!
 ! D90   D(12,14,48,16)     0.5036    1.1658   -0.1938 calculate D2E/DX2 analyti!
 ! D91   D(12,14,48,49)  -179.8066  179.7422 -179.2683 calculate D2E/DX2 analyti!
 ! D92   D(18,14,48,16)  -179.7216 -178.6422  179.2039 calculate D2E/DX2 analyti!
 ! D93   D(18,14,48,49)    -0.0318   -0.0658    0.1293 calculate D2E/DX2 analyti!
 ! D94   D(13,16,48,14)    -0.5475   -1.1832    0.2147 calculate D2E/DX2 analyti!
 ! D95   D(13,16,48,49)   179.7626 -179.7609  179.2897 calculate D2E/DX2 analyti!
 ! D96   D(19,16,48,14)   179.6618  178.784  -179.3287 calculate D2E/DX2 analyti!
 ! D97   D(19,16,48,49)    -0.0281    0.2063   -0.2537 calculate D2E/DX2 analyti!
 ! D98   D(10,20,21,23)  -179.2853 -178.9917  179.7367 calculate D2E/DX2 analyti!
 ! D99   D(10,20,21,24)     0.8511    1.2023   -0.1933 calculate D2E/DX2 analyti!
 ! D100  D(22,20,21,23)     0.0861   -0.0323   -0.0202 calculate D2E/DX2 analyti!
 ! D101  D(22,20,21,24)  -179.7775 -179.8384 -179.9502 calculate D2E/DX2 analyti!
 ! D102  D(10,20,22,25)   179.0818  178.7721 -179.9812 calculate D2E/DX2 analyti!
 ! D103  D(10,20,22,26)    -0.8708   -1.3722   -0.0131 calculate D2E/DX2 analyti!
 ! D104  D(21,20,22,25)    -0.3023   -0.2086   -0.2135 calculate D2E/DX2 analyti!
 ! D105  D(21,20,22,26)   179.7451  179.6471  179.7546 calculate D2E/DX2 analyti!
 ! D106  D(20,21,23,27)     0.1363    0.198     0.1881 calculate D2E/DX2 analyti!
 ! D107  D(20,21,23,28)  -179.7633 -179.744  -179.7544 calculate D2E/DX2 analyti!
 ! D108  D(24,21,23,27)  -179.9973 -179.9928 -179.8799 calculate D2E/DX2 analyti!
 ! D109  D(24,21,23,28)     0.1031    0.0653    0.1776 calculate D2E/DX2 analyti!
 ! D110  D(20,22,25,27)     0.2957    0.2834    0.2794 calculate D2E/DX2 analyti!
 ! D111  D(20,22,25,29)  -179.9444 -179.9845 -179.9448 calculate D2E/DX2 analyti!
 ! D112  D(26,22,25,27)  -179.7513 -179.5734 -179.6891 calculate D2E/DX2 analyti!
 ! D113  D(26,22,25,29)     0.0087    0.1588    0.0867 calculate D2E/DX2 analyti!
 ! D114  D(21,23,27,25)    -0.1444   -0.1239   -0.1234 calculate D2E/DX2 analyti!
 ! D115  D(21,23,27,30)  -179.9466 -179.9295 -179.9508 calculate D2E/DX2 analyti!
 ! D116  D(28,23,27,25)   179.7545  179.8177  179.8187 calculate D2E/DX2 analyti!
 ! D117  D(28,23,27,30)    -0.0477    0.012    -0.0087 calculate D2E/DX2 analyti!
 ! D118  D(22,25,27,23)    -0.072    -0.1181   -0.1076 calculate D2E/DX2 analyti!
 ! D119  D(22,25,27,30)   179.7303  179.6876  179.7199 calculate D2E/DX2 analyti!
 ! D120  D(29,25,27,23)  -179.8307 -179.8491 -179.8825 calculate D2E/DX2 analyti!
 ! D121  D(29,25,27,30)    -0.0285   -0.0433   -0.055  calculate D2E/DX2 analyti!
 ! D122  D(10,33,44,45)  -167.6529 -163.3808 -162.8561 calculate D2E/DX2 analyti!
 ! D123  D(10,33,44,46)   -48.8698  -44.2969  -44.2073 calculate D2E/DX2 analyti!
 ! D124  D(10,33,44,47)    73.9458   78.121    78.9152 calculate D2E/DX2 analyti!
 ! D125  D(10,34,35,37)  -176.3324 -166.0392  175.8479 calculate D2E/DX2 analyti!
 ! D126  D(10,34,35,38)     6.2666   17.3794   -3.4536 calculate D2E/DX2 analyti!
 ! D127  D(11,34,35,37)   102.8485  103.2101  115.571  calculate D2E/DX2 analyti!
 ! D128  D(11,34,35,38)   -74.5525  -73.3713  -63.7305 calculate D2E/DX2 analyti!
 ! D129  D(36,34,35,37)   -10.499   -16.2361   -3.132  calculate D2E/DX2 analyti!
 ! D130  D(36,34,35,38)   172.1     167.1824  177.5665 calculate D2E/DX2 analyti!
 ! D131  D(10,34,36,39)   176.0637  165.3545 -175.2942 calculate D2E/DX2 analyti!
 ! D132  D(10,34,36,40)    -6.081   -17.1853    4.0826 calculate D2E/DX2 analyti!
 ! D133  D(11,34,36,39)  -101.4752 -102.4523 -110.4322 calculate D2E/DX2 analyti!
 ! D134  D(11,34,36,40)    76.3801   75.0079   68.9447 calculate D2E/DX2 analyti!
 ! D135  D(35,34,36,39)    10.7837   16.3085    3.6315 calculate D2E/DX2 analyti!
 ! D136  D(35,34,36,40)  -171.361  -166.2313 -176.9916 calculate D2E/DX2 analyti!
 ! D137  D(34,35,37,41)  -177.657  -176.6277 -179.7395 calculate D2E/DX2 analyti!
 ! D138  D(34,35,37,43)     3.5609    5.0608    0.7774 calculate D2E/DX2 analyti!
 ! D139  D(38,35,37,41)    -0.2022    0.0179   -0.418  calculate D2E/DX2 analyti!
 ! D140  D(38,35,37,43)  -178.9843 -178.2935 -179.9012 calculate D2E/DX2 analyti!
 ! D141  D(34,36,39,42)   177.4855  176.8316  179.1672 calculate D2E/DX2 analyti!
 ! D142  D(34,36,39,43)    -4.1715   -5.2246   -1.7931 calculate D2E/DX2 analyti!
 ! D143  D(40,36,39,42)    -0.4354   -0.6848   -0.2306 calculate D2E/DX2 analyti!
 ! D144  D(40,36,39,43)   177.9076  177.259   178.8091 calculate D2E/DX2 analyti!
 ! D145  D(35,37,43,39)     3.5298    7.2327    1.1685 calculate D2E/DX2 analyti!
 ! D146  D(35,37,43,50)   179.0453  176.5456  179.7205 calculate D2E/DX2 analyti!
 ! D147  D(41,37,43,39)  -175.3314 -171.1812 -178.3502 calculate D2E/DX2 analyti!
 ! D148  D(41,37,43,50)     0.1841   -1.8683    0.2018 calculate D2E/DX2 analyti!
 ! D149  D(36,39,43,37)    -3.2196   -7.1541   -0.6531 calculate D2E/DX2 analyti!
 ! D150  D(36,39,43,50)  -178.7356 -176.4632 -179.2044 calculate D2E/DX2 analyti!
 ! D151  D(42,39,43,37)   175.2294  170.9141  178.4523 calculate D2E/DX2 analyti!
 ! D152  D(42,39,43,50)    -0.2866    1.6051   -0.0989 calculate D2E/DX2 analyti!
 --------------------------------------------------------------------------------
 Trust Radius=3.00D-01 FncErr=1.00D-07 GrdErr=1.00D-06 EigMax=2.50D+02 EigMin=1.00D-04
 Number of steps in this run=    200 maximum allowed number of steps=    300.
 Search for a saddle point of order  1.
 GradGradGradGradGradGradGradGradGradGradGradGradGradGradGradGradGradGrad

                          Input orientation:                          
 ---------------------------------------------------------------------
 Center     Atomic      Atomic             Coordinates (Angstroms)
 Number     Number       Type             X           Y           Z
 ---------------------------------------------------------------------
      1          6           0        0.489740    3.292115   -2.013767
      2          6           0        0.711303    2.008109   -1.522718
      3          6           0        0.241998    1.665229   -0.250681
      4          6           0       -0.412210    2.612878    0.542805
      5          6           0       -0.610146    3.899450    0.052633
      6          1           0        0.843213    3.555826   -3.006152
      7          1           0        1.251735    1.285819   -2.129365
      8          1           0       -0.768272    2.348831    1.534123
      9          1           0       -1.112159    4.638557    0.670036
     10         15           0        0.540407    0.015532    0.402567
     11          6           0       -1.971769   -0.097624    0.380328
     12          6           0       -2.643431   -0.507628    1.536359
     13          6           0       -2.723314    0.515922   -0.627638
     14          6           0       -3.996918   -0.275852    1.675245
     15          1           0       -2.122919   -1.010869    2.346306
     16          6           0       -4.073732    0.733155   -0.461159
     17          1           0       -2.262104    0.837531   -1.559283
     18          1           0       -4.578056   -0.553378    2.546836
     19          1           0       -4.713051    1.212049   -1.193327
     20          6           0        2.335060   -0.221291    0.226673
     21          6           0        2.866316   -1.436143   -0.222204
     22          6           0        3.200767    0.831098    0.560408
     23          6           0        4.246558   -1.595902   -0.333779
     24          1           0        2.218224   -2.265032   -0.490299
     25          6           0        4.576919    0.665249    0.451668
     26          1           0        2.802589    1.781900    0.906562
     27          6           0        5.100585   -0.548591    0.003623
     28          1           0        4.651166   -2.540110   -0.686461
     29          1           0        5.240815    1.484227    0.712717
     30          1           0        6.175980   -0.675377   -0.085060
     31          6           0       -0.169074    4.236131   -1.227486
     32          1           0       -0.331632    5.239968   -1.609696
     33          8           0        0.233603   -0.024586    1.968155
     34          6           0       -0.273921   -1.348170   -0.405997
     35          6           0       -0.439105   -2.572356    0.313011
     36          6           0       -0.486786   -1.381919   -1.815980
     37          6           0       -0.991817   -3.648508   -0.315526
     38          1           0       -0.172040   -2.650488    1.360585
     39          6           0       -1.044591   -2.493380   -2.379770
     40          1           0       -0.250063   -0.536974   -2.450550
     41          1           0       -1.178311   -4.592287    0.182072
     42          1           0       -1.269247   -2.568167   -3.436751
     43          7           0       -1.316943   -3.586688   -1.630141
     44          6           0        1.182895   -0.452714    2.971932
     45          1           0        0.592180   -0.570921    3.880406
     46          1           0        1.641298   -1.404453    2.696492
     47          1           0        1.945795    0.314631    3.115984
     48          7           0       -4.667879    0.337740    0.682277
     49          1           0       -5.664446    0.505706    0.797489
     50          1           0       -1.713843   -4.406180   -2.079245
 ---------------------------------------------------------------------
                    Distance matrix (angstroms):
                    1          2          3          4          5
     1  C    0.000000
     2  C    1.392441   0.000000
     3  C    2.411764   1.398532   0.000000
     4  C    2.794805   2.427841   1.398444   0.000000
     5  C    2.418391   2.793766   2.410372   1.390940   0.000000
     6  H    1.085963   2.147884   3.395355   3.880765   3.403894
     7  H    2.149238   1.087102   2.166327   3.416181   3.880565
     8  H    3.880709   3.413138   2.161824   1.085915   2.150404
     9  H    3.403202   3.879747   3.394428   2.146973   1.086040
    10  P    4.071515   2.776021   1.799245   2.770082   4.065839
    11  C    4.825044   3.905710   2.899412   3.131365   4.235328
    12  C    6.071096   5.190484   4.029953   3.962708   5.075237
    13  C    4.466802   3.850245   3.202511   3.332921   4.046790
    14  C    6.816839   6.132764   5.044343   4.741024   5.615714
    15  H    6.659722   5.667132   4.415730   4.394392   5.626780
    16  C    5.457485   5.064482   4.420248   4.236513   4.720787
    17  H    3.715398   3.195738   2.944155   3.315530   3.834395
    18  H    7.827482   7.148413   5.998436   5.603177   6.464753
    19  H    5.662935   5.492343   5.064234   4.844967   5.060471
    20  C    4.557280   3.266065   2.857925   3.959791   5.068041
    21  C    5.586970   4.265945   4.062803   5.265790   6.374157
    22  C    4.475785   3.452854   3.179301   4.028480   4.918910
    23  C    6.389738   5.186569   5.165112   6.339270   7.344098
    24  H    6.015854   4.647196   4.405660   5.637419   6.804064
    25  C    5.448287   4.543618   4.503864   5.356582   6.125759
    26  H    4.019744   3.213417   2.812374   3.340326   4.106090
    27  C    6.330938   5.303982   5.345235   6.377814   7.238779
    28  H    7.286567   6.075207   6.108645   7.328176   8.348389
    29  H    5.768439   5.078199   5.094023   5.767098   6.364178
    30  H    7.196821   6.255450   6.381066   7.389931   8.185323
    31  C    1.394073   2.413775   2.780767   2.414124   1.395207
    32  H    2.152221   3.397086   3.867135   3.397257   2.153578
    33  O    5.188624   4.067707   2.789046   3.066743   4.447381
    34  C    4.969944   3.671831   3.061188   4.075445   5.278343
    35  C    6.377199   5.066952   4.328831   5.190393   6.479300
    36  C    4.779050   3.607452   3.502342   4.639809   5.603552
    37  C    7.297348   6.029531   5.455484   6.346466   7.566564
    38  H    6.865765   5.549438   4.625259   5.331929   6.693606
    39  C    5.996673   4.907250   4.845860   5.917366   6.853729
    40  H    3.924285   2.874464   3.151388   4.348337   5.106608
    41  H    8.352718   7.074050   6.431256   7.254753   8.511707
    42  H    6.281865   5.341199   5.509677   6.588976   7.378366
    43  N    7.122444   5.952065   5.649411   6.631354   7.705424
    44  C    6.273867   5.145865   3.969409   4.224082   5.538830
    45  H    7.048036   5.988266   4.710507   4.720694   6.006800
    46  H    6.750583   5.505652   4.479600   4.999421   6.339588
    47  H    6.107361   5.090127   4.007677   4.178921   5.363570
    48  N    6.526716   6.048780   5.171028   4.827673   5.435754
    49  H    7.317188   6.949155   6.109766   5.664894   6.133372
    50  H    8.007734   6.879982   6.635583   7.605036   8.645608
                    6          7          8          9         10
     6  H    0.000000
     7  H    2.467504   0.000000
     8  H    4.966671   4.316430   0.000000
     9  H    4.302342   4.966437   2.471386   0.000000
    10  P    4.923895   2.920667   2.904711   4.916795   0.000000
    11  C    5.721894   4.313172   2.960539   4.822268   2.514821
    12  C    7.021592   5.641481   3.416955   5.438615   3.419942
    13  C    5.255327   4.318442   3.443103   4.612580   3.458842
    14  C    7.747522   6.668001   4.163296   5.786510   4.721433
    15  H    7.635539   6.057615   3.712451   5.978924   3.453249
    16  C    6.214564   5.607936   4.185406   5.030177   4.748819
    17  H    4.373277   3.587899   3.752962   4.554123   3.518324
    18  H    8.781309   7.696490   4.895187   6.518513   5.578549
    19  H    6.296959   6.038235   4.928746   5.308437   5.619373
    20  C    5.190701   2.999315   4.236227   5.974781   1.818737
    21  C    6.063255   3.695025   5.533619   7.316169   2.812037
    22  C    5.069769   3.352667   4.359462   5.754137   2.787037
    23  C    6.727900   4.527407   6.648195   8.282027   4.107856
    24  H    6.488649   4.028546   5.857062   7.752249   2.968712
    25  C    5.852565   4.254843   5.707646   6.942656   4.088762
    26  H    4.721790   3.445010   3.669645   4.851978   2.914024
    27  C    6.635526   4.767425   6.721679   8.120887   4.612224
    28  H    7.552609   5.317503   7.629092   9.305335   4.961414
    29  H    6.120491   4.901995   6.126286   7.093088   4.934277
    30  H    7.407716   5.680991   7.745336   9.051245   5.698668
    31  C    2.156662   3.396531   3.398150   2.156837   4.579726
    32  H    2.483281   4.290967   4.293358   2.483565   5.666073
    33  O    6.159116   4.420795   2.612517   5.024051   1.595871
    34  C    5.661976   3.497931   4.204315   6.140146   1.782299
    35  C    7.086311   4.869256   5.081097   7.251051   2.768507
    36  C    5.250403   3.199608   5.022043   6.543508   2.816016
    37  C    7.906278   5.715866   6.280068   8.346332   4.035908
    38  H    7.656204   5.449899   5.037737   7.381792   2.921137
    39  C    6.367814   4.429239   6.232328   7.756959   4.067955
    40  H    4.272582   2.383512   4.947123   6.104702   3.011708
    41  H    8.980149   6.767569   7.083452   9.243969   4.922866
    42  H    6.492395   4.787256   7.009810   8.296219   4.968975
    43  N    7.587831   5.530701   6.748629   8.543267   4.534053
    44  C    7.205641   5.389849   3.704457   6.040450   2.689550
    45  H    8.032294   6.324543   3.985075   6.352158   3.527318
    46  H    7.600096   5.538792   4.609151   6.943055   2.913831
    47  H    7.014384   5.379462   3.742514   5.833531   3.070376
    48  N    7.371073   6.621632   4.469571   5.580351   5.225734
    49  H    8.131454   7.550405   5.283205   6.149798   6.236701
    50  H    8.413753   6.418412   7.718854   9.472478   5.549105
                   11         12         13         14         15
    11  C    0.000000
    12  C    1.398442   0.000000
    13  C    1.399019   2.395187   0.000000
    14  C    2.410353   1.380194   2.748135   0.000000
    15  H    2.173001   1.086369   3.396455   2.121897   0.000000
    16  C    2.411751   2.752341   1.377873   2.363941   3.837858
    17  H    2.172763   3.396743   1.088168   3.835541   4.323145
    18  H    3.419678   2.183101   3.828937   1.083703   2.505436
    19  H    3.421441   3.832989   2.182579   3.309894   4.917230
    20  C    4.311343   5.155835   5.182710   6.495790   4.998985
    21  C    5.055862   5.857644   5.934551   7.214608   5.627661
    22  C    5.258335   6.074481   6.050250   7.367148   5.909645
    23  C    6.436022   7.221752   7.288708   8.586827   6.935082
    24  H    4.797050   5.552612   5.671981   6.875639   5.335239
    25  C    6.593359   7.394975   7.381098   8.711687   7.161484
    26  H    5.157909   5.941188   5.872995   7.145524   5.842350
    27  C    7.096722   7.894349   7.921179   9.253824   7.607948
    28  H    7.139121   7.891962   7.982841   9.246290   7.577894
    29  H    7.391489   8.173568   8.133973   9.453044   7.944728
    30  H    8.181455   8.968788   8.995055  10.331803   8.654237
    31  C    4.961472   6.022004   4.552353   6.590617   6.642327
    32  H    5.927911   6.948161   5.385275   7.392525   7.611283
    33  O    2.718491   2.949085   3.971605   4.248086   2.582431
    34  C    2.250524   3.177080   3.086015   4.397970   3.332827
    35  C    2.911681   3.258640   3.954730   4.448331   3.067207
    36  C    2.945905   4.080892   3.164809   5.072777   4.487676
    37  C    3.748773   4.002803   4.520838   4.936457   3.914317
    38  H    3.273689   3.275747   4.526387   4.513048   2.732385
    39  C    3.770603   4.672854   3.865744   5.484233   5.069164
    40  H    3.342330   4.650217   3.247856   5.579363   5.171266
    41  H    4.568465   4.545889   5.397820   5.367096   4.289842
    42  H    4.600784   5.555720   4.417808   6.231164   6.049602
    43  N    4.079749   4.611605   4.451326   5.391612   4.805889
    44  C    4.098098   4.087133   5.399410   5.342578   3.410477
    45  H    4.364446   3.995966   5.700543   5.099963   3.149409
    46  H    4.486276   4.528698   5.812703   5.840048   3.800904
    47  H    4.795944   4.922633   5.987971   6.143308   4.347849
    48  N    2.747676   2.354250   2.351374   1.346354   3.326343
    49  H    3.764823   3.270979   3.268233   2.040083   4.152258
    50  H    4.967865   5.397725   5.230037   6.030608   5.592940
                   16         17         18         19         20
    16  C    0.000000
    17  H    2.121030   0.000000
    18  H    3.310218   4.915127   0.000000
    19  H    1.083577   2.506258   4.138088   0.000000
    20  C    6.515880   5.044270   7.299631   7.331216   0.000000
    21  C    7.275110   5.766981   7.991591   8.087200   1.399853
    22  C    7.346532   5.859701   8.146948   8.114754   1.402979
    23  C    8.641062   7.055929   9.341232   9.428574   2.420224
    24  H    6.969841   5.553554   7.638283   7.786329   2.169004
    25  C    8.698944   7.130627   9.470393   9.450320   2.421262
    26  H    7.089028   5.711684   7.913150   7.824264   2.166473
    27  C    9.275073   7.653313  10.007200  10.041912   2.793744
    28  H    9.321420   7.743615   9.978971  10.100701   3.402217
    29  H    9.418221   7.866002  10.194413  10.138369   3.404180
    30  H   10.352874   8.698476  11.072084  11.106828   3.880211
    31  C    5.301363   4.005165   7.524894   5.458385   5.315438
    32  H    5.969406   4.807361   8.298900   5.966098   6.348925
    33  O    5.002886   4.406202   4.875095   5.999468   2.736343
    34  C    4.332842   3.171786   5.279820   5.184639   2.911513
    35  C    4.973556   4.296061   5.118316   5.904015   3.637438
    36  C    4.378956   2.853700   6.038140   4.997768   3.671826
    37  C    5.358953   4.825464   5.534804   6.184103   4.807068
    38  H    5.476403   5.006024   5.021757   6.485556   3.670464
    39  C    4.823618   3.640124   6.365566   5.347471   4.835077
    40  H    4.493478   2.594596   6.611026   4.955598   3.734975
    41  H    6.095699   5.804296   5.784735   6.933717   5.608152
    42  H    5.255284   4.013655   7.128177   5.584153   5.649737
    43  N    5.256182   4.524606   6.105978   5.895102   5.301960
    44  C    6.389407   5.836494   5.777490   7.408306   2.986216
    45  H    6.505424   6.302451   5.339481   7.554285   4.063205
    46  H    6.870349   6.194728   6.279099   7.896488   2.825099
    47  H    7.014686   6.311732   6.605907   7.982215   2.964263
    48  N    1.347891   3.325979   2.068511   2.069866   7.039975
    49  H    2.041151   4.152158   2.315625   2.316770   8.052729
    50  H    5.882180   5.297873   6.666965   6.429976   6.262920
                   21         22         23         24         25
    21  C    0.000000
    22  C    2.421719   0.000000
    23  C    1.393930   2.789906   0.000000
    24  H    1.085797   3.414000   2.141582   0.000000
    25  C    2.792152   1.390369   2.416375   3.877795   0.000000
    26  H    3.410861   1.087379   3.877246   4.320921   2.145247
    27  C    2.414685   2.413060   1.392861   3.390890   1.395843
    28  H    2.149411   3.876001   1.086104   2.456289   3.402231
    29  H    3.878258   2.147457   3.401602   4.963894   1.086107
    30  H    3.398742   3.396761   2.152184   4.284280   2.154612
    31  C    6.511442   5.113379   7.369473   6.964751   6.172131
    32  H    7.531432   6.051886   8.325678   8.004988   7.019341
    33  O    3.704233   3.393819   4.885872   3.873282   4.651881
    34  C    3.146841   4.213859   4.527838   2.656789   5.321663
    35  C    3.535993   4.989326   4.829828   2.793054   5.971751
    36  C    3.712998   4.913523   4.964600   3.139172   5.913902
    37  C    4.448422   6.197733   5.626197   3.499845   7.085754
    38  H    3.634757   4.912998   4.848405   3.047574   5.862837
    39  C    4.589993   6.141650   5.743501   3.777328   7.042397
    40  H    3.935206   4.779719   5.081501   3.594608   5.759164
    41  H    5.146231   6.980872   6.218813   4.171888   7.799810
    42  H    5.358887   6.892990   6.402956   4.575579   7.729970
    43  N    4.909866   6.687678   6.049490   3.942514   7.559795
    44  C    3.742131   3.396385   4.649799   4.042703   4.372753
    45  H    4.769876   4.448907   5.671368   4.961562   5.400232
    46  H    3.165511   3.463017   4.000822   3.350981   4.235655
    47  H    3.880215   2.893555   4.565579   4.442314   3.760894
    48  N    7.792871   7.885039   9.178155   7.454379   9.253471
    49  H    8.808204   8.874350  10.194338   8.454104  10.248444
    50  H    5.766071   7.651813   6.816942   4.750833   8.467503
                   26         27         28         29         30
    26  H    0.000000
    27  C    3.395184   0.000000
    28  H    4.963339   2.155073   0.000000
    29  H    2.463967   2.157505   4.301241   0.000000
    30  H    4.289673   1.086468   2.482734   2.484929   0.000000
    31  C    4.405473   7.223469   8.333358   6.372147   8.104798
    32  H    5.302182   8.100568   9.284948   7.109948   8.925516
    33  O    3.315126   5.274607   5.734955   5.378179   6.320685
    34  C    4.580946   5.449076   5.075023   6.299707   6.492833
    35  C    5.460808   5.905888   5.187566   6.991217   6.893210
    36  C    5.314318   5.934990   5.386629   6.885820   6.920097
    37  C    6.736494   6.843150   5.762759   8.139285   7.763371
    38  H    5.357296   5.836085   5.240792   6.842120   6.803551
    39  C    6.624107   6.872114   5.942317   8.055505   7.791500
    40  H    5.095691   5.886640   5.580915   6.651410   6.848995
    41  H    7.550014   7.470466   6.240880   8.854986   8.336614
    42  H    7.373418   7.515958   6.528106   8.718996   8.381402
    43  N    7.226835   7.285869   6.132225   8.614369   8.185774
    44  C    3.447124   4.916131   5.456186   5.032147   5.858812
    45  H    4.389239   5.946063   6.419451   5.988964   6.849427
    46  H    3.834748   4.466622   4.668339   5.023580   5.369537
    47  H    2.787206   4.514936   5.470573   4.242735   5.396412
    48  N    7.612082   9.832042   9.848861   9.974847  10.918081
    49  H    8.563367  10.845629  10.857760  10.949402  11.931871
    50  H    8.222259   8.102824   6.777566   9.532010   8.952372
                   31         32         33         34         35
    31  C    0.000000
    32  H    1.086369   0.000000
    33  O    5.341159   6.390308   0.000000
    34  C    5.645375   6.697446   2.765150   0.000000
    35  C    6.985810   8.046164   3.111779   1.429297   0.000000
    36  C    5.657716   6.626916   4.084237   1.426360   2.439675
    37  C    7.979731   9.006427   4.455296   2.411455   1.363324
    38  H    7.356877   8.432517   2.725628   2.197094   1.083900
    39  C    6.883357   7.804229   5.160734   2.408572   2.761145
    40  H    4.927979   5.838386   4.474531   2.199728   3.437410
    41  H    8.997020  10.029982   5.103674   3.418778   2.154923
    42  H    7.238073   8.073675   6.159657   3.415338   3.840556
    43  N    7.916832   8.881504   5.295328   2.756336   2.361209
    44  C    6.438028   7.462690   1.446381   3.786101   3.767443
    45  H    7.055340   8.047427   2.020832   4.441565   4.218483
    46  H    7.105719   8.159904   2.101455   3.646460   3.372396
    47  H    6.222264   7.195670   2.089062   4.482900   4.677510
    48  N    6.251711   6.934552   5.080284   4.830476   5.146605
    49  H    6.943753   7.526399   6.036444   5.826062   6.083862
    50  H    8.820507   9.755980   6.274740   3.771546   3.272729
                   36         37         38         39         40
    36  C    0.000000
    37  C    2.764750   0.000000
    38  H    3.434952   2.115993   0.000000
    39  C    1.365412   2.366053   3.843993   0.000000
    40  H    1.082889   3.845799   4.358644   2.112773   0.000000
    41  H    3.844071   1.083099   2.484363   3.314563   4.923201
    42  H    2.155534   3.314536   4.921897   1.083177   2.477312
    43  N    2.363198   1.355633   3.336423   1.353308   3.333476
    44  C    5.155129   5.074431   3.043435   6.145464   5.609258
    45  H    5.854118   5.439341   3.355314   6.750161   6.386825
    46  H    4.989154   4.587083   2.573994   5.845357   5.551739
    47  H    5.754998   6.009267   4.044574   6.857889   6.044280
    48  N    5.165274   5.513548   5.440788   5.524454   5.486058
    49  H    6.099304   6.350571   6.359651   6.358660   6.399413
    50  H    3.274314   2.050876   4.158370   2.048662   4.153465
                   41         42         43         44         45
    41  H    0.000000
    42  H    4.147434   0.000000
    43  N    2.077153   2.074488   0.000000
    44  C    5.522199   7.180485   6.103283   0.000000
    45  H    5.743144   7.809910   6.565495   1.090065   0.000000
    46  H    4.943156   6.887828   5.677420   1.091699   1.788037
    47  H    6.515038   7.847634   6.956396   1.091598   1.789083
    48  N    6.060731   6.079588   5.654837   6.332369   6.222694
    49  H    6.818627   6.833393   6.445297   7.247955   7.057540
    50  H    2.331305   2.327827   1.015279   7.038137   7.452811
                   46         47         48         49         50
    46  H    0.000000
    47  H    1.795534   0.000000
    48  N    6.848212   7.047279   0.000000
    49  H    7.786451   7.957870   1.017169   0.000000
    50  H    6.563155   7.916401   6.233547   6.928888   0.000000
 Stoichiometry    C23H23N2OP(2+)
 Framework group  C1[X(C23H23N2OP)]
 Deg. of freedom   144
 Full point group                 C1      NOp   1
 Largest Abelian subgroup         C1      NOp   1
 Largest concise Abelian subgroup C1      NOp   1
                         Standard orientation:                         
 ---------------------------------------------------------------------
 Center     Atomic      Atomic             Coordinates (Angstroms)
 Number     Number       Type             X           Y           Z
 ---------------------------------------------------------------------
      1          6           0        0.489740    3.292115   -2.013767
      2          6           0        0.711303    2.008109   -1.522718
      3          6           0        0.241998    1.665229   -0.250681
      4          6           0       -0.412210    2.612878    0.542805
      5          6           0       -0.610146    3.899450    0.052633
      6          1           0        0.843213    3.555826   -3.006152
      7          1           0        1.251735    1.285819   -2.129365
      8          1           0       -0.768272    2.348831    1.534123
      9          1           0       -1.112159    4.638557    0.670036
     10         15           0        0.540407    0.015532    0.402567
     11          6           0       -1.971769   -0.097624    0.380328
     12          6           0       -2.643431   -0.507628    1.536359
     13          6           0       -2.723314    0.515922   -0.627638
     14          6           0       -3.996918   -0.275852    1.675245
     15          1           0       -2.122919   -1.010869    2.346306
     16          6           0       -4.073732    0.733155   -0.461159
     17          1           0       -2.262104    0.837531   -1.559283
     18          1           0       -4.578056   -0.553378    2.546836
     19          1           0       -4.713051    1.212049   -1.193327
     20          6           0        2.335060   -0.221291    0.226673
     21          6           0        2.866316   -1.436143   -0.222204
     22          6           0        3.200767    0.831098    0.560408
     23          6           0        4.246558   -1.595902   -0.333779
     24          1           0        2.218224   -2.265032   -0.490299
     25          6           0        4.576919    0.665249    0.451668
     26          1           0        2.802589    1.781900    0.906562
     27          6           0        5.100585   -0.548591    0.003623
     28          1           0        4.651166   -2.540110   -0.686461
     29          1           0        5.240815    1.484227    0.712717
     30          1           0        6.175980   -0.675377   -0.085060
     31          6           0       -0.169074    4.236131   -1.227486
     32          1           0       -0.331632    5.239968   -1.609696
     33          8           0        0.233603   -0.024586    1.968155
     34          6           0       -0.273921   -1.348170   -0.405997
     35          6           0       -0.439105   -2.572356    0.313011
     36          6           0       -0.486786   -1.381919   -1.815980
     37          6           0       -0.991817   -3.648508   -0.315526
     38          1           0       -0.172040   -2.650488    1.360585
     39          6           0       -1.044591   -2.493380   -2.379770
     40          1           0       -0.250063   -0.536974   -2.450550
     41          1           0       -1.178311   -4.592287    0.182072
     42          1           0       -1.269247   -2.568167   -3.436751
     43          7           0       -1.316943   -3.586688   -1.630141
     44          6           0        1.182895   -0.452714    2.971932
     45          1           0        0.592180   -0.570921    3.880406
     46          1           0        1.641298   -1.404453    2.696492
     47          1           0        1.945795    0.314631    3.115984
     48          7           0       -4.667879    0.337740    0.682277
     49          1           0       -5.664446    0.505706    0.797489
     50          1           0       -1.713843   -4.406180   -2.079245
 ---------------------------------------------------------------------
 Rotational constants (GHZ):           0.2440920           0.1751198           0.1346464
 Standard basis: 6-31+G(d) (6D, 7F)
 There are   563 symmetry adapted cartesian basis functions of A   symmetry.
 There are   563 symmetry adapted basis functions of A   symmetry.
   563 basis functions,   980 primitive gaussians,   563 cartesian basis functions
    98 alpha electrons       98 beta electrons
       nuclear repulsion energy      2690.8452448943 Hartrees.
 NAtoms=   50 NActive=   50 NUniq=   50 SFac= 1.00D+00 NAtFMM=   60 NAOKFM=F Big=F
 Integral buffers will be    131072 words long.
 Raffenetti 2 integral format.
 Two-electron integral symmetry is turned on.
 Nuclear repulsion after empirical dispersion term =     2690.7981032016 Hartrees.
 Force inversion solution in PCM.
 ------------------------------------------------------------------------------
 Polarizable Continuum Model (PCM)
 =================================
 Model                : PCM.
 Atomic radii         : SMD-Coulomb.
 Polarization charges : Total charges.
 Charge compensation  : None.
 Solution method      : Matrix inversion.
 Cavity type          : VdW (van der Waals Surface) (Alpha=1.000).
 Cavity algorithm     : GePol (No added spheres)
                        Default sphere list used, NSphG=   50.
                        Lebedev-Laikov grids with approx.  5.0 points / Ang**2.
                        Smoothing algorithm: York/Karplus (Gamma=1.0000).
                        Polarization charges: spherical gaussians, with
                                              point-specific exponents (IZeta= 3).
                        Self-potential: point-specific (ISelfS= 7).
                        Self-field    : sphere-specific E.n sum rule (ISelfD= 2).
 1st derivatives      : Analytical E(r).r(x)/FMM algorithm (CHGder, D1EAlg=3).
                        Cavity 1st derivative terms included.
 2nd derivatives      : Analytical E(r).r(xy)/FMM algorithm (CHGder, D2EAlg=3).
                        Cavity 2nd derivative terms included.
 Solvent              : Ethanol, Eps=  24.852000 Eps(inf)=   1.852593
 ------------------------------------------------------------------------------
 ------------------------------------------------------------------------------
 Atomic radii for non-electrostatic terms: SMD-CDS.
 ------------------------------------------------------------------------------
 Nuclear repulsion after PCM non-electrostatic terms =     2690.7972061448 Hartrees.
 One-electron integrals computed using PRISM.
 NBasis=   563 RedAO= T EigKep=  1.04D-06  NBF=   563
 NBsUse=   561 1.00D-06 EigRej=  9.54D-07 NBFU=   561
 ExpMin= 3.48D-02 ExpMax= 1.94D+04 ExpMxC= 2.91D+03 IAcc=3 IRadAn=         5 AccDes= 0.00D+00
 Harris functional with IExCor= 4639 and IRadAn=       5 diagonalized for initial guess.
 HarFok:  IExCor= 4639 AccDes= 0.00D+00 IRadAn=         5 IDoV= 1 UseB2=F ITyADJ=14
 ICtDFT=  3500011 ScaDFX=  1.000000  1.000000  1.000000  1.000000
 FoFCou: FMM=F IPFlag=           0 FMFlag=      100000 FMFlg1=           0
         NFxFlg=           0 DoJE=T BraDBF=F KetDBF=T FulRan=T
         wScrn=  0.000000 ICntrl=       500 IOpCl=  0 I1Cent=   200000004 NGrid=           0
         NMat0=    1 NMatS0=      1 NMatT0=    0 NMatD0=    1 NMtDS0=    0 NMtDT0=    0
 Petite list used in FoFCou.
 Requested convergence on RMS density matrix=1.00D-08 within 128 cycles.
 Requested convergence on MAX density matrix=1.00D-06.
 Requested convergence on             energy=1.00D-06.
 No special actions if energy rises.
 Inv3:  Mode=1 IEnd=    41604528.
 Iteration    1 A*A^-1 deviation from unit magnitude is 8.66D-15 for   3722.
 Iteration    1 A*A^-1 deviation from orthogonality  is 6.08D-15 for   3722   2925.
 Iteration    1 A^-1*A deviation from unit magnitude is 8.66D-15 for   3722.
 Iteration    1 A^-1*A deviation from orthogonality  is 1.51D-13 for   2455   2423.
 Error on total polarization charges =  0.05594
 SCF Done:  E(RwB97XD) =  -1415.68143758     A.U. after   18 cycles
            NFock= 18  Conv=0.83D-08     -V/T= 2.0081
 SMD-CDS (non-electrostatic) energy       (kcal/mol) =      -0.56
 (included in total energy above)
 DoSCS=F DFT=T ScalE2(SS,OS)=  1.000000  1.000000
 Range of M.O.s used for correlation:     1   561
 NBasis=   563 NAE=    98 NBE=    98 NFC=     0 NFV=     0
 NROrb=    561 NOA=    98 NOB=    98 NVA=   463 NVB=   463

 **** Warning!!: The largest alpha MO coefficient is  0.15378950D+03

 Symmetrizing basis deriv contribution to polar:
 IMax=3 JMax=2 DiffMx= 0.00D+00
 G2DrvN: will do    51 centers at a time, making    1 passes.
 Calling FoFCou, ICntrl=  3107 FMM=F I1Cent=   0 AccDes= 0.00D+00.
 NEqPCM:  Using equilibrium solvation (IEInf=0, Eps=  24.8520, EpsInf=   1.8526)
 G2PCM: DoFxE=T DoFxN=T DoGrad=T DoDP/DQ/DG/TGxP=FFFF NFrqRd=   0 IEInf=0 SqF1=F DoCFld=F IF1Alg=4.
 End of G2Drv F.D. properties file   721 does not exist.
 End of G2Drv F.D. properties file   722 does not exist.
 End of G2Drv F.D. properties file   788 does not exist.
          IDoAtm=11111111111111111111111111111111111111111111111111
 NEqPCM:  Using equilibrium solvation (IEInf=0, Eps=  24.8520, EpsInf=   1.8526)
          Differentiating once with respect to nuclear coordinates.
 CalDSu exits because no D1Ps are significant.
          There are   153 degrees of freedom in the 1st order CPHF.  IDoFFX=6 NUNeed=     0.
    147 vectors produced by pass  0 Test12= 4.54D-14 1.00D-09 XBig12= 2.86D-01 9.87D-02.
 AX will form   147 AO Fock derivatives at one time.
    147 vectors produced by pass  1 Test12= 4.54D-14 1.00D-09 XBig12= 2.33D-02 2.39D-02.
    147 vectors produced by pass  2 Test12= 4.54D-14 1.00D-09 XBig12= 4.91D-04 2.20D-03.
    147 vectors produced by pass  3 Test12= 4.54D-14 1.00D-09 XBig12= 4.35D-06 2.27D-04.
    147 vectors produced by pass  4 Test12= 4.54D-14 1.00D-09 XBig12= 3.67D-08 1.71D-05.
    147 vectors produced by pass  5 Test12= 4.54D-14 1.00D-09 XBig12= 2.81D-10 1.40D-06.
    147 vectors produced by pass  6 Test12= 4.54D-14 1.00D-09 XBig12= 1.81D-12 9.46D-08.
     76 vectors produced by pass  7 Test12= 4.54D-14 1.00D-09 XBig12= 3.24D-14 1.50D-08.
     35 vectors produced by pass  8 Test12= 4.54D-14 1.00D-09 XBig12= 4.42D-15 4.52D-09.
     23 vectors produced by pass  9 Test12= 4.54D-14 1.00D-09 XBig12= 3.19D-15 3.45D-09.
     23 vectors produced by pass 10 Test12= 4.54D-14 1.00D-09 XBig12= 2.96D-14 1.25D-08.
     23 vectors produced by pass 11 Test12= 4.54D-14 1.00D-09 XBig12= 1.42D-14 6.41D-09.
     23 vectors produced by pass 12 Test12= 4.54D-14 1.00D-09 XBig12= 1.86D-14 7.21D-09.
     23 vectors produced by pass 13 Test12= 4.54D-14 1.00D-09 XBig12= 2.40D-14 7.90D-09.
     16 vectors produced by pass 14 Test12= 4.54D-14 1.00D-09 XBig12= 7.14D-15 4.23D-09.
     16 vectors produced by pass 15 Test12= 4.54D-14 1.00D-09 XBig12= 1.58D-14 6.68D-09.
     16 vectors produced by pass 16 Test12= 4.54D-14 1.00D-09 XBig12= 2.24D-14 7.81D-09.
     15 vectors produced by pass 17 Test12= 4.54D-14 1.00D-09 XBig12= 1.18D-14 5.50D-09.
     15 vectors produced by pass 18 Test12= 4.54D-14 1.00D-09 XBig12= 2.65D-14 7.57D-09.
     15 vectors produced by pass 19 Test12= 4.54D-14 1.00D-09 XBig12= 2.52D-14 7.18D-09.
     15 vectors produced by pass 20 Test12= 4.54D-14 1.00D-09 XBig12= 2.64D-14 7.95D-09.
     14 vectors produced by pass 21 Test12= 4.54D-14 1.00D-09 XBig12= 1.66D-14 6.54D-09.
     14 vectors produced by pass 22 Test12= 4.54D-14 1.00D-09 XBig12= 2.49D-14 6.79D-09.
     14 vectors produced by pass 23 Test12= 4.54D-14 1.00D-09 XBig12= 1.19D-14 5.48D-09.
     14 vectors produced by pass 24 Test12= 4.54D-14 1.00D-09 XBig12= 2.10D-14 7.35D-09.
     14 vectors produced by pass 25 Test12= 4.54D-14 1.00D-09 XBig12= 2.45D-14 8.66D-09.
     14 vectors produced by pass 26 Test12= 4.54D-14 1.00D-09 XBig12= 1.63D-14 5.82D-09.
     14 vectors produced by pass 27 Test12= 4.54D-14 1.00D-09 XBig12= 2.12D-14 6.66D-09.
     12 vectors produced by pass 28 Test12= 4.54D-14 1.00D-09 XBig12= 8.66D-15 4.21D-09.
     12 vectors produced by pass 29 Test12= 4.54D-14 1.00D-09 XBig12= 2.82D-14 8.36D-09.
     12 vectors produced by pass 30 Test12= 4.54D-14 1.00D-09 XBig12= 2.81D-14 8.54D-09.
     10 vectors produced by pass 31 Test12= 4.54D-14 1.00D-09 XBig12= 9.75D-15 4.59D-09.
     10 vectors produced by pass 32 Test12= 4.54D-14 1.00D-09 XBig12= 1.98D-14 6.71D-09.
     10 vectors produced by pass 33 Test12= 4.54D-14 1.00D-09 XBig12= 1.85D-14 6.63D-09.
     10 vectors produced by pass 34 Test12= 4.54D-14 1.00D-09 XBig12= 2.94D-14 8.17D-09.
     10 vectors produced by pass 35 Test12= 4.54D-14 1.00D-09 XBig12= 2.15D-14 7.64D-09.
     10 vectors produced by pass 36 Test12= 4.54D-14 1.00D-09 XBig12= 2.36D-14 7.50D-09.
     10 vectors produced by pass 37 Test12= 4.54D-14 1.00D-09 XBig12= 1.01D-14 4.73D-09.
     10 vectors produced by pass 38 Test12= 4.54D-14 1.00D-09 XBig12= 1.50D-14 5.80D-09.
     10 vectors produced by pass 39 Test12= 4.54D-14 1.00D-09 XBig12= 2.71D-14 7.78D-09.
     10 vectors produced by pass 40 Test12= 4.54D-14 1.00D-09 XBig12= 1.30D-14 5.09D-09.
     10 vectors produced by pass 41 Test12= 4.54D-14 1.00D-09 XBig12= 1.42D-14 5.01D-09.
     10 vectors produced by pass 42 Test12= 4.54D-14 1.00D-09 XBig12= 2.13D-14 6.27D-09.
      9 vectors produced by pass 43 Test12= 4.54D-14 1.00D-09 XBig12= 6.46D-15 4.64D-09.
      9 vectors produced by pass 44 Test12= 4.54D-14 1.00D-09 XBig12= 1.66D-14 5.56D-09.
      9 vectors produced by pass 45 Test12= 4.54D-14 1.00D-09 XBig12= 1.52D-14 5.75D-09.
      9 vectors produced by pass 46 Test12= 4.54D-14 1.00D-09 XBig12= 1.66D-14 6.02D-09.
      9 vectors produced by pass 47 Test12= 4.54D-14 1.00D-09 XBig12= 1.68D-14 6.05D-09.
      9 vectors produced by pass 48 Test12= 4.54D-14 1.00D-09 XBig12= 1.96D-14 7.25D-09.
      9 vectors produced by pass 49 Test12= 4.54D-14 1.00D-09 XBig12= 2.17D-14 6.08D-09.
      9 vectors produced by pass 50 Test12= 4.54D-14 1.00D-09 XBig12= 9.94D-15 4.23D-09.
      9 vectors produced by pass 51 Test12= 4.54D-14 1.00D-09 XBig12= 2.15D-14 6.52D-09.
      9 vectors produced by pass 52 Test12= 4.54D-14 1.00D-09 XBig12= 1.27D-14 5.08D-09.
      9 vectors produced by pass 53 Test12= 4.54D-14 1.00D-09 XBig12= 2.02D-14 6.04D-09.
      9 vectors produced by pass 54 Test12= 4.54D-14 1.00D-09 XBig12= 9.83D-15 4.10D-09.
      9 vectors produced by pass 55 Test12= 4.54D-14 1.00D-09 XBig12= 2.05D-14 6.25D-09.
      9 vectors produced by pass 56 Test12= 4.54D-14 1.00D-09 XBig12= 2.02D-14 6.39D-09.
      9 vectors produced by pass 57 Test12= 4.54D-14 1.00D-09 XBig12= 2.99D-14 8.73D-09.
      9 vectors produced by pass 58 Test12= 4.54D-14 1.00D-09 XBig12= 6.10D-15 3.71D-09.
      9 vectors produced by pass 59 Test12= 4.54D-14 1.00D-09 XBig12= 1.42D-14 5.04D-09.
      9 vectors produced by pass 60 Test12= 4.54D-14 1.00D-09 XBig12= 6.92D-15 3.50D-09.
      9 vectors produced by pass 61 Test12= 4.54D-14 1.00D-09 XBig12= 2.13D-14 6.75D-09.
      9 vectors produced by pass 62 Test12= 4.54D-14 1.00D-09 XBig12= 8.17D-15 3.89D-09.
      9 vectors produced by pass 63 Test12= 4.54D-14 1.00D-09 XBig12= 1.48D-14 5.17D-09.
      9 vectors produced by pass 64 Test12= 4.54D-14 1.00D-09 XBig12= 1.59D-14 5.79D-09.
      9 vectors produced by pass 65 Test12= 4.54D-14 1.00D-09 XBig12= 1.08D-14 4.26D-09.
      9 vectors produced by pass 66 Test12= 4.54D-14 1.00D-09 XBig12= 1.57D-14 5.95D-09.
      9 vectors produced by pass 67 Test12= 4.54D-14 1.00D-09 XBig12= 1.11D-14 4.79D-09.
      9 vectors produced by pass 68 Test12= 4.54D-14 1.00D-09 XBig12= 2.32D-14 6.25D-09.
      9 vectors produced by pass 69 Test12= 4.54D-14 1.00D-09 XBig12= 1.51D-14 6.53D-09.
      9 vectors produced by pass 70 Test12= 4.54D-14 1.00D-09 XBig12= 1.22D-14 4.97D-09.
      9 vectors produced by pass 71 Test12= 4.54D-14 1.00D-09 XBig12= 9.08D-15 5.23D-09.
      9 vectors produced by pass 72 Test12= 4.54D-14 1.00D-09 XBig12= 1.09D-14 4.42D-09.
      9 vectors produced by pass 73 Test12= 4.54D-14 1.00D-09 XBig12= 1.73D-14 5.56D-09.
      9 vectors produced by pass 74 Test12= 4.54D-14 1.00D-09 XBig12= 5.54D-15 3.44D-09.
      9 vectors produced by pass 75 Test12= 4.54D-14 1.00D-09 XBig12= 1.15D-14 5.07D-09.
      9 vectors produced by pass 76 Test12= 4.54D-14 1.00D-09 XBig12= 1.49D-14 5.29D-09.
      7 vectors produced by pass 77 Test12= 4.54D-14 1.00D-09 XBig12= 5.16D-15 3.29D-09.
      7 vectors produced by pass 78 Test12= 4.54D-14 1.00D-09 XBig12= 1.17D-14 5.49D-09.
      7 vectors produced by pass 79 Test12= 4.54D-14 1.00D-09 XBig12= 1.09D-14 4.62D-09.
      6 vectors produced by pass 80 Test12= 4.54D-14 1.00D-09 XBig12= 3.33D-15 2.47D-09.
      6 vectors produced by pass 81 Test12= 4.54D-14 1.00D-09 XBig12= 1.36D-14 5.16D-09.
      6 vectors produced by pass 82 Test12= 4.54D-14 1.00D-09 XBig12= 1.39D-14 5.22D-09.
      6 vectors produced by pass 83 Test12= 4.54D-14 1.00D-09 XBig12= 5.21D-15 3.38D-09.
      6 vectors produced by pass 84 Test12= 4.54D-14 1.00D-09 XBig12= 2.71D-14 7.01D-09.
      6 vectors produced by pass 85 Test12= 4.54D-14 1.00D-09 XBig12= 4.10D-15 2.66D-09.
      6 vectors produced by pass 86 Test12= 4.54D-14 1.00D-09 XBig12= 1.32D-14 5.30D-09.
      6 vectors produced by pass 87 Test12= 4.54D-14 1.00D-09 XBig12= 9.20D-15 3.92D-09.
      6 vectors produced by pass 88 Test12= 4.54D-14 1.00D-09 XBig12= 1.48D-14 5.66D-09.
      6 vectors produced by pass 89 Test12= 4.54D-14 1.00D-09 XBig12= 1.37D-14 4.43D-09.
      6 vectors produced by pass 90 Test12= 4.54D-14 1.00D-09 XBig12= 9.11D-15 4.31D-09.
      6 vectors produced by pass 91 Test12= 4.54D-14 1.00D-09 XBig12= 7.98D-15 3.91D-09.
      6 vectors produced by pass 92 Test12= 4.54D-14 1.00D-09 XBig12= 2.01D-14 6.41D-09.
      6 vectors produced by pass 93 Test12= 4.54D-14 1.00D-09 XBig12= 3.66D-15 2.55D-09.
      6 vectors produced by pass 94 Test12= 4.54D-14 1.00D-09 XBig12= 1.46D-14 4.80D-09.
      6 vectors produced by pass 95 Test12= 4.54D-14 1.00D-09 XBig12= 8.92D-15 4.11D-09.
      6 vectors produced by pass 96 Test12= 4.54D-14 1.00D-09 XBig12= 1.30D-14 4.97D-09.
      6 vectors produced by pass 97 Test12= 4.54D-14 1.00D-09 XBig12= 7.78D-15 3.83D-09.
[...]
 00006467,0.00001894,0.00014496,0.00008336,-0.00003025,-0.00001827,-0.0
 0005610,-0.00001189,0.00002548,0.00001739,-0.00004647,-0.00010086,0.00
 003774,0.00000149,-0.00000175,0.00000007,0.00000333,0.00000451,0.00000
 393,0.00000783,0.00000586,0.00000056,0.00004112,0.00006818,-0.00000110
 ,-0.14142352,-0.20482356,-0.02736282,-0.00033252,-0.00050753,-0.000781
 65,-0.01934843,-0.01595984,-0.00168988,0.14774378,0.20852226,0.0000084
 2,0.00001001,0.00000624,-0.00002079,-0.00004302,0.00001040,0.00000239,
 -0.00002543,0.00020373,0.00001229,0.00000911,-0.00000295,-0.00000226,0
 .00000724,-0.00000413,0.00000012,0.00000050,-0.00000206,0.00000044,-0.
 00000269,0.00000124,0.00002202,-0.00002284,-0.00000540,-0.00000200,0.0
 0000459,-0.00000173,-0.00304191,-0.00207634,0.00470265,-0.00019801,-0.
 00041636,-0.00094255,-0.00005410,0.00003514,0.00000295,-0.00021737,0.0
 0001399,0.00011253,0.00013157,0.00000053,0.00002638,0.00002175,0.00002
 465,-0.00005961,0.00000862,0.00010604,-0.00003691,0.00000360,-0.000029
 57,-0.00002560,-0.00001549,-0.00001184,-0.00000591,-0.00002896,-0.0000
 0255,0.00000199,0.00010872,0.00000723,-0.00089051,0.00006235,0.0000315
 8,0.00012180,0.00060574,0.00010705,-0.00107663,0.00000599,0.00001824,0
 .00001188,-0.00001511,0.00002554,0.00000450,0.00009682,0.00002527,0.00
 007107,0.00004667,0.00023176,-0.00016663,-0.00001589,0.00002279,-0.000
 00127,0.00000178,0.00000655,-0.00000406,-0.00000479,-0.00001093,0.0000
 1179,-0.00001026,0.00001105,0.00000004,-0.00000687,0.00000424,-0.00000
 467,0.00000030,0.00000133,-0.00000144,-0.02455389,-0.01180657,-0.01570
 241,-0.00047092,0.00074215,-0.00048173,-0.00002056,-0.00014334,0.00011
 531,-0.00006282,-0.00040995,-0.00025677,0.00011257,0.00008563,0.000131
 60,0.00000411,0.00005332,0.00000047,0.00011973,0.00025427,-0.00010115,
 -0.00000503,0.00000736,-0.00000018,-0.00000292,-0.00000856,-0.00000426
 ,-0.00002565,-0.00001801,-0.00000232,-0.00012160,-0.00019938,-0.000065
 83,-0.01588809,-0.02229456,-0.05486974,0.01764581,0.01960378,0.0068522
 6,-0.00581787,-0.00747650,0.00056390,0.03165932,0.02348706,0.06178957,
 0.00013812,-0.00027487,0.00008515,0.00007659,0.00002786,-0.00050126,-0
 .00073086,-0.00038800,0.00030864,-0.00028782,-0.00017626,0.00014524,-0
 .00004460,0.00017561,-0.00012713,0.00001605,-0.00003485,0.00004197,-0.
 00002839,0.00001217,-0.00002912,-0.00003329,0.00004758,0.00017764,0.00
 000898,-0.00005422,-0.00001490,0.00381751,0.00193469,0.00135231,0.0085
 6638,0.00231563,-0.00267174,-0.04712084,0.02052694,-0.02467723,-0.0380
 0021,-0.00998817,0.03583530,-0.20621490,0.07141388,-0.10045982,-0.0059
 8691,0.00171536,0.00249363,-0.19224283,-0.03118912,0.10904360,-0.00624
 023,0.00265669,0.00042525,0.01335404,-0.00813116,0.01339962,0.01369854
 ,0.00658757,-0.01740901,-0.00047440,-0.00054436,-0.00052310,0.00004829
 ,-0.00010874,-0.00003259,-0.00021846,0.00024961,0.00009796,-0.00003493
 ,-0.00001907,0.00001080,0.00009871,-0.00004772,-0.00002700,-0.00007829
 ,-0.00007814,0.00000925,0.00002543,-0.00000158,-0.00001210,-0.00005601
 ,0.00000006,-0.00000391,-0.00002721,0.00001571,0.00000556,-0.00005269,
 -0.00000532,0.00000087,-0.00001875,0.00000126,-0.00000075,-0.00008495,
 -0.00000914,0.00026648,0.00000026,-0.00002904,0.00001982,-0.00144323,0
 .00005841,-0.00120250,0.00180367,-0.00518184,-0.00302414,-0.00015479,0
 .00375112,0.00019017,0.00008507,0.00170597,0.00294181,-0.00149695,-0.0
 0178827,-0.00245420,0.00003387,-0.00002126,0.00003373,-0.00120541,-0.0
 0264863,-0.00027777,-0.00001120,0.00003651,-0.00004685,-0.00003301,0.0
 0002474,-0.00000694,-0.00004457,0.00001515,0.00003888,0.00177920,0.002
 16272,0.00144777,0.00030440,-0.00028319,0.00053840,-0.00001807,0.00003
 284,-0.00007729,-0.00007141,0.00004206,-0.00005749,-0.00012528,0.00003
 539,-0.00011203,0.90185298,0.00003959,-0.00008874,0.00001200,-0.000040
 20,0.00007623,-0.00012549,-0.00016607,-0.00012958,0.00010932,-0.000058
 31,-0.00006509,0.00005016,-0.00005119,0.00010335,-0.00014612,0.0000037
 5,0.00000188,0.00000416,-0.00000417,0.00000045,0.00000650,0.00002171,-
 0.00001484,-0.00002710,0.00000932,0.00000541,-0.00000558,0.00000447,-0
 .00060385,0.00028675,-0.00075950,-0.02456307,0.02890738,0.04569523,0.0
 0746138,-0.00860313,-0.03370476,0.02015954,-0.00904158,0.04226809,-0.1
 2391238,0.10787961,0.00144745,0.00748335,0.00231083,-0.00045460,-0.104
 03864,0.08505386,0.00232838,0.00709953,0.00220042,0.00869730,-0.003406
 10,0.00830193,-0.01048388,-0.00273355,0.01394999,0.00007255,0.00014851
 ,-0.00002832,-0.00002863,0.00001670,-0.00001541,0.00002106,-0.00005666
 ,-0.00002258,0.00000280,-0.00000527,0.00004425,-0.00001291,0.00000405,
 -0.00000235,0.00002386,0.00001413,0.00001888,-0.00000450,0.00000385,0.
 00000034,0.00000357,0.00000651,-0.00001471,0.00000258,-0.00000260,0.00
 000009,0.00000689,0.00000079,0.00000092,0.00000227,-0.00000032,-0.0000
 0117,-0.00002284,0.00004623,0.00008839,-0.00000030,-0.00000358,-0.0000
 0045,0.00064985,-0.00004587,-0.00002228,-0.00096974,0.00121410,0.00068
 246,0.00010086,-0.00157099,-0.00030539,-0.00039812,0.00055684,-0.00019
 173,0.00076037,0.00069491,0.00118320,-0.00007242,0.00005555,0.00000137
 ,-0.00039846,-0.00043269,0.00019362,0.00011243,-0.00002133,-0.00007390
 ,-0.00000934,0.00001732,0.00000045,0.00000581,0.00000868,-0.00001312,-
 0.00023154,0.00003596,-0.00114177,-0.00002716,0.00006241,-0.00023411,-
 0.00001852,-0.00000560,0.00001353,0.00003036,-0.00001103,0.00002704,0.
 00003692,-0.00001159,0.00003384,-0.10638890,0.25845592,-0.00016319,0.0
 0030332,-0.00005442,0.00002859,-0.00027344,0.00056272,0.00064053,0.000
 61440,-0.00005925,0.00074851,0.00034398,-0.00018992,0.00009709,-0.0003
 5626,0.00037854,-0.00000324,0.00000736,-0.00001812,0.00000615,-0.00000
 544,-0.00001017,-0.00005131,0.00001447,-0.00010079,-0.00000738,0.00003
 298,0.00000537,-0.00024408,0.00007349,-0.00109437,-0.00512038,0.028812
 04,-0.07017575,-0.07588616,-0.00179917,0.03808150,0.08776238,-0.016690
 92,0.01603236,-0.03711474,0.09778423,-0.25476285,0.00209914,0.00192017
 ,0.00310284,0.04671388,0.09554932,-0.28341735,0.00044662,0.00251201,0.
 00376156,-0.02228317,0.01466726,-0.02008774,0.01808862,0.00772153,-0.0
 2125126,0.00002073,0.00002554,0.00009419,-0.00000604,0.00000982,-0.000
 01302,0.00003437,-0.00002265,0.00000996,0.00000194,-0.00000541,0.00001
 160,-0.00000490,0.00000431,0.00000747,0.00001112,0.00001020,0.00000375
 ,-0.00000222,-0.00001068,-0.00000598,0.00000149,0.00000494,-0.00001133
 ,0.00000238,-0.00000120,-0.00000069,0.00000442,0.00000092,-0.00000066,
 0.00000200,-0.00000148,0.00000155,0.00007926,-0.00008843,-0.00032763,0
 .00000472,0.00001865,-0.00001276,-0.00068272,0.00016568,0.00007342,-0.
 00031321,0.00042845,0.00043027,-0.00032662,0.00114949,0.00083950,0.000
 55944,-0.00178513,-0.00139850,-0.00098037,-0.00048101,-0.00126784,0.00
 018706,-0.00012656,0.00002446,0.00123070,0.00219129,-0.00016198,-0.000
 16105,0.00005381,0.00011770,0.00001612,-0.00002198,0.00001361,-0.00001
 016,-0.00000216,0.00002156,-0.00017895,-0.00125745,0.00154948,-0.00005
 742,-0.00004166,0.00025586,0.00001467,-0.00000094,0.00000548,-0.000032
 28,0.00001845,-0.00003942,-0.00003520,0.00001143,-0.00003678,-0.055550
 53,-0.24464477,0.66073553,-0.00002304,0.00004326,-0.00002041,-0.000020
 95,-0.00000668,0.00007752,0.00014279,0.00007074,-0.00004551,0.00005472
 ,0.00003028,-0.00001315,0.00001263,-0.00003264,0.00002177,-0.00000199,
 0.00000661,-0.00000803,0.00000555,-0.00000243,0.00000519,0.00000313,-0
 .00000468,-0.00002476,-0.00000565,0.00000404,0.00000215,-0.00071269,-0
 .00044221,-0.00035149,-0.00006803,-0.00082297,-0.00057290,0.00324625,0
 .00187771,-0.00228363,0.00363334,-0.00039246,0.00230788,-0.01161383,0.
 00190195,0.00032454,-0.00016897,-0.00005386,0.00033041,-0.00886339,0.0
 0054644,0.00214377,-0.00008476,0.00018554,-0.00023318,0.00102695,-0.00
 085079,-0.00009072,0.00099528,-0.00056946,-0.00064963,0.00010020,0.000
 12509,0.00012874,-0.00001481,0.00002132,0.00002062,0.00005156,-0.00005
 325,-0.00002083,0.00000251,0.00000797,-0.00001400,-0.00002116,0.000007
 85,0.00000580,0.00001577,0.00001857,-0.00000653,-0.00000550,0.00000018
 ,0.00000245,0.00001228,-0.00000291,0.00000565,0.00000590,-0.00000312,-
 0.00000129,0.00001112,0.00000111,-0.00000027,0.00000386,-0.00000053,0.
 00000016,0.00001513,0.00000272,-0.00003686,-0.00000057,0.00000517,-0.0
 0000395,0.00022069,-0.00003654,0.00025014,-0.00051166,0.00125919,0.000
 74244,-0.00000904,-0.00083276,0.00001075,-0.00007934,-0.00036526,-0.00
 069627,0.00027653,0.00036763,0.00050155,0.00000324,-0.00000303,-0.0000
 0363,0.00024690,0.00057148,0.00005183,0.00001056,-0.00000402,0.0000011
 1,0.00000698,-0.00000163,0.00000298,0.00001051,-0.00000044,-0.00000637
 ,-0.00034969,-0.00046410,-0.00029046,-0.00005134,0.00005073,-0.0000823
 8,0.00000506,-0.00000440,0.00001366,0.00001124,-0.00000770,0.00000864,
 0.00002138,-0.00000531,0.00001854,-0.44286562,0.05192404,0.04037831,0.
 45526354,0.00001230,-0.00003326,0.00001500,0.00000577,-0.00002794,-0.0
 0003191,-0.00007601,0.00001293,0.00009312,-0.00003902,-0.00003624,0.00
 000091,0.00002741,0.00002656,-0.00000371,0.00000520,-0.00000278,0.0000
 0456,-0.00000283,0.00000068,-0.00000320,0.00001011,0.00002347,0.000017
 12,-0.00000371,-0.00000947,-0.00000069,0.00068011,-0.00017755,0.000020
 05,-0.00037187,-0.00238225,-0.00008280,0.00190705,0.00438286,0.0048341
 5,-0.00081134,0.00491047,0.00439267,0.01577561,-0.00148522,-0.00387804
 ,0.00067743,0.00045327,0.00007992,-0.01342510,0.00224758,-0.00117662,-
 0.00047275,0.00057115,0.00021197,-0.00065363,-0.00294319,-0.00162193,-
 0.00067902,-0.00290657,-0.00153974,-0.00001447,0.00002443,-0.00002509,
 -0.00000301,-0.00001312,0.00002046,-0.00000146,0.00001290,0.00000322,0
 .00000449,0.00000306,-0.00002354,0.00000041,-0.00000115,-0.00000071,-0
 .00000708,-0.00000122,-0.00000511,0.00000112,0.00000078,-0.00000165,-0
 .00000456,-0.00000404,0.00001096,-0.00000168,0.00000074,-0.00000040,-0
 .00000160,-0.00000052,0.00000012,-0.00000058,0.00000044,-0.00000036,-0
 .00002715,-0.00000092,0.00003083,-0.00000194,-0.00000288,0.00000189,-0
 .00002743,0.00005265,-0.00019407,-0.00063931,0.00048767,0.00033262,0.0
 0000287,-0.00039525,0.00007635,-0.00003198,-0.00004073,-0.00030834,0.0
 0013556,0.00013399,0.00020799,0.00001607,-0.00000349,-0.00000157,0.000
 06599,0.00014324,0.00001613,0.00002496,0.00000120,-0.00001465,0.000008
 41,-0.00000126,0.00000487,0.00000700,0.00000536,-0.00000413,-0.0001404
 7,-0.00011476,-0.00013044,0.00000663,-0.00000291,0.00000349,-0.0000069
 0,0.00000304,-0.00000533,-0.00000694,0.00000168,-0.00000615,-0.0000077
 2,0.00000150,-0.00000509,0.05220079,-0.04209573,0.01316227,-0.05414183
 ,0.03916516,0.00000281,-0.00001502,0.00000647,0.00000069,-0.00002126,0
 .00000974,-0.00002565,0.00003839,0.00004535,0.00001480,-0.00002684,-0.
 00000574,0.00000594,0.00000009,0.00000178,0.00000291,-0.00000107,0.000
 00145,-0.00000292,-0.00000012,-0.00000269,0.00000416,0.00001534,0.0000
 0804,-0.00000116,-0.00000255,0.00000054,0.00033382,-0.00006249,-0.0000
 5831,-0.00030329,0.00004174,-0.00239286,-0.00285621,0.00484311,-0.0021
 2864,0.00276460,0.00430604,-0.00320780,-0.02886938,0.00112001,0.007500
 61,-0.00113195,0.00033185,0.00039063,0.03126315,-0.00627088,0.00106819
 ,0.00128230,-0.00001384,0.00013978,-0.00044619,-0.00159494,-0.00036999
 ,-0.00031278,-0.00156967,-0.00028889,-0.00001249,0.00000565,-0.0000066
 7,-0.00000229,-0.00000906,0.00000552,-0.00000177,0.00001151,0.00000348
 ,0.00000191,0.00000265,-0.00001140,0.00000117,-0.00000123,0.00000088,-
 0.00000541,-0.00000181,-0.00000363,0.00000100,-0.00000014,-0.00000091,
 -0.00000286,-0.00000165,0.00000450,-0.00000144,0.00000050,0.,-0.000001
 50,-0.00000039,0.00000043,-0.00000048,0.00000007,0.00000010,-0.0000120
 7,-0.00000164,0.00001120,0.00000055,0.00000064,0.00000081,-0.00012638,
 -0.00000151,-0.00004446,-0.00026439,0.00014688,0.00014124,-0.00000084,
 -0.00011764,0.00002473,0.00000805,-0.00000518,-0.00013978,0.00002046,0
 .00002419,0.00005378,0.00000948,-0.00000911,0.00000781,0.00005342,0.00
 007064,0.00000977,0.00001104,-0.00000587,0.00000644,0.00000299,0.00000
 017,0.00000327,0.00000286,0.00000146,-0.00000200,-0.00005338,-0.000044
 53,-0.00001990,0.00002115,-0.00001005,0.00004063,0.00000189,0.00000322
 ,-0.00000424,-0.00000633,0.00000231,-0.00000650,-0.00000884,0.00000211
 ,-0.00000686,0.04056815,0.01329706,-0.07171055,-0.04193946,-0.01447876
 ,0.07092082,-0.00000237,0.00001140,-0.00000200,-0.00001640,-0.00000670
 ,0.00005033,0.00009228,0.00005395,-0.00000401,0.00002323,-0.00000173,-
 0.00005445,0.00000181,0.00000769,-0.00000076,0.00000031,0.00000603,-0.
 00000562,-0.00000323,-0.00000310,0.00000041,0.00000107,-0.00001275,-0.
 00000936,-0.00000289,0.00000834,-0.00000061,-0.00137534,-0.00011447,-0
 .00011228,0.00042348,0.00119404,0.00071315,-0.00061833,-0.00000716,-0.
 00005904,-0.00056596,-0.00005852,0.00004661,0.00013420,-0.00025347,0.0
 0012635,0.00001452,0.00005654,0.00005107,0.00013195,-0.00005245,-0.000
 27127,0.00001122,0.00006143,0.00000623,-0.00005516,0.00003655,0.000012
 18,-0.00005003,0.00003417,0.00002436,0.00003774,-0.00005601,0.00002583
 ,0.00001821,-0.00005807,-0.00003109,-0.00000019,-0.00001219,-0.0000147
 2,0.00001625,0.00001883,0.00000508,-0.00000990,0.00002699,-0.00001329,
 0.00000831,0.00000702,-0.00000072,-0.00000175,0.00000117,0.00000210,0.
 00000629,-0.00000343,0.00000270,-0.00000150,-0.00000116,-0.00000024,0.
 00000440,0.00000248,0.00000106,0.00000414,0.00000065,0.00000137,-0.000
 00018,0.00001755,-0.00000864,-0.00000156,0.00000368,-0.00000271,0.0001
 3961,-0.00003247,0.00024671,0.00038111,-0.00071546,-0.00066101,0.00518
 341,0.00023492,-0.00187225,0.00543791,-0.00117504,0.00053897,-0.004535
 87,-0.00423843,-0.00292680,0.00076854,-0.00041381,-0.00014747,-0.00354
 943,-0.00319678,-0.00061356,0.00083056,-0.00029419,-0.00022944,-0.0025
 3227,0.00110364,0.00106205,-0.00267682,0.00140520,0.00058441,-0.089733
 89,-0.13624511,-0.07742684,-0.00001653,0.00001243,-0.00007607,0.000005
 77,-0.00000140,0.00001174,0.00001986,0.00000248,0.00002320,0.00001701,
 -0.00000664,0.00001554,-0.00026197,0.00003457,0.00003508,0.00005640,0.
 00002609,0.00001020,0.09224202,-0.00003672,0.00006221,-0.00003348,-0.0
 0003710,0.00003119,0.00010204,0.00019124,0.00002714,-0.00003315,0.0000
 3488,0.00003786,-0.00006289,-0.00000208,-0.00001476,0.00002467,-0.0000
 0678,0.00001042,-0.00001204,0.00001566,-0.00001057,0.00000537,0.000002
 33,-0.00002061,-0.00001143,-0.00000713,0.00001114,-0.00000117,-0.00171
 907,-0.00033315,-0.00034435,0.00085364,0.00170960,0.00079746,-0.000745
 04,0.00001350,-0.00014143,-0.00065534,-0.00010706,0.00014203,0.0002772
 1,-0.00033398,0.00015338,0.00006427,0.00000952,0.00006284,0.00016712,-
 0.00009417,-0.00032423,0.00005275,0.00008860,-0.00001862,-0.00006058,0
 .00005454,0.00001667,-0.00006003,0.00002886,0.00002753,0.00006617,0.00
 004814,0.00009065,0.00006365,-0.00002387,-0.00001311,0.00002623,-0.000
 06048,-0.00003304,0.00000551,0.00003064,0.00000110,-0.00004250,0.00004
 173,0.00003679,0.00002725,0.00000825,0.00000564,-0.00000694,0.00000112
 ,0.00000254,0.00002560,0.00000149,-0.00000285,0.00001049,-0.00000511,-
 0.00000291,0.00001204,0.00000177,0.00000071,0.00000765,0.00000243,0.00
 000252,0.00002281,0.00000760,-0.00005023,0.00000129,0.00000658,-0.0000
 0306,0.00031986,-0.00003762,0.00049487,0.00155613,-0.00262346,-0.00050
 551,0.00060691,0.00440530,0.00282806,-0.00074737,0.00010575,0.00561128
 ,0.00360950,0.00819119,-0.00005000,-0.00006197,0.00051421,0.00040032,-
 0.00948499,-0.02014100,-0.01249345,-0.00064869,-0.00029332,-0.00056469
 ,0.00121378,0.00039009,0.00008441,0.00131701,0.00050106,-0.00021092,-0
 .13851163,-0.31451670,-0.13045945,-0.00009784,0.00007443,-0.00016258,0
 .00000986,-0.00000783,0.00002335,0.00002061,-0.00001473,0.00001382,0.0
 0003677,-0.00000713,0.00003170,-0.00035450,0.00008546,0.00000492,0.000
 07541,0.00001569,0.00000160,0.14259268,0.32212805,-0.00001660,0.000033
 13,-0.00001109,-0.00001741,-0.00002959,0.00003774,0.00007745,-0.000005
 42,-0.00004149,0.00002032,0.00001088,-0.00002938,0.00000042,-0.0000049
 6,0.00001163,-0.00000266,0.00000630,-0.00000646,-0.00000209,0.00000506
 ,0.00001979,-0.00000031,-0.00001055,-0.00000493,-0.00000357,0.00000548
 ,0.00000023,-0.00087887,-0.00016465,-0.00025183,0.00042431,0.00074150,
 0.00062619,-0.00037687,0.00005163,-0.00007016,-0.00033089,-0.00007179,
 0.00008229,0.00004702,-0.00016661,0.00004799,0.00002083,0.00003540,0.0
 0004439,0.00018029,-0.00001595,-0.00019369,0.00004751,0.00000214,-0.00
 003609,-0.00003629,0.00001187,0.00000037,-0.00002835,0.00002986,0.0000
 2170,0.00003772,0.00005562,0.00002753,0.00002121,0.00000497,0.00001987
 ,0.00001925,-0.00003353,-0.00001810,0.00000254,0.00000368,0.00000355,-
 0.00000616,0.00001804,0.00000096,0.00001397,0.00000527,0.00000413,-0.0
 0000403,0.00000059,0.00000001,0.00000948,0.00000161,-0.00000380,0.0000
 0553,-0.00000319,0.00000009,0.00000646,0.00000060,0.00000068,0.0000033
 5,0.00000094,0.00000015,0.00000932,0.00000437,-0.00002464,-0.00000030,
 0.00000455,-0.00000120,0.00016934,-0.00004237,0.00032368,0.00080636,-0
 .00024912,-0.00235278,-0.00192576,0.00287558,-0.00486400,0.00101793,0.
 00554686,-0.00066057,-0.01289347,-0.02962671,-0.01176645,-0.00072300,-
 0.00105129,-0.00017300,0.01024041,0.01720721,0.01545553,0.00031083,0.0
 0089318,0.00060866,0.00091755,-0.00011732,0.00045217,0.00075420,0.0000
 1597,0.00033153,-0.07872045,-0.13058886,-0.14645268,-0.00004636,0.0000
 5813,-0.00005743,0.00000748,-0.00000453,0.00001217,0.00001382,-0.00001
 161,0.00000622,0.00002054,-0.00000676,0.00001776,-0.00017860,0.0000026
 9,0.00008884,0.00003911,0.00000337,0.00000384,0.08094750,0.13456832,0.
 14877004\\0.00000267,0.00000167,0.00000323,0.00000191,0.00000425,0.000
 00440,0.00000120,0.00000178,0.00000144,-0.00000170,-0.00000087,0.00000
 108,-0.00000094,-0.00000022,0.00000213,0.00000436,0.00000245,0.0000041
 5,0.00000414,0.00000135,0.00000381,-0.00000288,-0.00000115,0.00000058,
 -0.00000189,-0.00000064,0.00000159,0.00000094,-0.00000109,-0.00000063,
 -0.00000071,0.00000032,-0.00000225,-0.00000338,-0.00000287,-0.00000546
 ,-0.00000050,0.00000031,-0.00000417,-0.00000250,-0.00000217,-0.0000067
 9,-0.00000365,-0.00000134,-0.00000412,0.00000075,-0.00000089,-0.000007
 01,0.00000370,0.00000153,-0.00000169,-0.00000411,-0.00000288,-0.000008
 30,0.00000205,0.00000015,-0.00000707,-0.00000046,0.00000017,0.00000456
 ,0.00000170,-0.00000010,0.00000494,-0.00000108,0.00000069,0.00000578,0
 .00000063,0.00000146,0.00000617,0.00000171,0.00000086,0.00000186,-0.00
 000089,0.00000072,0.00000810,-0.00000218,0.00000022,0.00000632,0.00000
 017,0.00000109,0.00000818,0.00000194,0.00000143,0.00000580,-0.00000156
 ,0.00000043,0.00001005,0.00000033,0.00000136,0.00000989,0.00000131,0.0
 0000106,0.00000282,0.00000182,0.00000117,0.00000355,-0.00000304,-0.000
 00054,0.00000048,-0.00000668,0.00000193,-0.00000074,0.00000317,-0.0000
 0192,-0.00000355,0.00000389,-0.00000184,-0.00000466,0.00000251,0.00000
 006,-0.00000391,-0.00000266,-0.00000102,-0.00000118,0.00000478,0.00000
 197,-0.00000362,0.00000406,-0.00000028,-0.00000205,0.00000023,-0.00000
 035,-0.00000531,0.00000617,0.00000234,-0.00000429,0.00000400,0.0000006
 0,-0.00000561,-0.00000430,-0.00000380,-0.00000091,-0.00000644,-0.00000
 264,0.00000055,-0.00000416,-0.00000121,0.00000178,-0.00000540,-0.00000
 216,0.00000383,-0.00000154,-0.00000111,-0.00000837,-0.00000126,-0.0000
 0181,-0.00000897,0.00000380,0.00000151,-0.00000641\\\@


 THERE IS NO SCIENCE WITHOUT FANCY, NOR ART WITHOUT FACTS.
     -- VLADIMIR NABAKOV
 Job cpu time:       1 days  8 hours  6 minutes 50.5 seconds.
 Elapsed time:       0 days  1 hours 20 minutes 27.2 seconds.
 File lengths (MBytes):  RWF=   5096 Int=      0 D2E=      0 Chk=     64 Scr=     16
 Normal termination of Gaussian 16 at Mon Mar 19 01:26:35 2018.
