Job Start Time: Sat Mar 31 10:48:19 MDT 2018
SLURM Job ID: 740956
SLURM Job Name: TS_Int3_1Pyrax_Scan_SMD_c
 Entering Gaussian System, Link 0=/projects/user/g16/g16
 Initial command:
 /projects/user/g16/l1.exe "/gpfs/summit/scratch/user/740956/Gau-93790.inp" -scrdir="/gpfs/summit/scratch/user/740956/"
 Entering Link 1 = /projects/user/g16/l1.exe PID=     93842.
  
 Copyright (c) 1988,1990,1992,1993,1995,1998,2003,2009,2016,
            Gaussian, Inc.  All Rights Reserved.
  
 This is part of the Gaussian(R) 16 program.  It is based on
 the Gaussian(R) 09 system (copyright 2009, Gaussian, Inc.),
 the Gaussian(R) 03 system (copyright 2003, Gaussian, Inc.),
 the Gaussian(R) 98 system (copyright 1998, Gaussian, Inc.),
 the Gaussian(R) 94 system (copyright 1995, Gaussian, Inc.),
 the Gaussian 92(TM) system (copyright 1992, Gaussian, Inc.),
 the Gaussian 90(TM) system (copyright 1990, Gaussian, Inc.),
 the Gaussian 88(TM) system (copyright 1988, Gaussian, Inc.),
 the Gaussian 86(TM) system (copyright 1986, Carnegie Mellon
 University), and the Gaussian 82(TM) system (copyright 1983,
 Carnegie Mellon University). Gaussian is a federally registered
 trademark of Gaussian, Inc.
  
 This software contains proprietary and confidential information,
 including trade secrets, belonging to Gaussian, Inc.
  
 This software is provided under written license and may be
 used, copied, transmitted, or stored only in accord with that
 written license.
  
 The following legend is applicable only to US Government
 contracts under FAR:
  
                    RESTRICTED RIGHTS LEGEND
  
 Use, reproduction and disclosure by the US Government is
 subject to restrictions as set forth in subparagraphs (a)
 and (c) of the Commercial Computer Software - Restricted
 Rights clause in FAR 52.227-19.
  
 Gaussian, Inc.
 340 Quinnipiac St., Bldg. 40, Wallingford CT 06492
  
  
 ---------------------------------------------------------------
 Warning -- This program may not be used in any manner that
 competes with the business of Gaussian, Inc. or will provide
 assistance to any competitor of Gaussian, Inc.  The licensee
 of this program is prohibited from giving any competitor of
 Gaussian, Inc. access to this program.  By using this program,
 the user acknowledges that Gaussian, Inc. is engaged in the
 business of creating and licensing software in the field of
 computational chemistry and represents and warrants to the
 licensee that it is not a competitor of Gaussian, Inc. and that
 it will not use this program in any manner prohibited above.
 ---------------------------------------------------------------
  

 Cite this work as:
 Gaussian 16, Revision A.03,
 M. J. Frisch, G. W. Trucks, H. B. Schlegel, G. E. Scuseria, 
 M. A. Robb, J. R. Cheeseman, G. Scalmani, V. Barone, 
 G. A. Petersson, H. Nakatsuji, X. Li, M. Caricato, A. V. Marenich, 
 J. Bloino, B. G. Janesko, R. Gomperts, B. Mennucci, H. P. Hratchian, 
 J. V. Ortiz, A. F. Izmaylov, J. L. Sonnenberg, D. Williams-Young, 
 F. Ding, F. Lipparini, F. Egidi, J. Goings, B. Peng, A. Petrone, 
 T. Henderson, D. Ranasinghe, V. G. Zakrzewski, J. Gao, N. Rega, 
 G. Zheng, W. Liang, M. Hada, M. Ehara, K. Toyota, R. Fukuda, 
 J. Hasegawa, M. Ishida, T. Nakajima, Y. Honda, O. Kitao, H. Nakai, 
 T. Vreven, K. Throssell, J. A. Montgomery, Jr., J. E. Peralta, 
 F. Ogliaro, M. J. Bearpark, J. J. Heyd, E. N. Brothers, K. N. Kudin, 
 V. N. Staroverov, T. A. Keith, R. Kobayashi, J. Normand, 
 K. Raghavachari, A. P. Rendell, J. C. Burant, S. S. Iyengar, 
 J. Tomasi, M. Cossi, J. M. Millam, M. Klene, C. Adamo, R. Cammi, 
 J. W. Ochterski, R. L. Martin, K. Morokuma, O. Farkas, 
 J. B. Foresman, and D. J. Fox, Gaussian, Inc., Wallingford CT, 2016.
 
 ******************************************
 Gaussian 16:  ES64L-G16RevA.03 25-Dec-2016
                31-Mar-2018 
 ******************************************
 %chk=T443tenmjoq45.chk
 %nprocshared=24
 Will use up to   24 processors via shared memory.
 %mem=98GB
 ----------------------------------------------------------------------
 # freq=noraman wb97xd/6-31+g(d) scrf=(solvent=ethanol,smd) geom=connec
 tivity
 ----------------------------------------------------------------------
 1/10=4,30=1,38=1,57=2/1,3;
 2/12=2,17=6,18=5,40=1/2;
 3/5=1,6=6,7=11,11=2,25=1,30=1,70=32201,71=2,72=4,74=-58,140=1/1,2,3;
 4//1;
 5/5=2,38=5,53=4,98=1/2;
 8/6=4,10=90,11=11/1;
 11/6=1,8=1,9=11,15=111,16=1/1,2,10;
 10/6=1/2;
 6/7=2,8=2,9=2,10=2,28=1/1;
 7/8=1,10=1,25=1/1,2,3,16;
 1/10=4,30=1/3;
 99//99;
 -------------------
 Title Card Required
 -------------------
 Symbolic Z-matrix:
 Charge =  2 Multiplicity = 1
 C                    -4.05854   1.20599  -0.42389 
 C                    -2.83341   0.73214  -0.88348 
 C                    -1.98042   0.03685  -0.01477 
 C                    -2.38162  -0.21249   1.30111 
 C                    -3.61432   0.25146   1.74899 
 H                    -4.71023   1.75099  -1.10023 
 H                    -2.55534   0.89527  -1.92107 
 H                    -1.75012  -0.76396   1.98625 
 H                    -3.92086   0.05105   2.77129 
 P                    -0.42018  -0.54926  -0.70991 
 C                     0.39205  -1.94428   0.11782 
 C                     0.8713   -2.96392  -0.71779 
 C                     0.54824  -2.06439   1.50503 
 C                     1.50046  -4.0797   -0.17326 
 H                     0.76003  -2.89142  -1.79481 
 C                     1.16273  -3.1899    2.04292 
 H                     0.21953  -1.28401   2.17992 
 H                     1.87469  -4.85704  -0.83276 
 H                     1.27288  -3.27327   3.12003 
 C                     0.75706   0.99162   0.84617 
 C                     2.0127    0.71629   1.39553 
 C                     0.02093   2.04584   1.39853 
 C                     2.47865   1.43842   2.4731 
 H                     2.64871  -0.06689   0.99031 
 C                     0.51583   2.75244   2.47471 
 H                    -0.94701   2.33653   0.99992 
 H                     3.43332   1.26694   2.95589 
 H                    -0.00588   3.56979   2.95752 
 C                    -4.44843   0.96916   0.89288 
 H                    -5.40705   1.33483   1.24955 
 O                    -0.88394  -1.18282  -2.13701 
 C                     0.70322   0.70757  -1.27669 
 C                     0.25452   1.98891  -1.74061 
 C                     2.03203   0.32352  -1.65533 
 C                     1.15466   2.86617  -2.26538 
 H                    -0.77452   2.30575  -1.62861 
 C                     2.87865   1.25246  -2.1831 
 H                     2.39797  -0.68317  -1.4922 
 H                     0.88351   3.86496  -2.58477 
 H                     3.90598   1.03078  -2.4452 
 C                    -1.92472  -2.16934  -2.25294 
 H                    -2.88223  -1.66756  -2.41464 
 H                    -1.67387  -2.7833   -3.11937 
 H                    -1.98458  -2.80159  -1.36192 
 N                     1.71904   2.42669   2.98205 
 H                     2.07315   2.95429   3.7767 
 N                     2.45152   2.511    -2.44207 
 H                     3.0943    3.17647  -2.85839 
 C                     1.64199  -4.19749   1.207 
 H                     2.12628  -5.07193   1.63221 
 

 GradGradGradGradGradGradGradGradGradGradGradGradGradGradGradGradGradGrad
 Berny optimization.
 Initialization pass.
 Trust Radius=3.00D-01 FncErr=1.00D-07 GrdErr=1.00D-07 EigMax=2.50D+02 EigMin=1.00D-04
 Number of steps in this run=      2 maximum allowed number of steps=      2.
 GradGradGradGradGradGradGradGradGradGradGradGradGradGradGradGradGradGrad

                          Input orientation:                          
 ---------------------------------------------------------------------
 Center     Atomic      Atomic             Coordinates (Angstroms)
 Number     Number       Type             X           Y           Z
 ---------------------------------------------------------------------
      1          6           0       -4.058541    1.205994   -0.423885
      2          6           0       -2.833405    0.732144   -0.883477
      3          6           0       -1.980421    0.036848   -0.014770
      4          6           0       -2.381615   -0.212488    1.301114
      5          6           0       -3.614315    0.251455    1.748989
      6          1           0       -4.710228    1.750993   -1.100231
      7          1           0       -2.555339    0.895274   -1.921066
      8          1           0       -1.750120   -0.763963    1.986246
      9          1           0       -3.920861    0.051047    2.771294
     10         15           0       -0.420177   -0.549263   -0.709913
     11          6           0        0.392053   -1.944275    0.117818
     12          6           0        0.871303   -2.963915   -0.717789
     13          6           0        0.548244   -2.064385    1.505031
     14          6           0        1.500462   -4.079697   -0.173258
     15          1           0        0.760026   -2.891423   -1.794811
     16          6           0        1.162730   -3.189903    2.042918
     17          1           0        0.219531   -1.284006    2.179924
     18          1           0        1.874688   -4.857036   -0.832755
     19          1           0        1.272880   -3.273274    3.120028
     20          6           0        0.757058    0.991621    0.846167
     21          6           0        2.012703    0.716288    1.395528
     22          6           0        0.020929    2.045842    1.398529
     23          6           0        2.478648    1.438419    2.473102
     24          1           0        2.648712   -0.066888    0.990309
     25          6           0        0.515834    2.752435    2.474705
     26          1           0       -0.947007    2.336530    0.999922
     27          1           0        3.433319    1.266941    2.955886
     28          1           0       -0.005879    3.569792    2.957519
     29          6           0       -4.448427    0.969158    0.892875
     30          1           0       -5.407049    1.334827    1.249551
     31          8           0       -0.883938   -1.182815   -2.137006
     32          6           0        0.703218    0.707573   -1.276685
     33          6           0        0.254519    1.988908   -1.740614
     34          6           0        2.032030    0.323523   -1.655332
     35          6           0        1.154659    2.866173   -2.265382
     36          1           0       -0.774520    2.305751   -1.628606
     37          6           0        2.878647    1.252464   -2.183097
     38          1           0        2.397969   -0.683169   -1.492204
     39          1           0        0.883514    3.864964   -2.584773
     40          1           0        3.905977    1.030776   -2.445197
     41          6           0       -1.924719   -2.169338   -2.252940
     42          1           0       -2.882233   -1.667560   -2.414638
     43          1           0       -1.673867   -2.783298   -3.119368
     44          1           0       -1.984579   -2.801589   -1.361924
     45          7           0        1.719043    2.426692    2.982053
     46          1           0        2.073150    2.954288    3.776702
     47          7           0        2.451524    2.510996   -2.442074
     48          1           0        3.094297    3.176471   -2.858392
     49          6           0        1.641993   -4.197486    1.206997
     50          1           0        2.126279   -5.071935    1.632208
 ---------------------------------------------------------------------
                    Distance matrix (angstroms):
                    1          2          3          4          5
     1  C    0.000000
     2  C    1.391660   0.000000
     3  C    2.419269   1.402024   0.000000
     4  C    2.792811   2.422577   1.398097   0.000000
     5  C    2.414511   2.787608   2.413817   1.391181   0.000000
     6  H    1.085893   2.146509   3.401230   3.878679   3.401131
     7  H    2.144228   1.086519   2.168269   3.411709   3.873659
     8  H    3.875341   3.412792   2.167580   1.082736   2.136021
     9  H    3.400298   3.873475   3.395241   2.144798   1.085929
    10  P    4.049745   2.737845   1.805855   2.829291   4.109728
    11  C    5.479546   4.309221   3.093713   3.477429   4.851076
    12  C    6.463581   5.235758   4.198946   4.714636   6.045194
    13  C    5.969804   4.996108   3.622033   3.472057   4.769647
    14  C    7.674885   6.514647   5.393293   5.674469   6.972435
    15  H    6.472005   5.183967   4.387866   5.160557   6.447562
    16  C    7.257458   6.317858   4.952313   4.688033   5.894870
    17  H    5.593015   4.771761   3.376555   2.947273   4.152315
    18  H    8.492980   7.308053   6.283396   6.651416   7.930400
    19  H    7.813271   6.995213   5.600699   5.102175   6.179655
    20  C    4.984875   3.993798   3.024334   3.392363   4.524581
    21  C    6.356892   5.355266   4.289011   4.492390   5.657237
    22  C    4.546275   3.883372   3.168418   3.298752   4.069109
    23  C    7.154117   6.323239   5.295017   5.265093   6.249594
    24  H    6.971902   5.848344   4.738124   5.042022   6.316838
    25  C    5.631892   5.155227   4.450077   4.308514   4.882591
    26  H    3.603746   3.111229   2.717735   2.940461   3.467444
    27  H    8.219156   7.368755   6.296547   6.224182   7.221977
    28  H    5.783209   5.549811   5.021455   4.763763   5.049031
    29  C    1.393542   2.412447   2.789996   2.415504   1.394192
    30  H    2.153012   3.396569   3.876214   3.398543   2.153376
    31  O    4.326580   3.006464   2.682115   3.873660   4.961154
    32  C    4.863131   3.558499   3.040431   4.124046   5.291865
    33  C    4.577031   3.442298   3.432788   4.587751   5.492172
    34  C    6.276167   4.943196   4.344351   5.339302   6.593619
    35  C    5.772760   4.729524   4.785296   5.890949   6.759810
    36  H    3.666826   2.696380   3.034235   4.184201   4.867516
    37  C    7.156924   5.881095   5.458013   6.477358   7.656492
    38  H    6.811517   5.453525   4.676701   5.555951   6.893940
    39  H    6.013607   5.150190   5.427846   6.510515   7.215913
    40  H    8.218878   6.924408   6.445506   7.423905   8.646001
    41  C    4.392210   3.334627   3.143209   4.082807   4.972968
    42  H    3.688375   2.847001   3.078577   4.021774   4.642667
    43  H    5.372779   4.324589   4.205440   5.162425   6.056068
    44  H    4.608900   3.665609   3.141905   3.735352   4.653482
    45  N    6.816964   6.207946   5.327132   5.158122   5.890400
    46  H    7.635385   7.122463   6.270419   6.000161   6.615450
    47  N    6.939529   5.789993   5.626309   6.692388   7.711351
    48  H    7.808501   6.709149   6.610309   7.666299   8.648072
    49  C    8.022061   6.978576   5.704751   5.663787   6.907648
    50  H    9.049415   8.038313   6.758490   6.636637   7.829849
                    6          7          8          9         10
     6  H    0.000000
     7  H    2.459588   0.000000
     8  H    4.961208   4.320710   0.000000
     9  H    4.301351   4.959396   2.447991   0.000000
    10  P    4.883448   2.848244   3.013987   4.973325   0.000000
    11  C    6.416535   4.572440   3.077834   5.442745   1.814088
    12  C    7.316427   5.299348   4.361588   6.650454   2.738344
    13  C    6.999716   5.489075   2.684240   5.104055   2.852965
    14  C    8.569066   6.652420   5.120921   7.424566   4.054728
    15  H    7.208200   5.034547   5.012316   7.170645   2.838238
    16  C    8.293580   6.798961   3.791186   6.072659   4.129970
    17  H    6.653808   5.409925   2.046334   4.390322   3.049628
    18  H    9.332669   7.341569   6.151361   8.406357   4.882459
    19  H    8.879833   7.579227   4.089087   6.176380   4.995511
    20  C    5.852891   4.317272   3.266159   5.145262   2.486280
    21  C    7.245497   5.647906   4.086432   6.127190   3.457370
    22  C    5.358599   4.356682   3.372985   4.626165   3.372636
    23  C    8.034074   6.704084   4.792702   6.554955   4.741904
    24  H    7.863145   6.040199   4.563719   6.807724   3.541401
    25  C    6.410521   5.674853   4.211674   5.202857   4.681786
    26  H    4.349176   3.632647   3.351251   4.147891   3.395421
    27  H    9.110639   7.732194   5.650913   7.456302   5.620152
    28  H    6.473350   6.119917   4.771497   5.267194   5.530670
    29  C    2.156914   3.392271   3.388219   2.156319   4.593618
    30  H    2.486007   4.286988   4.280277   2.484461   5.679629
    31  O    4.931798   2.675568   4.234019   5.902264   1.628821
    32  C    5.515910   3.326958   4.339471   6.180556   1.778450
    33  C    5.011527   3.020579   5.048402   6.445651   2.821324
    34  C    6.914033   4.630493   5.361751   7.423353   2.769276
    35  C    6.082607   4.215102   6.300156   7.684656   4.069987
    36  H    4.009580   2.290479   4.841704   5.860228   3.020043
    37  C    7.681937   5.452013   6.547891   8.498394   4.037169
    38  H    7.523646   5.216384   5.414128   7.657944   2.927773
    39  H    6.161387   4.591871   7.018348   8.143429   4.969921
    40  H    8.750236   6.483955   7.406093   9.456799   4.921721
    41  C    4.945381   3.146374   4.469481   5.844452   2.696149
    42  H    4.093377   2.630321   4.633136   5.561137   3.196622
    43  H    5.818608   3.967973   5.490976   6.912481   3.516834
    44  H    5.312593   3.782222   3.926466   5.382398   2.818766
    45  N    7.645727   6.682526   4.817365   6.123449   5.202229
    46  H    8.440771   7.624107   5.625701   6.735564   6.214601
    47  N    7.325902   5.286841   6.927423   8.592895   4.540070
    48  H    8.126114   6.164481   7.903538   9.522294   5.554150
    49  C    9.003245   7.303327   4.889043   7.172336   4.608321
    50  H   10.037749   8.375613   5.806069   8.006895   5.694254
                   11         12         13         14         15
    11  C    0.000000
    12  C    1.402706   0.000000
    13  C    1.401136   2.419597   0.000000
    14  C    2.423494   1.391878   2.790135   0.000000
    15  H    2.165789   1.085179   3.408490   2.142353   0.000000
    16  C    2.418996   2.785230   1.390578   2.411894   3.870326
    17  H    2.172096   3.412278   1.082832   3.872226   4.321394
    18  H    3.403817   2.145671   3.876028   1.085927   2.455943
    19  H    3.399317   3.871151   2.143531   3.398212   4.956256
    20  C    3.046835   4.255029   3.133190   5.225911   4.696041
    21  C    3.367142   4.394633   3.144642   5.071977   4.976248
    22  C    4.207016   5.504508   4.145283   6.494749   5.926236
    23  C    4.619942   5.669734   4.115004   6.197554   6.317933
    24  H    3.062406   3.803886   2.943960   4.333013   4.393407
    25  C    5.256360   6.557060   4.913560   7.393188   7.081068
    26  H    4.571267   5.861015   4.675357   6.966665   6.168953
    27  H    5.255077   6.161165   4.639652   6.489531   6.856209
    28  H    6.215077   7.547626   5.844718   8.401518   8.057205
    29  C    5.702548   6.809026   5.877401   7.875078   7.018242
    30  H    6.757434   7.859218   6.861882   8.891297   8.072307
    31  O    2.700408   2.875303   4.011576   4.234808   2.395633
    32  C    3.012268   3.717585   3.930103   4.977058   3.636544
    33  C    4.352311   5.094806   5.200930   6.390379   4.906741
    34  C    3.313079   3.610197   4.229849   4.676265   3.460249
    35  C    5.422326   6.038647   6.236518   7.262346   5.790258
    36  H    4.740634   5.595328   5.537822   6.933075   5.421538
    37  C    4.657950   4.894324   5.480379   5.862660   4.670238
    38  H    2.864657   2.851707   3.783207   3.752538   2.766010
    39  H    6.425947   7.079503   7.210831   8.325483   6.803533
    40  H    5.269501   5.305727   6.038103   6.088115   5.069877
    41  C    3.322436   3.287215   4.499879   4.439191   2.817649
    42  H    4.148597   4.318433   5.223930   5.481807   3.892053
    43  H    3.930822   3.504011   5.180703   4.520683   2.773081
    44  H    2.927969   2.932119   3.895907   3.897691   2.779985
    45  N    5.391669   6.592885   4.870538   7.234422   7.212523
    46  H    6.341091   7.527949   5.716022   8.087466   8.181588
    47  N    5.535694   5.953563   6.335316   7.034862   5.697916
    48  H    6.510145   6.872279   7.279314   7.899508   6.587819
    49  C    2.797431   2.412563   2.415622   1.392483   3.390357
    50  H    3.883706   3.397234   3.398783   2.153112   4.285527
                   16         17         18         19         20
    16  C    0.000000
    17  H    2.130924   0.000000
    18  H    3.399369   4.958056   0.000000
    19  H    1.085933   2.439370   4.300578   0.000000
    20  C    4.368286   2.691899   6.186652   4.860643   0.000000
    21  C    4.049679   2.798557   6.003852   4.408837   1.397945
    22  C    5.397404   3.426063   7.487642   5.729218   1.399418
    23  C    4.830948   3.549811   7.136260   4.906367   2.410481
    24  H    3.615156   2.966055   5.183454   4.087729   2.172458
    25  C    5.993021   4.058023   8.407724   6.107269   2.410558
    26  H    6.006687   3.982649   7.941540   6.394736   2.176295
    27  H    5.084540   4.175869   7.367919   5.030705   3.418931
    28  H    6.920666   4.920855   9.429429   6.963418   3.418603
    29  C    7.078522   5.340700   8.769499   7.462693   5.205743
    30  H    8.016521   6.275530   9.782579   8.327949   6.186819
    31  O    5.068433   4.456879   4.776085   6.054609   4.039847
    32  C    5.140159   4.018518   5.703884   5.958418   2.142448
    33  C    6.477657   5.107231   7.093385   7.235569   2.817546
    34  C    5.174640   4.536352   5.247817   6.026385   2.886071
    35  C    7.432198   6.152983   7.887891   8.167584   3.654281
    36  H    6.887325   5.327231   7.678359   7.607029   3.193301
    37  C    6.366961   5.704431   6.336983   7.154294   3.707509
    38  H    4.506287   4.311742   4.257918   5.408064   3.311418
    39  H    8.441838   7.046638   8.951272   9.146081   4.476990
    40  H    6.744087   6.351366   6.433695   7.511975   4.555250
    41  C    5.387791   5.003189   4.865813   6.349181   5.175718
    42  H    6.208789   5.556802   5.941667   7.104633   5.563140
    43  H    5.904304   5.823687   4.703321   6.917619   5.990399
    44  H    4.652880   4.439127   4.404410   5.560703   5.175005
    45  N    5.721678   4.081817   8.223727   5.719066   2.747154
    46  H    6.448717   4.893745   9.072115   6.313017   3.764598
    47  N    7.367251   6.383314   7.563765   8.110731   3.999030
    48  H    8.263444   7.317429   8.374239   8.980995   4.894897
    49  C    1.394159   3.385019   2.156326   2.156409   5.276376
    50  H    2.153870   4.275990   2.487071   2.485373   6.265727
                   21         22         23         24         25
    21  C    0.000000
    22  C    2.394762   0.000000
    23  C    1.378312   2.750282   0.000000
    24  H    1.087233   3.396397   2.119799   0.000000
    25  C    2.747933   1.379260   2.362050   3.834212   0.000000
    26  H    3.397289   1.086410   3.835619   4.325009   2.118458
    27  H    2.180845   3.830986   1.083458   2.501640   3.309070
    28  H    3.828443   2.180273   3.309122   4.913472   1.083220
    29  C    6.485584   4.624941   7.120512   7.173024   5.506918
    30  H    7.446920   5.476375   7.980728   8.180911   6.212178
    31  O    4.947314   4.872681   6.279407   4.848196   6.222012
    32  C    2.975827   3.068102   4.212741   3.086098   4.276623
    33  C    3.813943   3.148337   4.796373   4.173296   4.291873
    34  C    3.076099   4.041903   4.299585   2.744473   5.025502
    35  C    4.331340   3.922057   5.122954   4.629748   4.784293
    36  H    4.409126   3.140675   5.306541   4.920025   4.324546
    37  C    3.720739   4.650166   4.677047   3.444425   5.433960
    38  H    3.232013   4.631863   4.497921   2.570126   5.575139
    39  H    5.199233   4.463177   5.832210   5.599696   5.193383
    40  H    4.293548   5.558614   5.137422   3.819461   6.217927
    41  C    6.094378   5.906481   7.398718   5.987924   7.247812
    42  H    6.645336   6.062833   7.891524   6.689332   7.415449
    43  H    6.798690   6.826736   8.145060   6.553855   8.169014
    44  H    5.996438   5.927879   7.252964   5.871880   7.198539
    45  N    2.351336   2.352910   1.346371   3.324044   1.345817
    46  H    3.268377   3.269953   2.040015   4.150032   2.039896
    47  N    4.259194   4.568850   5.030916   4.297164   5.289603
    48  H    5.031718   5.370781   5.641336   5.052764   5.938872
    49  C    4.931343   6.453191   5.836646   4.257027   7.153791
    50  H    5.794173   7.426295   6.573886   5.073014   8.032689
                   26         27         28         29         30
    26  H    0.000000
    27  H    4.914984   0.000000
    28  H    2.497768   4.138986   0.000000
    29  C    3.760466   8.152706   5.546376   0.000000
    30  H    4.577958   9.003793   6.089734   1.086226   0.000000
    31  O    4.714879   7.111790   7.022282   5.149442   6.185937
    32  C    3.249567   5.067643   5.159806   5.595969   6.641587
    33  C    3.012481   5.716915   4.963815   5.485696   6.436013
    34  C    4.469590   4.910904   5.997477   6.993320   8.049905
    35  C    3.919149   5.917049   5.396353   6.705805   7.599723
    36  H    2.634361   6.308930   4.818833   4.652090   5.539567
    37  C    5.093372   5.168851   6.333753   7.951596   8.968981
    38  H    5.149577   4.965922   6.608040   7.435854   8.515153
    39  H    4.305457   6.629490   5.620956   6.993520   7.789404
    40  H    6.093053   5.426866   7.137125   8.996810  10.023775
    41  C    5.642684   8.224868   7.985515   5.110324   6.055843
    42  H    5.606876   8.794318   8.035132   4.510531   5.367989
    43  H    6.611317   8.910471   8.948323   6.154446   7.069869
    44  H    5.749360   8.034304   7.947788   5.037182   5.970179
    45  N    3.323371   2.069891   2.069453   6.672837   7.414507
    46  H    4.148913   2.317529   2.317815   7.401903   8.059933
    47  N    4.840226   5.625795   6.026233   7.817191   8.761771
    48  H    5.650153   6.129198   6.602319   8.708440   9.619757
    49  C    7.031299   6.010609   8.130831   7.992878   8.960876
    50  H    8.045510   6.606196   8.999000   8.959251   9.896669
                   31         32         33         34         35
    31  O    0.000000
    32  C    2.613959   0.000000
    33  C    3.393087   1.434706   0.000000
    34  C    3.317218   1.434088   2.437278   0.000000
    35  C    4.535048   2.416790   1.362067   2.758081   0.000000
    36  H    3.527114   2.204933   1.082523   3.436083   2.107436
    37  C    4.482160   2.418880   2.761193   1.363168   2.362829
    38  H    3.381764   2.202906   3.434542   1.083490   3.839460
    39  H    5.366978   3.422385   2.151238   3.837285   1.083104
    40  H    5.285665   3.424550   3.840260   2.153084   3.312215
    41  C    1.438712   4.016932   4.722559   4.714589   5.902465
    42  H    2.074907   4.448781   4.864492   5.356392   6.072356
    43  H    2.037294   4.607841   5.328563   5.052664   6.375451
    44  H    2.105372   4.421056   5.301493   5.097603   6.541756
    45  N    6.782980   4.703628   4.963876   5.101629   5.295965
    46  H    7.799483   5.697470   5.888986   6.035695   6.112133
    47  N    4.986242   2.768942   2.364625   2.362197   1.356182
    48  H    5.945597   3.783453   3.274763   3.273389   2.051863
    49  C    5.162453   5.577596   6.991778   5.365126   7.886076
    50  H    6.196260   6.624913   8.045801   6.318842   8.896562
                   36         37         38         39         40
    36  H    0.000000
    37  C    3.842200   0.000000
    38  H    4.360841   2.110701   0.000000
    39  H    2.468700   3.311655   4.916584   0.000000
    40  H    4.919292   1.083166   2.473841   4.145767   0.000000
    41  C    4.662529   5.897960   4.633902   6.664014   6.653924
    42  H    4.565906   6.462808   5.449811   6.694671   7.304912
    43  H    5.378626   6.155434   4.861898   7.143205   6.792373
    44  H    5.255500   6.384406   4.869436   7.359636   7.110496
    45  N    5.243154   5.422386   5.491006   5.810016   6.015505
    46  H    6.143873   6.250139   6.410770   6.535513   6.765440
    47  N    3.333349   1.354033   3.332838   2.076595   2.075210
    48  H    4.151900   2.050447   4.153091   2.331620   2.331000
    49  C    7.494816   6.536360   4.495288   8.941807   6.767486
    50  H    8.571919   7.424327   5.394167   9.959697   7.552194
                   41         42         43         44         45
    41  C    0.000000
    42  H    1.093051   0.000000
    43  H    1.091133   1.789319   0.000000
    44  H    1.094182   1.788858   1.784793   0.000000
    45  N    7.861657   8.188951   8.711095   7.740922   0.000000
    46  H    8.865161   9.178779   9.721924   8.717842   1.017456
    47  N    6.410367   6.775695   6.745897   7.004948   5.474010
    48  H    7.357633   7.705872   7.636907   7.985712   6.046841
    49  C    5.367121   6.323400   5.631367   4.658316   6.858316
    50  H    6.319021   7.283675   6.500496   5.569421   7.630028
                   46         47         48         49         50
    46  H    0.000000
    47  N    6.246027   0.000000
    48  H    6.716888   1.014561   0.000000
    49  C    7.611646   7.679505   8.544695   0.000000
    50  H    8.307944   8.614314   9.441332   1.086277   0.000000
 Stoichiometry    C23H23N2OP(2+)
 Framework group  C1[X(C23H23N2OP)]
 Deg. of freedom   144
 Full point group                 C1      NOp   1
 Largest Abelian subgroup         C1      NOp   1
 Largest concise Abelian subgroup C1      NOp   1
                         Standard orientation:                         
 ---------------------------------------------------------------------
 Center     Atomic      Atomic             Coordinates (Angstroms)
 Number     Number       Type             X           Y           Z
 ---------------------------------------------------------------------
      1          6           0        4.058556   -1.205943   -0.423885
      2          6           0        2.833414   -0.732108   -0.883477
      3          6           0        1.980421   -0.036823   -0.014770
      4          6           0        2.381612    0.212518    1.301114
      5          6           0        3.614318   -0.251410    1.748989
      6          1           0        4.710250   -1.750934   -1.100231
      7          1           0        2.555350   -0.895242   -1.921066
      8          1           0        1.750110    0.763985    1.986246
      9          1           0        3.920862   -0.050998    2.771294
     10         15           0        0.420170    0.549268   -0.709913
     11          6           0       -0.392077    1.944270    0.117818
     12          6           0       -0.871340    2.963904   -0.717789
     13          6           0       -0.548270    2.064378    1.505031
     14          6           0       -1.500513    4.079678   -0.173258
     15          1           0       -0.760062    2.891414   -1.794811
     16          6           0       -1.162770    3.189888    2.042918
     17          1           0       -0.219547    1.284003    2.179924
     18          1           0       -1.874749    4.857013   -0.832755
     19          1           0       -1.272921    3.273258    3.120028
     20          6           0       -0.757046   -0.991630    0.846167
     21          6           0       -2.012694   -0.716313    1.395528
     22          6           0       -0.020903   -2.045842    1.398529
     23          6           0       -2.478630   -1.438450    2.473102
     24          1           0       -2.648713    0.066855    0.990309
     25          6           0       -0.515799   -2.752441    2.474705
     26          1           0        0.947036   -2.336518    0.999922
     27          1           0       -3.433303   -1.266984    2.955886
     28          1           0        0.005924   -3.569792    2.957519
     29          6           0        4.448439   -0.969102    0.892875
     30          1           0        5.407066   -1.334759    1.249551
     31          8           0        0.883923    1.182826   -2.137006
     32          6           0       -0.703209   -0.707582   -1.276685
     33          6           0       -0.254494   -1.988911   -1.740614
     34          6           0       -2.032026   -0.323548   -1.655332
     35          6           0       -1.154623   -2.866187   -2.265382
     36          1           0        0.774549   -2.305741   -1.628606
     37          6           0       -2.878631   -1.252500   -2.183097
     38          1           0       -2.397978    0.683139   -1.492204
     39          1           0       -0.883466   -3.864975   -2.584773
     40          1           0       -3.905964   -1.030825   -2.445197
     41          6           0        1.924692    2.169362   -2.252940
     42          1           0        2.882212    1.667596   -2.414638
     43          1           0        1.673832    2.783319   -3.119368
     44          1           0        1.984544    2.801614   -1.361924
     45          7           0       -1.719013   -2.426714    2.982053
     46          1           0       -2.073113   -2.954314    3.776702
     47          7           0       -2.451493   -2.511027   -2.442074
     48          1           0       -3.094257   -3.176510   -2.858392
     49          6           0       -1.642046    4.197465    1.206997
     50          1           0       -2.126343    5.071908    1.632208
 ---------------------------------------------------------------------
 Rotational constants (GHZ):           0.1942929           0.1933257           0.1636853
 Standard basis: 6-31+G(d) (6D, 7F)
 There are   563 symmetry adapted cartesian basis functions of A   symmetry.
 There are   563 symmetry adapted basis functions of A   symmetry.
   563 basis functions,   980 primitive gaussians,   563 cartesian basis functions
    98 alpha electrons       98 beta electrons
       nuclear repulsion energy      2709.6401636521 Hartrees.
 NAtoms=   50 NActive=   50 NUniq=   50 SFac= 1.00D+00 NAtFMM=   60 NAOKFM=F Big=F
 Integral buffers will be    131072 words long.
 Raffenetti 2 integral format.
 Two-electron integral symmetry is turned on.
 Nuclear repulsion after empirical dispersion term =     2709.5914812649 Hartrees.
 Force inversion solution in PCM.
 ------------------------------------------------------------------------------
 Polarizable Continuum Model (PCM)
 =================================
 Model                : PCM.
 Atomic radii         : SMD-Coulomb.
 Polarization charges : Total charges.
 Charge compensation  : None.
 Solution method      : Matrix inversion.
 Cavity type          : VdW (van der Waals Surface) (Alpha=1.000).
 Cavity algorithm     : GePol (No added spheres)
                        Default sphere list used, NSphG=   50.
                        Lebedev-Laikov grids with approx.  5.0 points / Ang**2.
                        Smoothing algorithm: York/Karplus (Gamma=1.0000).
                        Polarization charges: spherical gaussians, with
                                              point-specific exponents (IZeta= 3).
                        Self-potential: point-specific (ISelfS= 7).
                        Self-field    : sphere-specific E.n sum rule (ISelfD= 2).
 1st derivatives      : Analytical E(r).r(x)/FMM algorithm (CHGder, D1EAlg=3).
                        Cavity 1st derivative terms included.
 2nd derivatives      : Analytical E(r).r(xy)/FMM algorithm (CHGder, D2EAlg=3).
                        Cavity 2nd derivative terms included.
 Solvent              : Ethanol, Eps=  24.852000 Eps(inf)=   1.852593
 ------------------------------------------------------------------------------
 ------------------------------------------------------------------------------
 Atomic radii for non-electrostatic terms: SMD-CDS.
 ------------------------------------------------------------------------------
 Nuclear repulsion after PCM non-electrostatic terms =     2709.5909068319 Hartrees.
 One-electron integrals computed using PRISM.
 NBasis=   563 RedAO= T EigKep=  1.13D-06  NBF=   563
 NBsUse=   560 1.00D-06 EigRej=  8.47D-07 NBFU=   560
 ExpMin= 3.48D-02 ExpMax= 1.94D+04 ExpMxC= 2.91D+03 IAcc=3 IRadAn=         5 AccDes= 0.00D+00
 Harris functional with IExCor= 4639 and IRadAn=       5 diagonalized for initial guess.
 HarFok:  IExCor= 4639 AccDes= 0.00D+00 IRadAn=         5 IDoV= 1 UseB2=F ITyADJ=14
 ICtDFT=  3500011 ScaDFX=  1.000000  1.000000  1.000000  1.000000
 FoFCou: FMM=F IPFlag=           0 FMFlag=      100000 FMFlg1=           0
         NFxFlg=           0 DoJE=T BraDBF=F KetDBF=T FulRan=T
         wScrn=  0.000000 ICntrl=       500 IOpCl=  0 I1Cent=   200000004 NGrid=           0
         NMat0=    1 NMatS0=      1 NMatT0=    0 NMatD0=    1 NMtDS0=    0 NMtDT0=    0
 Petite list used in FoFCou.
 Requested convergence on RMS density matrix=1.00D-08 within 128 cycles.
 Requested convergence on MAX density matrix=1.00D-06.
 Requested convergence on             energy=1.00D-06.
 No special actions if energy rises.
 Inv3:  Mode=1 IEnd=    38966448.
 Iteration    1 A*A^-1 deviation from unit magnitude is 1.19D-14 for   3585.
 Iteration    1 A*A^-1 deviation from orthogonality  is 3.13D-15 for   1848    198.
 Iteration    1 A^-1*A deviation from unit magnitude is 1.19D-14 for   3585.
 Iteration    1 A^-1*A deviation from orthogonality  is 3.09D-15 for   3392   2517.
 Error on total polarization charges =  0.05568
 SCF Done:  E(RwB97XD) =  -1415.68691564     A.U. after   18 cycles
            NFock= 18  Conv=0.38D-08     -V/T= 2.0081
 SMD-CDS (non-electrostatic) energy       (kcal/mol) =      -0.36
 (included in total energy above)
 DoSCS=F DFT=T ScalE2(SS,OS)=  1.000000  1.000000
 Range of M.O.s used for correlation:     1   560
 NBasis=   563 NAE=    98 NBE=    98 NFC=     0 NFV=     0
 NROrb=    560 NOA=    98 NOB=    98 NVA=   462 NVB=   462

 **** Warning!!: The largest alpha MO coefficient is  0.12275121D+03

 Symmetrizing basis deriv contribution to polar:
 IMax=3 JMax=2 DiffMx= 0.00D+00
 G2DrvN: will do    51 centers at a time, making    1 passes.
 Calling FoFCou, ICntrl=  3107 FMM=F I1Cent=   0 AccDes= 0.00D+00.
 NEqPCM:  Using equilibrium solvation (IEInf=0, Eps=  24.8520, EpsInf=   1.8526)
 G2PCM: DoFxE=T DoFxN=T DoGrad=T DoDP/DQ/DG/TGxP=FFFF NFrqRd=   0 IEInf=0 SqF1=F DoCFld=F IF1Alg=4.
 End of G2Drv F.D. properties file   721 does not exist.
 End of G2Drv F.D. properties file   722 does not exist.
 End of G2Drv F.D. properties file   788 does not exist.
          IDoAtm=11111111111111111111111111111111111111111111111111
 NEqPCM:  Using equilibrium solvation (IEInf=0, Eps=  24.8520, EpsInf=   1.8526)
          Differentiating once with respect to electric field.
                with respect to dipole field.
          Differentiating once with respect to nuclear coordinates.
 CalDSu exits because no D1Ps are significant.
          There are   153 degrees of freedom in the 1st order CPHF.  IDoFFX=6 NUNeed=     3.
    150 vectors produced by pass  0 Test12= 4.53D-14 1.00D-09 XBig12= 1.80D+02 5.20D+00.
 AX will form   150 AO Fock derivatives at one time.
    150 vectors produced by pass  1 Test12= 4.53D-14 1.00D-09 XBig12= 1.22D+01 7.91D-01.
    150 vectors produced by pass  2 Test12= 4.53D-14 1.00D-09 XBig12= 2.88D-01 6.94D-02.
    150 vectors produced by pass  3 Test12= 4.53D-14 1.00D-09 XBig12= 2.80D-03 4.52D-03.
    150 vectors produced by pass  4 Test12= 4.53D-14 1.00D-09 XBig12= 2.09D-05 3.71D-04.
    150 vectors produced by pass  5 Test12= 4.53D-14 1.00D-09 XBig12= 1.43D-07 2.69D-05.
    150 vectors produced by pass  6 Test12= 4.53D-14 1.00D-09 XBig12= 8.57D-10 1.77D-06.
     63 vectors produced by pass  7 Test12= 4.53D-14 1.00D-09 XBig12= 4.77D-12 1.31D-07.
      3 vectors produced by pass  8 Test12= 4.53D-14 1.00D-09 XBig12= 4.97D-14 1.37D-08.
      3 vectors produced by pass  9 Test12= 4.53D-14 1.00D-09 XBig12= 1.10D-14 1.06D-08.
      3 vectors produced by pass 10 Test12= 4.53D-14 1.00D-09 XBig12= 1.35D-15 3.59D-09.
      3 vectors produced by pass 11 Test12= 4.53D-14 1.00D-09 XBig12= 1.19D-15 2.73D-09.
      3 vectors produced by pass 12 Test12= 4.53D-14 1.00D-09 XBig12= 1.76D-15 2.97D-09.
      3 vectors produced by pass 13 Test12= 4.53D-14 1.00D-09 XBig12= 1.04D-15 2.05D-09.
      3 vectors produced by pass 14 Test12= 4.53D-14 1.00D-09 XBig12= 3.45D-15 3.65D-09.
      3 vectors produced by pass 15 Test12= 4.53D-14 1.00D-09 XBig12= 1.65D-15 2.57D-09.
      3 vectors produced by pass 16 Test12= 4.53D-14 1.00D-09 XBig12= 2.34D-15 2.87D-09.
      3 vectors produced by pass 17 Test12= 4.53D-14 1.00D-09 XBig12= 1.67D-15 2.48D-09.
      3 vectors produced by pass 18 Test12= 4.53D-14 1.00D-09 XBig12= 1.36D-15 2.81D-09.
      3 vectors produced by pass 19 Test12= 4.53D-14 1.00D-09 XBig12= 8.19D-16 1.83D-09.
      3 vectors produced by pass 20 Test12= 4.53D-14 1.00D-09 XBig12= 2.62D-15 3.35D-09.
      3 vectors produced by pass 21 Test12= 4.53D-14 1.00D-09 XBig12= 2.82D-15 4.19D-09.
      3 vectors produced by pass 22 Test12= 4.53D-14 1.00D-09 XBig12= 1.60D-15 2.14D-09.
      3 vectors produced by pass 23 Test12= 4.53D-14 1.00D-09 XBig12= 1.75D-15 2.49D-09.
      3 vectors produced by pass 24 Test12= 4.53D-14 1.00D-09 XBig12= 3.18D-15 3.46D-09.
      1 vectors produced by pass 25 Test12= 4.53D-14 1.00D-09 XBig12= 5.93D-16 1.38D-09.
 InvSVY:  IOpt=1 It=  1 EMax= 2.49D-14
 Solved reduced A of dimension  1165 with   153 vectors.
 Isotropic polarizability for W=    0.000000      436.92 Bohr**3.
 End of Minotr F.D. properties file   721 does not exist.
 End of Minotr F.D. properties file   722 does not exist.
 End of Minotr F.D. properties file   788 does not exist.

 **********************************************************************

            Population analysis using the SCF density.

 **********************************************************************

 Orbital symmetries:
       Occupied  (A) (A) (A) (A) (A) (A) (A) (A) (A) (A) (A) (A)
                 (A) (A) (A) (A) (A) (A) (A) (A) (A) (A) (A) (A)
                 (A) (A) (A) (A) (A) (A) (A) (A) (A) (A) (A) (A)
                 (A) (A) (A) (A) (A) (A) (A) (A) (A) (A) (A) (A)
                 (A) (A) (A) (A) (A) (A) (A) (A) (A) (A) (A) (A)
                 (A) (A) (A) (A) (A) (A) (A) (A) (A) (A) (A) (A)
                 (A) (A) (A) (A) (A) (A) (A) (A) (A) (A) (A) (A)
                 (A) (A) (A) (A) (A) (A) (A) (A) (A) (A) (A) (A)
                 (A) (A)
       Virtual   (A) (A) (A) (A) (A) (A) (A) (A) (A) (A) (A) (A)
                 (A) (A) (A) (A) (A) (A) (A) (A) (A) (A) (A) (A)
                 (A) (A) (A) (A) (A) (A) (A) (A) (A) (A) (A) (A)
                 (A) (A) (A) (A) (A) (A) (A) (A) (A) (A) (A) (A)
                 (A) (A) (A) (A) (A) (A) (A) (A) (A) (A) (A) (A)
                 (A) (A) (A) (A) (A) (A) (A) (A) (A) (A) (A) (A)
                 (A) (A) (A) (A) (A) (A) (A) (A) (A) (A) (A) (A)
                 (A) (A) (A) (A) (A) (A) (A) (A) (A) (A) (A) (A)
                 (A) (A) (A) (A) (A) (A) (A) (A) (A) (A) (A) (A)
                 (A) (A) (A) (A) (A) (A) (A) (A) (A) (A) (A) (A)
                 (A) (A) (A) (A) (A) (A) (A) (A) (A) (A) (A) (A)
                 (A) (A) (A) (A) (A) (A) (A) (A) (A) (A) (A) (A)
                 (A) (A) (A) (A) (A) (A) (A) (A) (A) (A) (A) (A)
                 (A) (A) (A) (A) (A) (A) (A) (A) (A) (A) (A) (A)
                 (A) (A) (A) (A) (A) (A) (A) (A) (A) (A) (A) (A)
                 (A) (A) (A) (A) (A) (A) (A) (A) (A) (A) (A) (A)
                 (A) (A) (A) (A) (A) (A) (A) (A) (A) (A) (A) (A)
                 (A) (A) (A) (A) (A) (A) (A) (A) (A) (A) (A) (A)
                 (A) (A) (A) (A) (A) (A) (A) (A) (A) (A) (A) (A)
                 (A) (A) (A) (A) (A) (A) (A) (A) (A) (A) (A) (A)
                 (A) (A) (A) (A) (A) (A) (A) (A) (A) (A) (A) (A)
                 (A) (A) (A) (A) (A) (A) (A) (A) (A) (A) (A) (A)
                 (A) (A) (A) (A) (A) (A) (A) (A) (A) (A) (A) (A)
                 (A) (A) (A) (A) (A) (A) (A) (A) (A) (A) (A) (A)
                 (A) (A) (A) (A) (A) (A) (A) (A) (A) (A) (A) (A)
                 (A) (A) (A) (A) (A) (A) (A) (A) (A) (A) (A) (A)
                 (A) (A) (A) (A) (A) (A) (A) (A) (A) (A) (A) (A)
                 (A) (A) (A) (A) (A) (A) (A) (A) (A) (A) (A) (A)
                 (A) (A) (A) (A) (A) (A) (A) (A) (A) (A) (A) (A)
                 (A) (A) (A) (A) (A) (A) (A) (A) (A) (A) (A) (A)
                 (A) (A) (A) (A) (A) (A) (A) (A) (A) (A) (A) (A)
                 (A) (A) (A) (A) (A) (A) (A) (A) (A) (A) (A) (A)
                 (A) (A) (A) (A) (A) (A) (A) (A) (A) (A) (A) (A)
                 (A) (A) (A) (A) (A) (A) (A) (A) (A) (A) (A) (A)
                 (A) (A) (A) (A) (A) (A) (A) (A) (A) (A) (A) (A)
                 (A) (A) (A) (A) (A) (A) (A) (A) (A) (A) (A) (A)
                 (A) (A) (A) (A) (A) (A) (A) (A) (A) (A) (A) (A)
                 (A) (A) (A) (A) (A) (A) (A) (A) (A) (A) (A) (A)
                 (A) (A) (A) (A) (A) (A)
 The electronic state is 1-A.
 Alpha  occ. eigenvalues --  -77.38626 -19.32034 -14.56938 -14.54886 -10.39355
 Alpha  occ. eigenvalues --  -10.38833 -10.38831 -10.38263 -10.38162 -10.35426
 Alpha  occ. eigenvalues --  -10.34815 -10.34795 -10.34691 -10.33892 -10.33862
 Alpha  occ. eigenvalues --  -10.33815 -10.33689 -10.33425 -10.33360 -10.33310
 Alpha  occ. eigenvalues --  -10.33305 -10.32638 -10.32638 -10.32333 -10.32274
 Alpha  occ. eigenvalues --  -10.32228 -10.32217  -6.80145  -4.95177  -4.94832
 Alpha  occ. eigenvalues --   -4.94822  -1.17016  -1.13626  -1.12149  -0.99180
 Alpha  occ. eigenvalues --   -0.98349  -0.96803  -0.93857  -0.91414  -0.90964
 Alpha  occ. eigenvalues --   -0.89824  -0.87429  -0.87143  -0.86840  -0.83861
 Alpha  occ. eigenvalues --   -0.79473  -0.77878  -0.76795  -0.75953  -0.75238
 Alpha  occ. eigenvalues --   -0.72526  -0.72425  -0.71553  -0.70159  -0.69547
 Alpha  occ. eigenvalues --   -0.68449  -0.64003  -0.63121  -0.61929  -0.61792
 Alpha  occ. eigenvalues --   -0.60848  -0.59335  -0.58692  -0.57796  -0.57113
 Alpha  occ. eigenvalues --   -0.56455  -0.56173  -0.56074  -0.55927  -0.55369
 Alpha  occ. eigenvalues --   -0.55286  -0.54982  -0.54669  -0.53922  -0.53660
 Alpha  occ. eigenvalues --   -0.52751  -0.51940  -0.51486  -0.49482  -0.48763
 Alpha  occ. eigenvalues --   -0.48190  -0.47861  -0.47244  -0.46205  -0.45110
 Alpha  occ. eigenvalues --   -0.44645  -0.44528  -0.43582  -0.42712  -0.40383
 Alpha  occ. eigenvalues --   -0.39763  -0.38751  -0.37350  -0.36033  -0.35577
 Alpha  occ. eigenvalues --   -0.35192  -0.34982  -0.30156
 Alpha virt. eigenvalues --   -0.03742   0.00329   0.01417   0.02231   0.02290
 Alpha virt. eigenvalues --    0.03269   0.03622   0.04841   0.04900   0.05929
 Alpha virt. eigenvalues --    0.05967   0.06599   0.07347   0.07607   0.08105
 Alpha virt. eigenvalues --    0.08369   0.08436   0.09212   0.09389   0.09730
 Alpha virt. eigenvalues --    0.10029   0.10127   0.10579   0.10954   0.11226
 Alpha virt. eigenvalues --    0.11553   0.11708   0.12053   0.12788   0.12825
 Alpha virt. eigenvalues --    0.13410   0.13604   0.13772   0.13978   0.14283
 Alpha virt. eigenvalues --    0.14867   0.14898   0.15174   0.15882   0.16206
 Alpha virt. eigenvalues --    0.16276   0.16604   0.16628   0.17054   0.17596
 Alpha virt. eigenvalues --    0.17764   0.18227   0.18457   0.18682   0.18740
 Alpha virt. eigenvalues --    0.19342   0.19440   0.19918   0.19999   0.20258
 Alpha virt. eigenvalues --    0.20373   0.20841   0.21040   0.21206   0.21461
 Alpha virt. eigenvalues --    0.21798   0.22170   0.22321   0.22411   0.22643
 Alpha virt. eigenvalues --    0.22808   0.23213   0.23362   0.23876   0.24043
 Alpha virt. eigenvalues --    0.24278   0.24368   0.24572   0.25046   0.25169
 Alpha virt. eigenvalues --    0.25359   0.25556   0.25889   0.26246   0.26520
 Alpha virt. eigenvalues --    0.26852   0.26910   0.27063   0.27336   0.27791
 Alpha virt. eigenvalues --    0.27945   0.28164   0.28293   0.28461   0.28844
 Alpha virt. eigenvalues --    0.29133   0.29587   0.29924   0.30033   0.30203
 Alpha virt. eigenvalues --    0.30536   0.30561   0.30897   0.31053   0.31545
 Alpha virt. eigenvalues --    0.31631   0.32078   0.32224   0.32528   0.32779
 Alpha virt. eigenvalues --    0.32928   0.33238   0.33590   0.33649   0.34181
 Alpha virt. eigenvalues --    0.34507   0.34707   0.34810   0.35033   0.35460
 Alpha virt. eigenvalues --    0.35657   0.35847   0.35892   0.36230   0.36822
 Alpha virt. eigenvalues --    0.37128   0.37341   0.37459   0.37644   0.38028
 Alpha virt. eigenvalues --    0.38420   0.38657   0.38733   0.39197   0.39581
 Alpha virt. eigenvalues --    0.39822   0.40033   0.40254   0.40773   0.41306
 Alpha virt. eigenvalues --    0.41442   0.41758   0.42056   0.42980   0.43286
 Alpha virt. eigenvalues --    0.43438   0.43783   0.44189   0.44762   0.45332
 Alpha virt. eigenvalues --    0.45708   0.45862   0.46447   0.46981   0.47259
 Alpha virt. eigenvalues --    0.47868   0.48635   0.49177   0.50096   0.50493
 Alpha virt. eigenvalues --    0.51786   0.52113   0.53978   0.55274   0.56739
 Alpha virt. eigenvalues --    0.58239   0.60091   0.60400   0.62356   0.63273
 Alpha virt. eigenvalues --    0.64556   0.65548   0.65946   0.67714   0.70609
 Alpha virt. eigenvalues --    0.71638   0.74348   0.74702   0.75159   0.76354
 Alpha virt. eigenvalues --    0.76672   0.77700   0.77908   0.78665   0.79139
 Alpha virt. eigenvalues --    0.79451   0.80128   0.80698   0.81144   0.81422
 Alpha virt. eigenvalues --    0.81757   0.82449   0.82626   0.83398   0.83436
 Alpha virt. eigenvalues --    0.84246   0.84715   0.85092   0.85592   0.86067
 Alpha virt. eigenvalues --    0.86973   0.87135   0.87698   0.88338   0.88845
 Alpha virt. eigenvalues --    0.89635   0.89719   0.90659   0.91308   0.91961
 Alpha virt. eigenvalues --    0.93170   0.93871   0.94645   0.95079   0.95688
 Alpha virt. eigenvalues --    0.96783   0.97188   0.98037   0.98245   0.98694
 Alpha virt. eigenvalues --    0.99391   0.99701   1.00047   1.00438   1.00653
 Alpha virt. eigenvalues --    1.00842   1.01119   1.01810   1.02003   1.02274
 Alpha virt. eigenvalues --    1.02618   1.03056   1.03884   1.03936   1.04874
 Alpha virt. eigenvalues --    1.05310   1.05709   1.06506   1.06966   1.07516
 Alpha virt. eigenvalues --    1.07898   1.08065   1.08789   1.09787   1.10487
 Alpha virt. eigenvalues --    1.11064   1.12195   1.12719   1.13403   1.14254
 Alpha virt. eigenvalues --    1.15119   1.15500   1.16277   1.16450   1.17528
 Alpha virt. eigenvalues --    1.18879   1.19041   1.19341   1.19677   1.20719
 Alpha virt. eigenvalues --    1.21376   1.21651   1.22282   1.23440   1.24078
 Alpha virt. eigenvalues --    1.25023   1.25776   1.26321   1.27106   1.27740
 Alpha virt. eigenvalues --    1.28094   1.29020   1.29348   1.29946   1.30637
 Alpha virt. eigenvalues --    1.31879   1.32477   1.32963   1.34210   1.34879
 Alpha virt. eigenvalues --    1.35478   1.35839   1.36415   1.38180   1.39406
 Alpha virt. eigenvalues --    1.40368   1.41211   1.42074   1.43080   1.44376
 Alpha virt. eigenvalues --    1.46756   1.48277   1.48637   1.49055   1.49677
 Alpha virt. eigenvalues --    1.50055   1.50681   1.51137   1.51724   1.51944
 Alpha virt. eigenvalues --    1.52353   1.53068   1.53385   1.54002   1.54599
 Alpha virt. eigenvalues --    1.54779   1.55321   1.55818   1.56078   1.56281
 Alpha virt. eigenvalues --    1.56563   1.57553   1.58100   1.59128   1.59213
 Alpha virt. eigenvalues --    1.59677   1.60840   1.62169   1.63159   1.64245
 Alpha virt. eigenvalues --    1.67481   1.68601   1.69277   1.70784   1.72576
 Alpha virt. eigenvalues --    1.74505   1.78600   1.80853   1.81714   1.82573
 Alpha virt. eigenvalues --    1.88314   1.88954   1.89639   1.92511   1.93585
 Alpha virt. eigenvalues --    1.94490   1.95101   1.96483   1.98598   1.98957
 Alpha virt. eigenvalues --    1.99388   2.00765   2.01392   2.02669   2.04350
 Alpha virt. eigenvalues --    2.06441   2.06683   2.07540   2.08197   2.09113
 Alpha virt. eigenvalues --    2.10081   2.11337   2.13288   2.13797   2.14503
 Alpha virt. eigenvalues --    2.15597   2.16740   2.19801   2.20205   2.20666
 Alpha virt. eigenvalues --    2.21038   2.21695   2.22100   2.22510   2.22701
 Alpha virt. eigenvalues --    2.23115   2.23412   2.24001   2.24392   2.25246
 Alpha virt. eigenvalues --    2.25942   2.26365   2.26742   2.27863   2.28202
 Alpha virt. eigenvalues --    2.28805   2.30332   2.30606   2.31474   2.32289
 Alpha virt. eigenvalues --    2.33136   2.33383   2.34768   2.35139   2.36003
 Alpha virt. eigenvalues --    2.36898   2.37361   2.37945   2.38894   2.39160
 Alpha virt. eigenvalues --    2.39480   2.40546   2.40898   2.41388   2.42735
 Alpha virt. eigenvalues --    2.45732   2.47513   2.48768   2.63152   2.66754
 Alpha virt. eigenvalues --    2.67451   2.69055   2.69197   2.70239   2.70975
 Alpha virt. eigenvalues --    2.71239   2.71731   2.72316   2.73050   2.73618
 Alpha virt. eigenvalues --    2.74631   2.75855   2.77041   2.77887   2.78452
 Alpha virt. eigenvalues --    2.79547   2.80116   2.80855   2.81248   2.84806
 Alpha virt. eigenvalues --    2.85685   2.86317   2.87031   2.87793   2.89269
 Alpha virt. eigenvalues --    2.90156   2.92252   2.92783   2.94334   2.94929
 Alpha virt. eigenvalues --    2.96870   2.99565   3.11571   3.12813   3.14664
 Alpha virt. eigenvalues --    3.17086   3.44406   3.46643   3.46793   3.48535
 Alpha virt. eigenvalues --    3.73129   4.29335   4.31936   4.37536   4.38513
 Alpha virt. eigenvalues --    4.39759   4.41987   4.42783   4.44358   4.45533
 Alpha virt. eigenvalues --    4.46077   4.47770   4.49192   4.50945   4.53030
 Alpha virt. eigenvalues --    4.53706   4.55969   4.58745   4.60061   4.62159
 Alpha virt. eigenvalues --    4.63707   4.66044   4.74576   4.78489   4.79237
 Alpha virt. eigenvalues --    4.80585   4.85337
          Condensed to atoms (all electrons):
               1          2          3          4          5          6
     1  C   13.554729  -2.518505  -0.603651  -4.559938   1.048366   0.281376
     2  C   -2.518505  21.665729  -6.422780  -7.608624  -0.341492  -0.021785
     3  C   -0.603651  -6.422780  25.157716  -7.084963  -0.757335   0.048696
     4  C   -4.559938  -7.608624  -7.084963  28.783614  -5.015577   0.008438
     5  C    1.048366  -0.341492  -0.757335  -5.015577  10.744056  -0.003364
     6  H    0.281376  -0.021785   0.048696   0.008438  -0.003364   0.431634
     7  H    0.024163   0.340115  -0.055263  -0.026827  -0.001537  -0.003098
     8  H    0.008908   0.035968   0.105266   0.089611   0.007288   0.000012
     9  H    0.012504  -0.014044   0.059387  -0.086918   0.354091  -0.000107
    10  P    0.734426  -1.214172   1.927098  -2.348899   1.020277   0.000101
    11  C   -0.392168   0.314956  -1.084543   0.332664  -0.356400   0.000097
    12  C    0.482998   2.670501   3.002489  -5.063895  -0.285317  -0.000032
    13  C   -0.292165  -2.648684  -3.111560   5.805274   0.280160   0.000064
    14  C    0.027666  -0.014321   0.344717  -0.277080   0.038496  -0.000002
    15  H    0.000103  -0.008086   0.015396  -0.001222   0.000026  -0.000000
    16  C    0.139151  -0.538809   0.239662  -0.070313   0.079233   0.000013
    17  H   -0.001201   0.020856   0.061912  -0.064794  -0.010969  -0.000000
    18  H   -0.000001   0.000214  -0.000115  -0.000190  -0.000027  -0.000000
    19  H    0.000054   0.000056   0.002046  -0.003152  -0.000144  -0.000000
    20  C    0.137637  -0.020595  -1.476513   0.927695  -0.081723  -0.001919
    21  C   -0.048472   0.662618  -1.249419  -0.670324   0.672431  -0.000311
    22  C    0.105673  -1.095500   1.588043   0.550044  -0.397147   0.001771
    23  C   -0.058635  -0.114730  -0.055027   0.299169  -0.044938   0.000005
    24  H    0.000274   0.001702   0.002641  -0.007773  -0.000193  -0.000000
    25  C    0.061695   0.349548  -0.069205   0.034445  -0.387795   0.000038
    26  H   -0.001284  -0.084081   0.083590   0.006961   0.002203  -0.000002
    27  H    0.000012  -0.000261   0.000359   0.000011  -0.000108  -0.000000
    28  H    0.002206   0.000005   0.004420  -0.007305   0.001504  -0.000000
    29  C   -0.196171   0.553811  -2.413525   1.418260   0.167441  -0.002609
    30  H    0.003838  -0.000556  -0.016240   0.031529  -0.027090  -0.002743
    31  O   -0.076153   0.384842  -0.455023  -0.000915  -0.020950   0.000114
    32  C   -1.572561   2.496959  -2.614609   0.551365  -0.043842  -0.002302
    33  C    0.719630   0.402341   0.520968  -1.208105   0.109039   0.002784
    34  C   -0.463239  -0.684837  -0.305551   1.060399  -0.110326  -0.000095
    35  C    0.125425  -0.466821   0.393527   0.070077   0.002049   0.000709
    36  H   -0.035304  -0.063625   0.056209   0.046455  -0.000457   0.000003
    37  C    0.014719  -0.184579   0.341826  -0.009447   0.012014  -0.000024
    38  H   -0.000465  -0.002728  -0.003171   0.003579   0.000266  -0.000000
    39  H    0.000055   0.000404  -0.001328   0.000189  -0.000051  -0.000000
    40  H    0.000009   0.000136  -0.000309  -0.000089   0.000016  -0.000000
    41  C   -0.027413   0.060706  -0.166719  -0.000041   0.028479  -0.000450
    42  H   -0.029930  -0.015716   0.028832   0.020316  -0.001063  -0.000011
    43  H    0.003416   0.004227   0.011600  -0.002664  -0.000764   0.000000
    44  H    0.012941   0.043889  -0.052446  -0.045784   0.007589  -0.000000
    45  N    0.006653  -0.012114  -0.027419   0.014937   0.009978   0.000000
    46  H   -0.000026   0.000011  -0.000472   0.000449   0.000184   0.000000
    47  N   -0.021092   0.009855  -0.049778   0.021890  -0.001011   0.000001
    48  H    0.000017   0.000187   0.000100  -0.000038  -0.000009   0.000000
    49  C    0.001366   0.060048   0.049106  -0.029410  -0.029420  -0.000001
    50  H   -0.000000  -0.000070  -0.000430   0.000435   0.000058   0.000000
               7          8          9         10         11         12
     1  C    0.024163   0.008908   0.012504   0.734426  -0.392168   0.482998
     2  C    0.340115   0.035968  -0.014044  -1.214172   0.314956   2.670501
     3  C   -0.055263   0.105266   0.059387   1.927098  -1.084543   3.002489
     4  C   -0.026827   0.089611  -0.086918  -2.348899   0.332664  -5.063895
     5  C   -0.001537   0.007288   0.354091   1.020277  -0.356400  -0.285317
     6  H   -0.003098   0.000012  -0.000107   0.000101   0.000097  -0.000032
     7  H    0.433679  -0.000109   0.000012   0.000835  -0.001095   0.001564
     8  H   -0.000109   0.455964  -0.003684   0.045493   0.036131   0.015256
     9  H    0.000012  -0.003684   0.432852   0.005157   0.002081   0.000824
    10  P    0.000835   0.045493   0.005157  20.537776  -0.996090   0.081045
    11  C   -0.001095   0.036131   0.002081  -0.996090  25.145851 -11.561827
    12  C    0.001564   0.015256   0.000824   0.081045 -11.561827  27.435148
    13  C    0.000449  -0.055824  -0.003170  -1.125526   0.380381 -10.881181
    14  C    0.000310  -0.000788   0.000090   0.363277  -2.175523  -1.839582
    15  H   -0.000001  -0.000003  -0.000000  -0.018854  -0.143006   0.391928
    16  C    0.000151   0.023521   0.000429   1.455325  -1.374367   0.279754
    17  H   -0.000000   0.004815  -0.000008   0.003187   0.172477   0.032528
    18  H    0.000000   0.000000  -0.000000   0.002183   0.055520  -0.006155
    19  H   -0.000000  -0.000014  -0.000000   0.005480   0.031871  -0.009390
    20  C   -0.002509  -0.013884  -0.002205  -0.807918  -1.070569  -0.505493
    21  C   -0.002217   0.025164  -0.000285   1.444445   1.365912  -2.558438
    22  C   -0.000667  -0.015331   0.004812  -1.191901  -0.339482   2.053454
    23  C   -0.000038  -0.000711   0.000039  -0.228311  -0.160744  -0.037632
    24  H    0.000000   0.000002  -0.000000   0.035785   0.027550  -0.005038
    25  C   -0.001438  -0.007794  -0.003828  -0.335043  -0.004545   0.040354
    26  H    0.000034  -0.000117  -0.000003   0.064294  -0.009022  -0.000223
    27  H   -0.000000  -0.000000   0.000000   0.001374   0.001196   0.000994
    28  H   -0.000000  -0.000002  -0.000000   0.007183  -0.000772  -0.000131
    29  C   -0.003714  -0.020258  -0.014734  -0.354652   0.074025  -0.141536
    30  H   -0.000112  -0.000117  -0.002661  -0.002159  -0.000368  -0.000082
    31  O    0.012962   0.001594   0.000028  -0.822654   0.243811  -0.193157
    32  C   -0.060041   0.002927  -0.000731  -2.369049  -1.666895   3.052760
    33  C    0.072581   0.002978   0.000355  -0.972208  -1.153914   0.491070
    34  C   -0.017877  -0.004742  -0.000046  -1.886056   2.078445  -1.747418
    35  C    0.004822   0.000397  -0.000022   0.861280   0.348411  -0.270492
    36  H    0.000712  -0.000003   0.000000   0.002171  -0.001431  -0.006883
    37  C   -0.000229  -0.000115  -0.000000   0.741683  -0.074563   0.080748
    38  H   -0.000001  -0.000000  -0.000000   0.049679   0.070457  -0.073319
    39  H   -0.000004  -0.000000   0.000000   0.000134  -0.000064   0.000201
    40  H    0.000000  -0.000000  -0.000000   0.008741  -0.002520  -0.000100
    41  C    0.000427  -0.000420   0.000058  -0.219013   0.198215  -0.091231
    42  H    0.000114  -0.000002  -0.000000   0.015178  -0.019390   0.015140
    43  H    0.000032   0.000001   0.000000  -0.010138  -0.014128   0.010742
    44  H    0.000027  -0.000048   0.000000   0.014363   0.007629   0.020767
    45  N    0.000004  -0.000432   0.000006   0.006447  -0.028008  -0.007637
    46  H   -0.000000  -0.000000   0.000000  -0.001701   0.000289  -0.000071
    47  N   -0.000023  -0.000004   0.000000  -0.162537  -0.010425  -0.011720
    48  H    0.000000   0.000000   0.000000  -0.003113   0.000281   0.000106
    49  C    0.000008   0.000156  -0.000096  -0.134307  -1.795475   0.998919
    50  H   -0.000000  -0.000000   0.000000   0.002660  -0.009285   0.002269
              13         14         15         16         17         18
     1  C   -0.292165   0.027666   0.000103   0.139151  -0.001201  -0.000001
     2  C   -2.648684  -0.014321  -0.008086  -0.538809   0.020856   0.000214
     3  C   -3.111560   0.344717   0.015396   0.239662   0.061912  -0.000115
     4  C    5.805274  -0.277080  -0.001222  -0.070313  -0.064794  -0.000190
     5  C    0.280160   0.038496   0.000026   0.079233  -0.010969  -0.000027
     6  H    0.000064  -0.000002  -0.000000   0.000013  -0.000000  -0.000000
     7  H    0.000449   0.000310  -0.000001   0.000151  -0.000000   0.000000
     8  H   -0.055824  -0.000788  -0.000003   0.023521   0.004815   0.000000
     9  H   -0.003170   0.000090  -0.000000   0.000429  -0.000008  -0.000000
    10  P   -1.125526   0.363277  -0.018854   1.455325   0.003187   0.002183
    11  C    0.380381  -2.175523  -0.143006  -1.374367   0.172477   0.055520
    12  C  -10.881181  -1.839582   0.391928   0.279754   0.032528  -0.006155
    13  C   30.172112  -3.785661  -0.053514 -10.001591   0.191219   0.025699
    14  C   -3.785661  12.166500   0.058806   1.835573   0.007035   0.255570
    15  H   -0.053514   0.058806   0.431233   0.028333  -0.000125  -0.003232
    16  C  -10.001591   1.835573   0.028333  15.162166  -0.143237  -0.018649
    17  H    0.191219   0.007035  -0.000125  -0.143237   0.455556   0.000013
    18  H    0.025699   0.255570  -0.003232  -0.018649   0.000013   0.432969
    19  H   -0.150246   0.009320   0.000011   0.418768  -0.003628  -0.000107
    20  C    0.684137   0.470255   0.011527  -0.264912   0.013285  -0.001321
    21  C    1.769631  -0.140612  -0.010156  -0.633757   0.060479   0.001470
    22  C   -2.276460   0.081930   0.001524   0.815688  -0.027350  -0.000330
    23  C    0.589428  -0.050010  -0.000783  -0.309114  -0.006458  -0.000104
    24  H   -0.020719   0.004863   0.000007   0.006349  -0.000611  -0.000000
    25  C    0.103538  -0.051728  -0.000190  -0.072330  -0.002299   0.000002
    26  H    0.004771   0.000250   0.000000   0.002656  -0.000029  -0.000000
    27  H   -0.005247   0.000705   0.000000   0.005473  -0.000024  -0.000000
    28  H    0.000759   0.000010   0.000000   0.000219  -0.000002  -0.000000
    29  C    0.187008  -0.009856  -0.000093  -0.088605  -0.000960   0.000001
    30  H    0.000399  -0.000005   0.000000   0.000019   0.000000   0.000000
    31  O    0.257956  -0.199405   0.016570  -0.132368   0.001229   0.000269
    32  C   -0.200264  -1.242405  -0.063294  -0.718316  -0.014343  -0.003850
    33  C    0.147973  -0.243567  -0.005876  -0.011007  -0.011258  -0.000295
    34  C   -0.338377   0.600309   0.051656   0.184539   0.018328   0.002933
    35  C    0.124770   0.009415   0.000287   0.006291   0.000196   0.000007
    36  H    0.005719  -0.000622  -0.000001   0.000306  -0.000001  -0.000000
    37  C   -0.143492   0.251137   0.014258   0.036285  -0.000614   0.000257
    38  H    0.036770  -0.024817  -0.000351  -0.007423  -0.000000  -0.000006
    39  H   -0.000127   0.000007  -0.000000   0.000007  -0.000000  -0.000000
    40  H    0.000623  -0.000624  -0.000000  -0.000102  -0.000000  -0.000000
    41  C   -0.054673  -0.045912   0.002735   0.011552  -0.000063   0.000140
    42  H   -0.003251   0.006118   0.000039   0.000397   0.000000   0.000000
    43  H    0.005661  -0.012457  -0.000048  -0.001109   0.000000   0.000001
    44  H   -0.027795   0.014240  -0.000455   0.003695  -0.000009  -0.000014
    45  N    0.019352   0.004563   0.000002   0.006510  -0.000133   0.000000
    46  H   -0.000466  -0.000005  -0.000000  -0.000092   0.000003   0.000000
    47  N    0.000803  -0.011073  -0.000073  -0.005257   0.000006   0.000001
    48  H   -0.000037   0.000023  -0.000000  -0.000012   0.000000   0.000000
    49  C   -0.032952   0.183001   0.004753   0.318501  -0.019655  -0.001411
    50  H    0.026797   0.005054  -0.000107  -0.015931  -0.000116  -0.002776
              19         20         21         22         23         24
     1  C    0.000054   0.137637  -0.048472   0.105673  -0.058635   0.000274
     2  C    0.000056  -0.020595   0.662618  -1.095500  -0.114730   0.001702
     3  C    0.002046  -1.476513  -1.249419   1.588043  -0.055027   0.002641
     4  C   -0.003152   0.927695  -0.670324   0.550044   0.299169  -0.007773
     5  C   -0.000144  -0.081723   0.672431  -0.397147  -0.044938  -0.000193
     6  H   -0.000000  -0.001919  -0.000311   0.001771   0.000005  -0.000000
     7  H   -0.000000  -0.002509  -0.002217  -0.000667  -0.000038   0.000000
     8  H   -0.000014  -0.013884   0.025164  -0.015331  -0.000711   0.000002
     9  H   -0.000000  -0.002205  -0.000285   0.004812   0.000039  -0.000000
    10  P    0.005480  -0.807918   1.444445  -1.191901  -0.228311   0.035785
    11  C    0.031871  -1.070569   1.365912  -0.339482  -0.160744   0.027550
    12  C   -0.009390  -0.505493  -2.558438   2.053454  -0.037632  -0.005038
    13  C   -0.150246   0.684137   1.769631  -2.276460   0.589428  -0.020719
    14  C    0.009320   0.470255  -0.140612   0.081930  -0.050010   0.004863
    15  H    0.000011   0.011527  -0.010156   0.001524  -0.000783   0.000007
    16  C    0.418768  -0.264912  -0.633757   0.815688  -0.309114   0.006349
    17  H   -0.003628   0.013285   0.060479  -0.027350  -0.006458  -0.000611
    18  H   -0.000107  -0.001321   0.001470  -0.000330  -0.000104  -0.000000
    19  H    0.433740  -0.004442   0.007880   0.000107  -0.004692  -0.000013
    20  C   -0.004442  25.296754  -7.610073  -5.841779   0.748968  -0.056668
    21  C    0.007880  -7.610073  29.461052 -12.117879  -4.053901   0.332584
    22  C    0.000107  -5.841779 -12.117879  26.192667  -0.030146  -0.018809
    23  C   -0.004692   0.748968  -4.053901  -0.030146   8.972096  -0.010225
    24  H   -0.000013  -0.056668   0.332584  -0.018809  -0.010225   0.412204
    25  C   -0.000084   0.846291  -1.455334  -3.436991   0.129801   0.000553
    26  H    0.000000  -0.147820  -0.037851   0.407768   0.009811  -0.000122
    27  H   -0.000000   0.098787  -0.191276   0.032470   0.427831  -0.002171
    28  H    0.000000   0.102591   0.029724  -0.173991  -0.001116   0.000011
    29  C   -0.000087  -0.034249  -0.040541   0.082903   0.020297  -0.000085
    30  H    0.000000   0.000863   0.000088  -0.000514  -0.000007   0.000000
    31  O    0.000027  -0.125589   0.103285  -0.055075   0.001192  -0.000454
    32  C   -0.000703  -5.710895   0.549515  -0.249377   0.370981  -0.009439
    33  C    0.000040   2.345648  -5.564357   4.159451   0.275566   0.007411
    34  C   -0.000071   0.213784   4.752291  -3.345169  -0.224708   0.017472
    35  C   -0.000001  -0.793580   1.123188  -0.865666  -0.038235   0.002429
    36  H   -0.000000  -0.021054  -0.006525   0.038060   0.001338  -0.000005
    37  C   -0.000033  -0.397381  -0.790153   0.817205  -0.014245  -0.004582
    38  H   -0.000000  -0.026043   0.027018  -0.010062   0.003435  -0.001399
    39  H   -0.000000  -0.001289   0.000526  -0.000115   0.000158  -0.000000
    40  H    0.000000  -0.005591   0.003275  -0.000294   0.000389  -0.000045
    41  C    0.000108   0.068237   0.007114  -0.019509  -0.000687   0.000057
    42  H    0.000000   0.002857   0.001549  -0.003111   0.000016   0.000000
    43  H    0.000000  -0.000054  -0.001415   0.001584  -0.000002  -0.000000
    44  H   -0.000000  -0.002186   0.000859  -0.001656  -0.000126   0.000000
    45  N    0.000011   0.091003  -0.229815  -0.270072   0.414881   0.007179
    46  H    0.000000  -0.002973   0.033411   0.025750  -0.047204  -0.000090
    47  N   -0.000000   0.224814  -0.032325   0.002633   0.018150  -0.000790
    48  H    0.000000   0.003583  -0.001700  -0.000537  -0.000940   0.000001
    49  C    0.010674  -0.080515  -0.018301   0.002564  -0.002577  -0.007978
    50  H   -0.002765   0.000181  -0.000828   0.000035   0.000344   0.000001
              25         26         27         28         29         30
     1  C    0.061695  -0.001284   0.000012   0.002206  -0.196171   0.003838
     2  C    0.349548  -0.084081  -0.000261   0.000005   0.553811  -0.000556
     3  C   -0.069205   0.083590   0.000359   0.004420  -2.413525  -0.016240
     4  C    0.034445   0.006961   0.000011  -0.007305   1.418260   0.031529
     5  C   -0.387795   0.002203  -0.000108   0.001504   0.167441  -0.027090
     6  H    0.000038  -0.000002  -0.000000  -0.000000  -0.002609  -0.002743
     7  H   -0.001438   0.000034  -0.000000  -0.000000  -0.003714  -0.000112
     8  H   -0.007794  -0.000117  -0.000000  -0.000002  -0.020258  -0.000117
     9  H   -0.003828  -0.000003   0.000000  -0.000000  -0.014734  -0.002661
    10  P   -0.335043   0.064294   0.001374   0.007183  -0.354652  -0.002159
    11  C   -0.004545  -0.009022   0.001196  -0.000772   0.074025  -0.000368
    12  C    0.040354  -0.000223   0.000994  -0.000131  -0.141536  -0.000082
    13  C    0.103538   0.004771  -0.005247   0.000759   0.187008   0.000399
    14  C   -0.051728   0.000250   0.000705   0.000010  -0.009856  -0.000005
    15  H   -0.000190   0.000000   0.000000   0.000000  -0.000093   0.000000
    16  C   -0.072330   0.002656   0.005473   0.000219  -0.088605   0.000019
    17  H   -0.002299  -0.000029  -0.000024  -0.000002  -0.000960   0.000000
    18  H    0.000002  -0.000000  -0.000000  -0.000000   0.000001   0.000000
    19  H   -0.000084   0.000000  -0.000000   0.000000  -0.000087   0.000000
    20  C    0.846291  -0.147820   0.098787   0.102591  -0.034249   0.000863
    21  C   -1.455334  -0.037851  -0.191276   0.029724  -0.040541   0.000088
    22  C   -3.436991   0.407768   0.032470  -0.173991   0.082903  -0.000514
    23  C    0.129801   0.009811   0.427831  -0.001116   0.020297  -0.000007
    24  H    0.000553  -0.000122  -0.002171   0.000011  -0.000085   0.000000
    25  C    9.764474   0.011116  -0.004136   0.406903   0.005060   0.000246
    26  H    0.011116   0.403318   0.000010  -0.002165  -0.010234  -0.000001
    27  H   -0.004136   0.000010   0.387265  -0.000052  -0.000006  -0.000000
    28  H    0.406903  -0.002165  -0.000052   0.386189  -0.001839   0.000000
    29  C    0.005060  -0.010234  -0.000006  -0.001839   6.490876   0.321517
    30  H    0.000246  -0.000001  -0.000000   0.000000   0.321517   0.432375
    31  O   -0.006894  -0.000836  -0.000005  -0.000006   0.024257  -0.000008
    32  C    0.180064  -0.017834   0.000630  -0.001549   0.228451   0.001067
    33  C    0.549280   0.019611   0.001118  -0.002725  -0.063448  -0.000829
    34  C    0.089826  -0.003937  -0.005990   0.001636   0.036208   0.000042
    35  C   -0.343880  -0.005676   0.000603   0.001197  -0.003082  -0.000066
    36  H   -0.000293  -0.001359  -0.000000  -0.000005  -0.001423  -0.000000
    37  C   -0.132926   0.002461   0.002872  -0.000040  -0.003733  -0.000001
    38  H    0.001554  -0.000002  -0.000003  -0.000000  -0.000015   0.000000
    39  H    0.000926  -0.000013   0.000000   0.000000   0.000023   0.000000
    40  H    0.000087  -0.000000   0.000000   0.000000  -0.000003  -0.000000
    41  C    0.000869  -0.000152  -0.000005  -0.000004   0.001837   0.000022
    42  H   -0.000192  -0.000000   0.000000   0.000000   0.002057  -0.000000
    43  H    0.000029   0.000000  -0.000000  -0.000000   0.000141  -0.000000
    44  H    0.000018   0.000000   0.000000   0.000000  -0.001690   0.000000
    45  N    0.474719   0.006604  -0.054451  -0.056000  -0.002239   0.000001
    46  H   -0.042293  -0.000086  -0.002586  -0.002559   0.000039   0.000000
    47  N    0.037159  -0.000312  -0.000247  -0.000119   0.001245   0.000000
    48  H   -0.000388   0.000000  -0.000000  -0.000000   0.000004  -0.000000
    49  C    0.022650  -0.000074  -0.000622  -0.000008   0.001069   0.000002
    50  H    0.000005   0.000000   0.000000   0.000000   0.000002  -0.000000
              31         32         33         34         35         36
     1  C   -0.076153  -1.572561   0.719630  -0.463239   0.125425  -0.035304
     2  C    0.384842   2.496959   0.402341  -0.684837  -0.466821  -0.063625
     3  C   -0.455023  -2.614609   0.520968  -0.305551   0.393527   0.056209
     4  C   -0.000915   0.551365  -1.208105   1.060399   0.070077   0.046455
     5  C   -0.020950  -0.043842   0.109039  -0.110326   0.002049  -0.000457
     6  H    0.000114  -0.002302   0.002784  -0.000095   0.000709   0.000003
     7  H    0.012962  -0.060041   0.072581  -0.017877   0.004822   0.000712
     8  H    0.001594   0.002927   0.002978  -0.004742   0.000397  -0.000003
     9  H    0.000028  -0.000731   0.000355  -0.000046  -0.000022   0.000000
    10  P   -0.822654  -2.369049  -0.972208  -1.886056   0.861280   0.002171
    11  C    0.243811  -1.666895  -1.153914   2.078445   0.348411  -0.001431
    12  C   -0.193157   3.052760   0.491070  -1.747418  -0.270492  -0.006883
    13  C    0.257956  -0.200264   0.147973  -0.338377   0.124770   0.005719
    14  C   -0.199405  -1.242405  -0.243567   0.600309   0.009415  -0.000622
    15  H    0.016570  -0.063294  -0.005876   0.051656   0.000287  -0.000001
    16  C   -0.132368  -0.718316  -0.011007   0.184539   0.006291   0.000306
    17  H    0.001229  -0.014343  -0.011258   0.018328   0.000196  -0.000001
    18  H    0.000269  -0.003850  -0.000295   0.002933   0.000007  -0.000000
    19  H    0.000027  -0.000703   0.000040  -0.000071  -0.000001  -0.000000
    20  C   -0.125589  -5.710895   2.345648   0.213784  -0.793580  -0.021054
    21  C    0.103285   0.549515  -5.564357   4.752291   1.123188  -0.006525
    22  C   -0.055075  -0.249377   4.159451  -3.345169  -0.865666   0.038060
    23  C    0.001192   0.370981   0.275566  -0.224708  -0.038235   0.001338
    24  H   -0.000454  -0.009439   0.007411   0.017472   0.002429  -0.000005
    25  C   -0.006894   0.180064   0.549280   0.089826  -0.343880  -0.000293
    26  H   -0.000836  -0.017834   0.019611  -0.003937  -0.005676  -0.001359
    27  H   -0.000005   0.000630   0.001118  -0.005990   0.000603  -0.000000
    28  H   -0.000006  -0.001549  -0.002725   0.001636   0.001197  -0.000005
    29  C    0.024257   0.228451  -0.063448   0.036208  -0.003082  -0.001423
    30  H   -0.000008   0.001067  -0.000829   0.000042  -0.000066  -0.000000
    31  O    9.244450   0.302910   0.245558  -0.088857  -0.004291  -0.001340
    32  C    0.302910  28.313788 -10.688531  -7.245495   3.057985   0.030967
    33  C    0.245558 -10.688531  30.763852  -6.387664  -7.780268   0.234556
    34  C   -0.088857  -7.245495  -6.387664  24.858587  -1.107993   0.011803
    35  C   -0.004291   3.057985  -7.780268  -1.107993  11.617231   0.000744
    36  H   -0.001340   0.030967   0.234556   0.011803   0.000744   0.411372
    37  C   -0.014424   1.401199  -1.906718  -4.748516   0.406095  -0.001189
    38  H   -0.002294   0.013467   0.029393   0.262620  -0.008362  -0.000069
    39  H   -0.000069   0.078529  -0.132576   0.008290   0.409413  -0.002612
    40  H   -0.000078   0.073441   0.010712  -0.127493   0.003385   0.000008
    41  C   -0.037128   0.007121   0.070097   0.032121  -0.020700  -0.000654
    42  H   -0.041897  -0.006154  -0.025276   0.016859   0.000923  -0.000008
    43  H   -0.052232  -0.007257   0.014490  -0.014622  -0.000371   0.000001
    44  H   -0.065468   0.022586   0.001389  -0.009468   0.000304  -0.000001
    45  N    0.000407  -0.061366  -0.015881  -0.014847   0.015814  -0.000033
    46  H    0.000000   0.001008  -0.000493   0.000337  -0.000128   0.000000
    47  N   -0.003681  -0.411119   0.309210   0.172821   0.061888   0.010575
    48  H    0.000030   0.022325  -0.001638   0.001220  -0.019861  -0.000089
    49  C    0.023582   0.244029   0.013827  -0.111862  -0.004304  -0.000007
    50  H   -0.000015   0.001533   0.000070  -0.001310  -0.000001   0.000000
              37         38         39         40         41         42
     1  C    0.014719  -0.000465   0.000055   0.000009  -0.027413  -0.029930
     2  C   -0.184579  -0.002728   0.000404   0.000136   0.060706  -0.015716
     3  C    0.341826  -0.003171  -0.001328  -0.000309  -0.166719   0.028832
     4  C   -0.009447   0.003579   0.000189  -0.000089  -0.000041   0.020316
     5  C    0.012014   0.000266  -0.000051   0.000016   0.028479  -0.001063
     6  H   -0.000024  -0.000000  -0.000000  -0.000000  -0.000450  -0.000011
     7  H   -0.000229  -0.000001  -0.000004   0.000000   0.000427   0.000114
     8  H   -0.000115  -0.000000  -0.000000  -0.000000  -0.000420  -0.000002
     9  H   -0.000000  -0.000000   0.000000  -0.000000   0.000058  -0.000000
    10  P    0.741683   0.049679   0.000134   0.008741  -0.219013   0.015178
    11  C   -0.074563   0.070457  -0.000064  -0.002520   0.198215  -0.019390
    12  C    0.080748  -0.073319   0.000201  -0.000100  -0.091231   0.015140
    13  C   -0.143492   0.036770  -0.000127   0.000623  -0.054673  -0.003251
    14  C    0.251137  -0.024817   0.000007  -0.000624  -0.045912   0.006118
    15  H    0.014258  -0.000351  -0.000000  -0.000000   0.002735   0.000039
    16  C    0.036285  -0.007423   0.000007  -0.000102   0.011552   0.000397
    17  H   -0.000614  -0.000000  -0.000000  -0.000000  -0.000063   0.000000
    18  H    0.000257  -0.000006  -0.000000  -0.000000   0.000140   0.000000
    19  H   -0.000033  -0.000000  -0.000000   0.000000   0.000108   0.000000
    20  C   -0.397381  -0.026043  -0.001289  -0.005591   0.068237   0.002857
    21  C   -0.790153   0.027018   0.000526   0.003275   0.007114   0.001549
    22  C    0.817205  -0.010062  -0.000115  -0.000294  -0.019509  -0.003111
    23  C   -0.014245   0.003435   0.000158   0.000389  -0.000687   0.000016
    24  H   -0.004582  -0.001399  -0.000000  -0.000045   0.000057   0.000000
    25  C   -0.132926   0.001554   0.000926   0.000087   0.000869  -0.000192
    26  H    0.002461  -0.000002  -0.000013  -0.000000  -0.000152  -0.000000
    27  H    0.002872  -0.000003   0.000000   0.000000  -0.000005   0.000000
    28  H   -0.000040  -0.000000   0.000000   0.000000  -0.000004   0.000000
    29  C   -0.003733  -0.000015   0.000023  -0.000003   0.001837   0.002057
    30  H   -0.000001   0.000000   0.000000  -0.000000   0.000022  -0.000000
    31  O   -0.014424  -0.002294  -0.000069  -0.000078  -0.037128  -0.041897
[...]
 03552935,-0.00319959,-0.04896012,-0.06513715,0.03278359,0.03487726,-0.
 15317709,0.02842807,-0.00296605,-0.00147922,0.00388643,0.09473500,-0.3
 1193229,0.04883925,-0.00365560,0.00009535,0.00325765,0.03658411,-0.002
 77642,-0.00648314,0.00160842,-0.00720146,0.00432784,0.00056080,0.00051
 407,0.00010531,-0.00010750,-0.00006011,0.00000828,-0.00007739,-0.00011
 863,-0.00003461,-0.00005348,-0.00005280,0.00004888,-0.00097328,0.00236
 358,0.00193856,-0.00026967,-0.00034091,-0.00022339,0.01941607,0.760288
 67,0.00003917,-0.00003524,-0.00003597,0.00003649,0.00014970,-0.0000971
 9,0.00019438,0.00012120,0.00028357,0.00002473,-0.00005203,0.00012719,0
 .00002221,-0.00000128,-0.00000633,0.00002843,-0.00001798,-0.00000372,-
 0.00001988,0.00001622,-0.00009006,-0.00003272,0.00000733,0.00002013,0.
 00001591,-0.00000706,-0.00001745,-0.00207840,-0.00253523,-0.00303969,0
 .00011693,0.00020254,0.00024338,0.00005449,0.00001731,-0.00018108,0.00
 000144,0.00000435,0.00007927,-0.00005134,0.00002945,0.00002567,0.00001
 652,-0.00000970,-0.00001742,-0.00001297,0.00006166,0.00001579,-0.00000
 699,-0.00006339,0.00011154,-0.00001975,0.00002635,-0.00000499,-0.00001
 261,0.00001131,-0.00001836,0.00296865,0.00301739,-0.00285922,-0.000452
 01,-0.00143241,-0.00033887,-0.00134800,-0.00124342,-0.00091499,-0.0004
 9785,0.00010663,0.00046176,-0.00001945,0.00022647,0.00010862,0.0005447
 1,-0.00044439,0.00065933,0.00018393,0.00007160,-0.00003883,0.00000154,
 -0.00006759,-0.00014031,-0.00005168,-0.00000765,-0.00019849,0.00003811
 ,-0.00003463,0.00000262,0.00001422,-0.00000472,-0.00000709,0.00039188,
 0.00040024,0.00055154,-0.00655915,-0.00350593,0.00041628,0.02096815,0.
 00108822,0.00657802,0.00353429,0.02429560,0.00421892,0.05489631,0.0158
 1366,-0.07678266,0.00288357,0.00501486,0.00652729,0.00308836,0.0704780
 9,-0.08001082,0.00465649,0.00322860,0.00649694,-0.01034859,0.00169904,
 0.00418691,0.00182218,-0.00786437,0.00430790,-0.00023624,-0.00019965,-
 0.00007446,0.00003695,0.00001511,-0.00000492,0.00002658,0.00004189,0.0
 0001620,0.00002394,0.00002576,-0.00001287,-0.00025816,-0.00013020,-0.0
 0070288,0.00005958,0.00009700,0.00010259,-0.18699653,-0.22813607,0.222
 65825,0.00002150,-0.00002919,-0.00001352,-0.00001265,0.00003765,-0.000
 07817,0.00007870,0.00008699,0.00006377,0.00002574,-0.00001974,0.000044
 78,0.00000176,-0.00000838,-0.00000530,0.00000775,-0.00000791,-0.000001
 91,0.00000021,0.00000796,0.00002162,-0.00001193,0.00000123,0.00001092,
 0.00000695,-0.00000391,-0.00000660,-0.00080772,-0.00099862,-0.00093630
 ,0.00003846,0.00005994,0.00007433,0.00000743,-0.00000638,-0.00006474,0
 .00000781,0.00001039,0.00004703,-0.00000504,0.00001262,0.00000720,0.00
 000294,-0.00000794,-0.00000440,-0.00001486,0.00002359,-0.00000142,-0.0
 0000049,-0.00002450,0.00003476,-0.00000646,0.00001015,-0.00000098,-0.0
 0000412,0.00000524,-0.00000776,0.00127174,0.00113074,-0.00112709,-0.00
 020227,-0.00046607,-0.00036030,-0.00039780,-0.00035783,-0.00043433,-0.
 00016932,0.00019753,0.00036698,0.00001220,0.00007405,0.00003443,0.0001
 4251,-0.00018303,0.00026848,0.00007780,0.00005145,-0.00005190,0.000011
 67,0.00000131,-0.00007388,-0.00001725,-0.00000822,-0.00006733,0.000021
 94,-0.00000550,0.00000811,0.00000506,-0.00000034,-0.00000009,0.0002056
 7,0.00022942,0.00019618,-0.00154426,0.00069721,0.00233015,-0.00347353,
 0.00478629,0.00029009,0.00209159,0.00494600,-0.00026976,-0.01844856,-0
 .02334581,0.01278010,-0.00038540,-0.00087101,0.00064109,0.01409794,0.0
 0753881,-0.00790058,0.00069311,0.00067591,-0.00002860,0.00066823,-0.00
 020781,-0.00090146,0.00020893,-0.00001634,-0.00108652,-0.00009591,-0.0
 0007535,-0.00000758,0.00001636,0.00000807,0.00000119,0.00001565,0.0000
 1823,0.00000649,0.00000861,0.00001032,-0.00000815,-0.00004889,-0.00021
 824,-0.00028841,0.00004125,0.00005530,0.00003389,-0.22391812,-0.154612
 58,0.11234173,0.22978614,0.00001183,-0.00000111,-0.00001109,-0.0000133
 4,0.00003887,-0.00004333,0.00007147,0.00004930,0.00008922,0.00001100,-
 0.00001603,0.00005749,0.00001540,-0.00000777,-0.00000709,0.00001067,-0
 .00000647,-0.00000035,-0.00001805,-0.00000117,-0.00002482,-0.00001318,
 0.00000114,0.00000793,0.00000704,-0.00000255,-0.00000746,-0.00083194,-
 0.00103168,-0.00104381,0.00007232,0.00007892,0.00008453,-0.00000006,0.
 00000763,-0.00006728,-0.00001268,0.00002095,0.00001354,-0.00002939,0.0
 0002603,-0.00000449,0.00001088,-0.00000061,0.00000511,-0.00000397,0.00
 000446,0.00000143,-0.00000048,-0.00002644,0.00003877,-0.00000703,0.000
 00957,-0.00000194,-0.00000447,0.00000563,-0.00000710,0.00111748,0.0014
 9217,-0.00117160,-0.00024968,-0.00046899,-0.00038537,-0.00039864,-0.00
 045299,-0.00045976,-0.00020466,0.00006557,0.00032020,0.00002670,0.0000
 9766,-0.00006067,0.00027634,-0.00012312,0.00040439,0.00006855,0.000037
 35,-0.00002362,0.00000278,-0.00000987,-0.00006689,-0.00000358,0.000010
 49,-0.00008369,0.00001716,-0.00001085,-0.00000540,0.00000640,-0.000001
 52,-0.00000297,0.00021585,0.00022704,0.00020551,0.00040078,-0.00119653
 ,0.00250633,0.00463460,0.00265037,0.00003755,0.00510937,-0.00278614,0.
 00098650,0.00585979,0.01281204,-0.00760427,0.00060348,0.00067357,0.000
 05187,-0.02186643,-0.01886372,0.01204174,-0.00078970,-0.00035157,0.000
 69516,0.00003655,0.00009298,-0.00121873,-0.00026943,0.00055841,-0.0011
 7163,-0.00009497,-0.00008037,-0.00000280,0.00001690,0.00000725,0.00000
 124,0.00001522,0.00001837,0.00000648,0.00000906,0.00001075,-0.00000840
 ,-0.00020231,-0.00014957,-0.00031821,0.00004260,0.00006867,0.00003270,
 -0.15442984,-0.23264197,0.11948198,0.16078284,0.23914145,-0.00002634,0
 .00001654,0.00001425,0.00000236,-0.00000142,0.00004926,-0.00003102,-0.
 00007161,-0.00009561,-0.00002193,0.00000717,-0.00001141,0.00001796,-0.
 00000418,0.00000553,-0.00000423,0.00000822,0.00000369,0.00000611,-0.00
 001277,-0.00000439,0.00000654,-0.00000289,-0.00000314,-0.00000286,0.00
 000150,0.00000304,0.00034555,0.00045802,0.00036514,-0.00003848,-0.0000
 7356,-0.00007146,0.00000745,-0.00000803,0.00006191,-0.00001005,0.00000
 129,-0.00001979,0.00001648,-0.00001646,-0.00000352,-0.00000844,0.00000
 401,-0.00000090,0.00000237,-0.00000030,-0.00000151,-0.00000157,0.00001
 106,-0.00001401,0.00000767,-0.00000480,0.00000165,0.00000299,-0.000001
 32,0.00000274,-0.00044628,-0.00056225,0.00023972,0.00001878,0.00012244
 ,0.00005504,0.00014514,0.00008780,0.00010060,0.00002322,-0.00003198,-0
 .00010663,-0.00000706,-0.00005047,-0.00001491,-0.00008720,-0.00000304,
 -0.00014514,-0.00002862,0.00000109,-0.00002825,-0.00000173,0.00000445,
 0.00000807,0.00000143,-0.00000367,0.00001761,-0.00000641,0.00001603,-0
 .00002509,-0.00000313,-0.00000086,0.00000013,-0.00013334,-0.00014897,-
 0.00017499,0.00023254,0.00020354,-0.00171595,0.00021426,-0.00034756,0.
 00499058,-0.00084419,0.00082350,0.00511993,0.00085352,0.00003547,-0.00
 324150,0.00014148,0.00040743,0.00094552,0.00188663,0.00213914,-0.00429
 928,0.00048047,0.00026203,0.00094851,-0.00088076,-0.00123548,-0.002219
 01,-0.00109577,-0.00113099,-0.00231789,0.00005848,0.00004677,0.0000212
 6,-0.00001005,-0.00000453,0.00000157,-0.00000813,-0.00001112,-0.000003
 00,-0.00000574,-0.00000720,0.00000646,0.00005938,0.00003614,0.00012485
 ,-0.00000463,-0.00000846,-0.00002496,0.11503487,0.12233141,-0.09256790
 ,-0.11586177,-0.12327210,0.09402602,-0.00002912,0.00002871,-0.00000613
 ,-0.00005544,-0.00003407,0.00010898,0.00000520,0.00028582,-0.00011303,
 -0.00000940,-0.00004275,-0.00018764,0.00004015,0.00002857,0.00005527,-
 0.00001336,0.00000125,-0.00000014,0.00001521,0.00000348,0.00000303,0.0
 0005074,-0.00005141,0.00004091,-0.00000929,0.00000321,0.00000492,-0.00
 012644,-0.00103862,0.00088063,-0.00797825,0.00104667,0.00964160,0.0085
 6344,-0.00454032,-0.01825456,-0.00528407,0.02397763,-0.00110816,-0.084
 25683,0.02862266,-0.04119341,0.00478374,0.00539810,-0.00126117,-0.1078
 4729,0.08446577,0.05760826,0.00525681,0.00458661,-0.00194755,0.0054632
 0,-0.00115512,0.01144382,0.00525490,-0.00267194,-0.00299400,0.00003489
 ,0.00028950,-0.00015056,0.00006467,0.00017899,0.00012751,0.00005916,-0
 .00007151,-0.00007668,0.00001463,-0.00013150,-0.00020776,-0.00003920,0
 .00002313,0.00000726,0.00006632,-0.00001081,0.00008423,0.00001055,0.00
 001640,-0.00000774,0.00000407,0.00001212,0.00000033,-0.00000201,0.0000
 0491,0.00000513,-0.00001870,-0.00001859,-0.00003154,-0.00000128,-0.000
 00059,0.00000377,-0.00022577,0.00013967,-0.00017502,-0.00008398,-0.000
 12765,0.00021852,0.00000930,0.00005475,-0.00003271,0.00006766,-0.00002
 130,0.00001573,-0.00006165,-0.00002120,0.00002491,-0.00000237,0.000001
 78,-0.00000698,-0.00001591,-0.00006510,0.00003403,-0.00002811,0.000014
 44,-0.00002235,0.00000166,0.00000123,-0.00000266,0.00000121,0.00000378
 ,-0.00000354,0.00018113,0.00008319,0.00000889,-0.00002231,-0.00003150,
 0.00002663,-0.00000389,-0.00000763,0.00000238,-0.00000525,-0.00002902,
 0.00006869,-0.00010903,0.00013754,0.00008554,-0.00001388,-0.00001116,-
 0.00000873,0.00004825,0.00005420,-0.00002208,-0.00000886,-0.00000772,0
 .00000386,0.28040862,0.00005425,-0.00000382,0.00000374,0.00000856,-0.0
 0004232,-0.00012248,0.00003688,-0.00012625,0.00011498,0.00001981,-0.00
 003615,0.00004214,-0.00001746,-0.00002769,0.00003809,0.00001765,-0.000
 00015,-0.00000276,-0.00000833,-0.00000581,-0.00000429,-0.00005606,0.00
 000620,0.00010540,0.00000961,-0.00000515,-0.00001478,-0.00077282,0.000
 92661,-0.00166473,0.00069956,-0.01237815,-0.02448865,-0.00750140,0.025
 56635,0.03221552,0.02689958,-0.04330039,0.01023410,0.03280690,-0.12319
 525,0.04830545,0.00526174,-0.00225633,0.00131075,0.08018864,-0.2340702
 8,-0.12677487,0.00493978,-0.00132029,0.00235056,-0.00280448,0.00684306
 ,-0.02353780,-0.00074913,0.00633679,0.00379199,-0.00002045,-0.00052939
 ,0.00037546,-0.00003238,-0.00002391,-0.00014439,-0.00007666,-0.0000300
 1,-0.00002677,0.00001114,0.00014248,0.00008734,-0.00000672,0.00005110,
 0.00001192,0.00003537,0.00004254,-0.00005410,-0.00001293,-0.00001829,0
 .00002836,-0.00001369,-0.00001834,0.00000481,-0.00000510,-0.00000405,-
 0.00001192,0.00002839,-0.00002885,0.00001636,0.00001217,0.,0.00000080,
 0.00041802,-0.00024999,-0.00001212,0.00037518,-0.00011533,-0.00058648,
 -0.00013363,-0.00015279,0.00012691,-0.00006337,0.00008674,-0.00003151,
 0.00017753,0.00000946,-0.00001712,0.00000196,0.00000465,-0.00000585,-0
 .00000435,0.00012854,-0.00002588,-0.00004904,0.00002053,-0.00000420,-0
 .00001233,-0.00000745,0.00000102,-0.00000194,-0.00000345,0.00000381,-0
 .00031915,-0.00007416,-0.00008399,0.00002248,0.00001351,-0.00002959,0.
 00000672,0.00000867,0.00001073,0.00001976,0.00002915,-0.00004657,0.000
 03306,-0.00009554,-0.00008643,0.00000327,-0.00000061,0.00001940,-0.000
 10284,-0.00005727,0.00002840,0.00000914,0.00001853,-0.00000639,-0.2504
 7599,0.62220384,0.00003806,-0.00002229,-0.00004013,-0.00001748,-0.0000
 0480,0.00002663,0.00022041,-0.00000399,-0.00005850,-0.00002928,-0.0001
 2616,0.00019314,-0.00010836,-0.00004169,-0.00004441,-0.00000262,0.0000
 0734,0.00000132,0.00000400,-0.00001306,-0.00000163,0.00014272,0.000066
 14,0.00003603,-0.00000513,-0.00000579,-0.00000060,0.00160687,-0.003211
 60,-0.00197272,0.00862036,-0.02433590,-0.06311183,-0.04221073,0.078586
 21,-0.01117994,0.02350198,-0.03586919,0.07154872,-0.00797652,-0.014786
 26,-0.35267229,-0.00134979,0.00110960,0.00106551,0.02433652,-0.0634693
 8,-0.21435358,-0.00219910,0.00273328,-0.00045447,-0.00329730,0.0043519
 8,-0.01319148,0.01180501,-0.02413236,-0.01254647,0.00006949,-0.0006890
 6,0.00013483,-0.00017049,-0.00016229,-0.00014685,-0.00005334,0.0000353
 4,0.00014007,-0.00000431,0.00013145,0.00019070,0.00003799,0.00001931,-
 0.00005526,-0.00010712,0.00002065,-0.00017607,-0.00001564,-0.00002408,
 0.00002385,-0.00001403,-0.00001868,0.00002236,0.00000690,0.00000607,-0
 .00001236,0.00000815,-0.00001519,0.00006528,0.00000493,0.00001790,0.00
 000554,-0.00044145,0.00031113,-0.00060991,-0.00005371,0.00020078,-0.00
 054506,0.00016792,-0.00004007,0.00005188,0.00004878,0.00023273,-0.0001
 7018,0.00005615,0.00008304,-0.00002842,-0.00000227,-0.00000433,0.00000
 699,-0.00007769,0.00001917,0.00004204,-0.00023320,0.00001423,0.0000632
 0,0.00001318,0.00000583,-0.00001219,0.00000810,0.00001660,-0.00000716,
 0.00000329,0.00029832,0.00004024,-0.00003288,0.00001952,-0.00011471,-0
 .00000706,-0.00002257,-0.00003148,0.00014038,0.00013012,-0.00010183,0.
 00017908,-0.00016077,-0.00007951,0.00001138,0.00000061,0.00000436,-0.0
 0003401,0.00010554,-0.00002890,-0.00001222,0.00000613,-0.00000384,0.03
 846746,-0.01213786,0.70367968,-0.00002028,-0.00000313,-0.00001190,-0.0
 0002984,0.00002077,0.00005421,-0.00001500,0.00016762,-0.00014565,0.000
 01291,-0.00002611,0.00001833,-0.00000958,-0.00001118,-0.00001165,-0.00
 000791,0.00000099,0.00000086,0.00000460,0.00000289,0.00000084,0.000027
 22,0.00000286,-0.00000868,-0.00000236,0.00000120,0.00000316,-0.0007642
 7,-0.00066972,0.00020636,-0.00068152,-0.00039488,0.00033471,0.00647033
 ,0.00258466,-0.00064722,0.00564062,0.00395329,0.00131537,0.00393392,0.
 00268028,-0.00005050,-0.00030081,-0.00006546,0.00004517,0.00069115,0.0
 0813575,-0.00538245,-0.00049216,0.00020052,-0.00030659,-0.00314688,-0.
 00201708,0.00014632,-0.00301095,-0.00210041,0.00023096,0.00002895,0.00
 007417,-0.00002820,0.00003141,0.00001249,0.00001016,-0.00000011,-0.000
 00302,-0.00001444,-0.00000184,-0.00002925,-0.00003206,-0.00000841,0.00
 000151,0.00000441,0.00000381,-0.00001267,0.00001270,0.00000230,0.00000
 377,-0.00000305,0.00000118,0.00000024,-0.00000217,0.00000023,0.0000011
 8,-0.00000018,-0.00000715,0.00000751,0.00000011,-0.00000064,0.00000471
 ,0.00000146,-0.00008510,0.00001301,-0.00015092,0.00009500,-0.00015567,
 0.00016327,-0.00004972,0.00000733,0.00000693,0.00004680,0.00000629,-0.
 00002225,-0.00000171,-0.00002286,0.00000573,0.00000014,0.,-0.00000004,
 -0.00000990,-0.00001705,0.00000932,-0.00000655,0.00000008,-0.00000448,
 -0.00000433,-0.00000230,0.00000060,0.00000003,-0.00000096,0.00000113,0
 .00005897,0.00004691,0.00001569,-0.00000808,-0.00000456,-0.00000160,-0
 .00000183,-0.00000225,-0.00000334,0.00001043,0.00000304,0.00002033,-0.
 00001708,0.00002452,0.00001890,-0.00000167,-0.00000164,-0.00000391,0.0
 0000898,0.00002123,-0.00000749,-0.00000221,-0.00000150,0.00000021,-0.1
 0415382,0.11114312,-0.05104336,0.09577274,0.00000148,-0.00000418,0.000
 00342,0.00000010,0.00000702,-0.00000934,-0.00000681,0.00001263,-0.0000
 2610,0.00000440,0.00000844,-0.00002044,0.00000976,-0.00001616,0.000016
 25,0.00000226,-0.00000181,0.00000032,-0.00000170,0.00000135,0.00000051
 ,-0.00004634,0.00000791,0.00002739,0.00000233,-0.00000026,-0.00000255,
 -0.00063696,0.00011310,-0.00009397,-0.00046785,-0.00007796,-0.00041428
 ,0.00256652,0.00293436,-0.00022228,0.00389159,-0.00019618,-0.00356886,
 0.00111455,0.00308206,-0.00158753,-0.00014489,-0.00009154,-0.00011867,
 0.00985056,-0.01219016,0.01078540,0.00027942,-0.00080610,0.00056516,-0
 .00197360,-0.00043322,0.00033672,-0.00213269,-0.00004140,0.00014396,-0
 .00002742,-0.00006270,0.00008907,-0.00000613,-0.00001176,-0.00001879,-
 0.00001971,0.00000936,-0.00000759,0.00000407,0.00003498,0.00003555,0.0
 0001569,-0.00000344,0.00000364,0.00000623,0.00000662,-0.00001136,-0.00
 000164,-0.00000347,0.00000356,-0.00000126,-0.00000430,-0.00000209,-0.0
 0000197,-0.00000243,-0.00000195,0.00000725,-0.00000117,-0.00000693,0.0
 0000398,-0.00000072,0.00000129,0.00009901,-0.00001822,0.00009929,0.000
 17230,-0.00012788,-0.00004514,-0.00007264,-0.00005902,0.00004674,-0.00
 003670,-0.00000349,0.00000719,0.00005837,-0.00001040,-0.00000955,0.000
 00154,0.00000199,-0.00000002,0.00001241,0.00004260,-0.00001405,0.00001
 792,0.00001186,-0.00001293,-0.00000608,-0.00000406,0.00000291,-0.00000
 164,-0.00000177,0.00000344,-0.00004365,-0.00003355,-0.00001776,0.00000
 894,-0.00000063,0.00000347,0.00000327,0.00000678,0.00000205,-0.0000089
 7,0.00000208,0.00000333,0.00001038,-0.00002702,-0.00002411,0.00000364,
 0.00000140,0.00000581,-0.00003678,-0.00003603,0.00001495,0.00000635,0.
 00000586,-0.00000264,0.11110141,-0.24426128,0.09076831,-0.12358027,0.2
 5224189,-0.00000503,0.00000183,-0.00000259,-0.00001631,0.00000084,0.00
 002277,0.00000084,0.00004287,-0.00003564,0.00000469,0.00000616,-0.0000
 2451,0.00000220,-0.00000277,0.00001083,-0.00000304,0.00000131,0.000000
 98,0.00000292,-0.00000111,0.00000296,-0.00002330,0.00000035,0.00000746
 ,-0.00000132,0.00000034,0.00000106,0.00008439,-0.00024453,-0.00001154,
 0.00022373,-0.00043589,-0.00078391,-0.00050035,-0.00043725,-0.00571930
 ,0.00116511,-0.00335883,-0.00198308,-0.01442335,0.02618327,-0.00645704
 ,-0.00068009,0.00123439,-0.00034820,0.00930455,-0.01684890,0.01192824,
 0.00047846,-0.00083184,0.00044237,0.00042605,-0.00022450,0.00127640,-0
 .00006189,0.00070051,0.00084414,0.00000689,0.00001737,-0.00002633,-0.0
 0000734,-0.00000396,0.00000275,0.00000633,0.00000774,0.00001883,0.0000
 0117,0.00000897,0.00001496,0.00000146,-0.00000207,-0.00000329,-0.00001
 108,0.00000510,-0.00000408,-0.00000050,0.00000016,-0.00000056,0.000000
 08,0.00000023,0.00000164,0.00000100,0.00000080,0.00000122,-0.00000237,
 0.00000003,-0.00000086,-0.00000030,-0.00000042,0.00000136,-0.00014784,
 0.00014466,0.00001384,-0.00002592,0.00003718,0.00001620,0.00002279,0.0
 0000697,-0.00001101,0.00001698,0.00000230,-0.00000094,-0.00001259,0.00
 000489,-0.00000253,-0.00000053,-0.00000027,0.00000104,-0.00000576,-0.0
 0001019,0.00000319,-0.00001944,-0.00000805,0.00000693,0.00000220,0.000
 00153,-0.00000042,0.00000080,0.00000144,-0.00000092,0.00007739,0.00003
 224,0.00002527,-0.00000832,0.00000259,-0.00000505,0.00000074,-0.000006
 58,-0.00000084,0.00001357,0.00000301,-0.00000225,0.00000980,-0.0000069
 2,-0.00000311,0.00000027,-0.00000056,0.00000048,0.00000776,0.00001380,
 -0.00000427,-0.00000224,-0.00000092,0.00000097,-0.05115818,0.09069350,
 -0.10559056,0.05525489,-0.09673081,0.10637691\\0.00000443,0.00001466,-
 0.00000064,-0.00001384,-0.00000526,0.00002553,-0.00013497,-0.00032832,
 -0.00009297,0.00002047,-0.00004604,-0.00002454,-0.00000135,0.00001347,
 0.00000798,0.00000341,0.00001152,0.00000641,0.00001944,-0.00000024,-0.
 00004657,-0.00010398,-0.00000870,-0.00003594,0.00000335,0.00000083,-0.
 00000466,0.00024155,-0.00024660,-0.00022876,0.00002286,0.00001671,-0.0
 0000309,0.00000153,0.00001074,0.00015976,-0.00007932,0.00011030,0.0000
 4287,-0.00001593,0.00001385,-0.00000759,-0.00003386,-0.00000310,0.0000
 0341,-0.00000474,-0.00000032,-0.00000075,0.00018457,-0.00001399,0.0000
 0181,0.00001237,-0.00000439,-0.00000585,-0.00000921,-0.00001011,-0.000
 00768,-0.00021407,-0.00016204,0.00018173,-0.00003689,-0.00001998,0.000
 01487,0.00010653,0.00019485,-0.00005257,-0.00004114,0.00003306,-0.0000
 8333,-0.00003037,-0.00012081,0.00002437,0.00000536,0.00008997,0.000071
 56,0.00006051,0.00012119,0.00011616,0.00002403,-0.00000948,-0.00000314
 ,0.00000303,-0.00002509,0.00000845,-0.00001374,0.00002100,0.00000475,0
 .00000913,-0.00001030,-0.00000901,-0.00012449,0.00013025,-0.00011104,0
 .00004655,0.00004937,-0.00002191,-0.00019317,0.00001131,0.00005151,0.0
 0001902,0.00007516,-0.00014261,0.00002897,0.00003897,-0.00004354,0.000
 02799,-0.00000791,-0.00004290,-0.00001318,-0.00000964,0.00000575,-0.00
 006276,-0.00003465,0.00007450,0.00000616,-0.00000562,0.00001552,-0.000
 01814,0.00000723,-0.00000132,-0.00003037,0.00002907,0.00007403,0.00000
 114,0.00005815,0.00001659,0.00010792,0.00000456,0.00001707,0.00007536,
 0.00009112,0.00008020,0.00008955,-0.00005645,-0.00005133,0.00003459,-0
 .00001044,0.00000497,0.00005381,0.00000566,0.00007587,-0.00002693,-0.0
 0001854,-0.00005153,0.00000161,0.00000889,0.00000220,-0.00001277,-0.00
 000388,-0.00001457\\\@


 "WHERE SHALL I START, PLEASE YOUR MAJESTY?" HE ASKED.
 "BEGIN AT THE BEGINNING," THE KING SAID GRAVELY,
 "AND GO ON TILL YOU COME TO THE END: THEN STOP." 

                                      -- LEWIS CARROLL
 Job cpu time:       1 days 10 hours 57 minutes  3.2 seconds.
 Elapsed time:       0 days  1 hours 27 minutes 34.1 seconds.
 File lengths (MBytes):  RWF=   2304 Int=      0 D2E=      0 Chk=     48 Scr=     16
 Normal termination of Gaussian 16 at Sat Mar 31 12:15:55 2018.
