Job Start Time: Sat Mar 31 10:48:19 MDT 2018
SLURM Job ID: 740960
SLURM Job Name: TS_Int3_Phax_Phat_SMD_c_BER4
 Entering Gaussian System, Link 0=/projects/user/g16/g16
 Initial command:
 /projects/user/g16/l1.exe "/gpfs/summit/scratch/user/740960/Gau-36132.inp" -scrdir="/gpfs/summit/scratch/user/740960/"
 Entering Link 1 = /projects/user/g16/l1.exe PID=     36133.
  
 Copyright (c) 1988,1990,1992,1993,1995,1998,2003,2009,2016,
            Gaussian, Inc.  All Rights Reserved.
  
 This is part of the Gaussian(R) 16 program.  It is based on
 the Gaussian(R) 09 system (copyright 2009, Gaussian, Inc.),
 the Gaussian(R) 03 system (copyright 2003, Gaussian, Inc.),
 the Gaussian(R) 98 system (copyright 1998, Gaussian, Inc.),
 the Gaussian(R) 94 system (copyright 1995, Gaussian, Inc.),
 the Gaussian 92(TM) system (copyright 1992, Gaussian, Inc.),
 the Gaussian 90(TM) system (copyright 1990, Gaussian, Inc.),
 the Gaussian 88(TM) system (copyright 1988, Gaussian, Inc.),
 the Gaussian 86(TM) system (copyright 1986, Carnegie Mellon
 University), and the Gaussian 82(TM) system (copyright 1983,
 Carnegie Mellon University). Gaussian is a federally registered
 trademark of Gaussian, Inc.
  
 This software contains proprietary and confidential information,
 including trade secrets, belonging to Gaussian, Inc.
  
 This software is provided under written license and may be
 used, copied, transmitted, or stored only in accord with that
 written license.
  
 The following legend is applicable only to US Government
 contracts under FAR:
  
                    RESTRICTED RIGHTS LEGEND
  
 Use, reproduction and disclosure by the US Government is
 subject to restrictions as set forth in subparagraphs (a)
 and (c) of the Commercial Computer Software - Restricted
 Rights clause in FAR 52.227-19.
  
 Gaussian, Inc.
 340 Quinnipiac St., Bldg. 40, Wallingford CT 06492
  
  
 ---------------------------------------------------------------
 Warning -- This program may not be used in any manner that
 competes with the business of Gaussian, Inc. or will provide
 assistance to any competitor of Gaussian, Inc.  The licensee
 of this program is prohibited from giving any competitor of
 Gaussian, Inc. access to this program.  By using this program,
 the user acknowledges that Gaussian, Inc. is engaged in the
 business of creating and licensing software in the field of
 computational chemistry and represents and warrants to the
 licensee that it is not a competitor of Gaussian, Inc. and that
 it will not use this program in any manner prohibited above.
 ---------------------------------------------------------------
  

 Cite this work as:
 Gaussian 16, Revision A.03,
 M. J. Frisch, G. W. Trucks, H. B. Schlegel, G. E. Scuseria, 
 M. A. Robb, J. R. Cheeseman, G. Scalmani, V. Barone, 
 G. A. Petersson, H. Nakatsuji, X. Li, M. Caricato, A. V. Marenich, 
 J. Bloino, B. G. Janesko, R. Gomperts, B. Mennucci, H. P. Hratchian, 
 J. V. Ortiz, A. F. Izmaylov, J. L. Sonnenberg, D. Williams-Young, 
 F. Ding, F. Lipparini, F. Egidi, J. Goings, B. Peng, A. Petrone, 
 T. Henderson, D. Ranasinghe, V. G. Zakrzewski, J. Gao, N. Rega, 
 G. Zheng, W. Liang, M. Hada, M. Ehara, K. Toyota, R. Fukuda, 
 J. Hasegawa, M. Ishida, T. Nakajima, Y. Honda, O. Kitao, H. Nakai, 
 T. Vreven, K. Throssell, J. A. Montgomery, Jr., J. E. Peralta, 
 F. Ogliaro, M. J. Bearpark, J. J. Heyd, E. N. Brothers, K. N. Kudin, 
 V. N. Staroverov, T. A. Keith, R. Kobayashi, J. Normand, 
 K. Raghavachari, A. P. Rendell, J. C. Burant, S. S. Iyengar, 
 J. Tomasi, M. Cossi, J. M. Millam, M. Klene, C. Adamo, R. Cammi, 
 J. W. Ochterski, R. L. Martin, K. Morokuma, O. Farkas, 
 J. B. Foresman, and D. J. Fox, Gaussian, Inc., Wallingford CT, 2016.
 
 ******************************************
 Gaussian 16:  ES64L-G16RevA.03 25-Dec-2016
                31-Mar-2018 
 ******************************************
 %chk=T21jjrq45.chk
 %nprocshared=24
 Will use up to   24 processors via shared memory.
 %mem=98GB
 ----------------------------------------------------------------------
 # freq=noraman wb97xd/6-31+g(d) scrf=(solvent=ethanol,smd) geom=connec
 tivity
 ----------------------------------------------------------------------
 1/10=4,30=1,38=1,57=2/1,3;
 2/12=2,17=6,18=5,40=1/2;
 3/5=1,6=6,7=11,11=2,25=1,30=1,70=32201,71=2,72=4,74=-58,140=1/1,2,3;
 4//1;
 5/5=2,38=5,53=4,98=1/2;
 8/6=4,10=90,11=11/1;
 11/6=1,8=1,9=11,15=111,16=1/1,2,10;
 10/6=1/2;
 6/7=2,8=2,9=2,10=2,28=1/1;
 7/8=1,10=1,25=1/1,2,3,16;
 1/10=4,30=1/3;
 99//99;
 -------------------
 Title Card Required
 -------------------
 Symbolic Z-matrix:
 Charge =  2 Multiplicity = 1
 C                     1.2177    4.12926  -0.45419 
 C                     0.78451   2.88961  -0.91624 
 C                     0.29816   1.93295  -0.014 
 C                     0.24356   2.23894   1.35159 
 C                     0.65426   3.48792   1.80292 
 H                     1.6063    4.85668  -1.16062 
 H                     0.83532   2.67058  -1.97776 
 H                    -0.09064   1.50456   2.07453 
 H                     0.60084   3.71617   2.86322 
 P                    -0.25348   0.3571   -0.72785 
 C                    -1.90052  -0.25313  -0.17145 
 C                    -2.62349  -1.06782  -1.04763 
 C                    -2.48609   0.14446   1.03102 
 C                    -3.88458  -1.49936  -0.68489 
 H                    -2.23257  -1.36421  -2.01422 
 C                    -3.75683  -0.29581   1.34108 
 H                    -1.9832    0.78385   1.74308 
 H                    -4.50009  -2.14145  -1.30179 
 H                    -4.27789  -0.02985   2.25199 
 C                     0.73198  -0.85354   0.94732 
 C                     0.01584  -1.92374   1.49026 
 C                     1.82951  -0.35729   1.6532 
 C                     0.34699  -2.44325   2.74109 
 H                    -0.80692  -2.37974   0.94348 
 C                     2.16878  -0.87093   2.90275 
 H                     2.4385    0.43984   1.23185 
 H                    -0.22911  -3.26792   3.15297 
 H                     3.02098  -0.46373   3.44089 
 C                     1.14594   4.43305   0.90306 
 H                     1.47623   5.40386   1.26152 
 O                    -0.70326   0.82774  -2.23915 
 C                     0.99009  -0.82471  -1.09337 
 C                     2.33285  -0.3506   -1.35355 
 C                     0.70858  -2.16759  -1.54843 
 C                     3.30659  -1.23737  -1.68483 
 H                     2.59277   0.69587  -1.24901 
 C                     1.73635  -2.99481  -1.87047 
 H                    -0.29932  -2.5594   -1.57983 
 H                     4.33698  -0.94208  -1.84257 
 H                     1.58503  -4.02713  -2.1621 
 C                    -1.77526   1.74695  -2.50259 
 H                    -1.44615   2.40541  -3.30878 
 H                    -2.65691   1.18391  -2.82184 
 H                    -2.02474   2.34971  -1.62332 
 N                    -4.40301  -1.10371   0.48644 
 H                    -5.33992  -1.4223    0.73311 
 C                     1.42183  -1.91277   3.45431 
 H                     1.68687  -2.31991   4.42637 
 N                     3.02202  -2.55207  -1.87915 
 H                     3.76228  -3.18331  -2.16303 
 

 GradGradGradGradGradGradGradGradGradGradGradGradGradGradGradGradGradGrad
 Berny optimization.
 Initialization pass.
 Trust Radius=3.00D-01 FncErr=1.00D-07 GrdErr=1.00D-07 EigMax=2.50D+02 EigMin=1.00D-04
 Number of steps in this run=      2 maximum allowed number of steps=      2.
 GradGradGradGradGradGradGradGradGradGradGradGradGradGradGradGradGradGrad

                          Input orientation:                          
 ---------------------------------------------------------------------
 Center     Atomic      Atomic             Coordinates (Angstroms)
 Number     Number       Type             X           Y           Z
 ---------------------------------------------------------------------
      1          6           0        1.217703    4.129264   -0.454185
      2          6           0        0.784513    2.889606   -0.916237
      3          6           0        0.298161    1.932949   -0.013996
      4          6           0        0.243563    2.238939    1.351586
      5          6           0        0.654259    3.487924    1.802915
      6          1           0        1.606303    4.856678   -1.160621
      7          1           0        0.835316    2.670575   -1.977764
      8          1           0       -0.090643    1.504559    2.074530
      9          1           0        0.600836    3.716172    2.863217
     10         15           0       -0.253483    0.357099   -0.727852
     11          6           0       -1.900522   -0.253133   -0.171447
     12          6           0       -2.623485   -1.067818   -1.047627
     13          6           0       -2.486094    0.144460    1.031021
     14          6           0       -3.884581   -1.499358   -0.684889
     15          1           0       -2.232565   -1.364208   -2.014215
     16          6           0       -3.756825   -0.295814    1.341082
     17          1           0       -1.983201    0.783853    1.743075
     18          1           0       -4.500089   -2.141447   -1.301787
     19          1           0       -4.277893   -0.029852    2.251987
     20          6           0        0.731983   -0.853537    0.947324
     21          6           0        0.015839   -1.923738    1.490256
     22          6           0        1.829510   -0.357285    1.653196
     23          6           0        0.346987   -2.443253    2.741091
     24          1           0       -0.806918   -2.379739    0.943477
     25          6           0        2.168778   -0.870926    2.902752
     26          1           0        2.438501    0.439835    1.231854
     27          1           0       -0.229109   -3.267925    3.152967
     28          1           0        3.020979   -0.463727    3.440890
     29          6           0        1.145936    4.433050    0.903063
     30          1           0        1.476234    5.403861    1.261520
     31          8           0       -0.703258    0.827739   -2.239148
     32          6           0        0.990094   -0.824714   -1.093365
     33          6           0        2.332848   -0.350597   -1.353554
     34          6           0        0.708584   -2.167595   -1.548432
     35          6           0        3.306587   -1.237367   -1.684830
     36          1           0        2.592767    0.695871   -1.249012
     37          6           0        1.736353   -2.994806   -1.870467
     38          1           0       -0.299319   -2.559396   -1.579829
     39          1           0        4.336977   -0.942077   -1.842574
     40          1           0        1.585029   -4.027127   -2.162104
     41          6           0       -1.775260    1.746953   -2.502588
     42          1           0       -1.446145    2.405414   -3.308781
     43          1           0       -2.656907    1.183911   -2.821844
     44          1           0       -2.024738    2.349710   -1.623319
     45          7           0       -4.403012   -1.103708    0.486438
     46          1           0       -5.339919   -1.422299    0.733110
     47          6           0        1.421830   -1.912767    3.454306
     48          1           0        1.686870   -2.319906    4.426371
     49          7           0        3.022023   -2.552070   -1.879154
     50          1           0        3.762277   -3.183307   -2.163025
 ---------------------------------------------------------------------
                    Distance matrix (angstroms):
                    1          2          3          4          5
     1  C    0.000000
     2  C    1.392084   0.000000
     3  C    2.421389   1.402059   0.000000
     4  C    2.789818   2.420540   1.400509   0.000000
     5  C    2.413149   2.787246   2.417833   1.390084   0.000000
     6  H    1.085906   2.145795   3.402084   3.875668   3.400356
     7  H    2.143662   1.085078   2.165413   3.408967   3.872257
     8  H    3.872369   3.410123   2.167170   1.083354   2.135975
     9  H    3.399460   3.873141   3.398507   2.143569   1.085906
    10  P    4.058141   2.743450   1.815821   2.848234   4.126844
    11  C    5.385970   4.200111   3.104505   3.623141   4.941712
    12  C    6.489727   5.224262   4.313816   4.991075   6.294758
    13  C    5.639380   4.693028   3.470278   3.455522   4.651493
    14  C    7.600521   6.412251   5.452170   5.929896   7.187713
    15  H    6.672052   5.329470   4.612667   5.517472   6.815234
    16  C    6.895667   5.988835   4.821466   4.735841   5.829891
    17  H    5.124989   4.377942   3.100376   2.688683   3.777800
    18  H    8.528387   7.306652   6.425131   6.980717   8.239921
    19  H    7.404268   6.647468   5.470607   5.138258   6.074746
    20  C    5.198890   4.181715   2.979403   3.156801   4.425648
    21  C    6.470252   5.436023   4.149279   4.171207   5.458152
    22  C    4.994445   4.270399   3.220207   3.057217   4.023588
    23  C    7.359750   6.481270   5.171463   4.885114   6.012774
    24  H    6.958424   5.810093   4.553815   4.754182   6.107630
    25  C    6.097169   5.535564   4.457392   3.972887   4.743731
    26  H    4.236149   3.653950   2.891814   2.840575   3.577775
    27  H    8.356029   7.449902   6.112018   5.813256   6.945824
    28  H    6.286412   5.935586   5.009394   4.402685   4.888749
    29  C    1.392680   2.413027   2.794678   2.414451   1.394540
    30  H    2.152923   3.397438   3.880983   3.397693   2.153965
    31  O    4.216189   2.866156   2.678737   3.972572   5.025705
    32  C    5.000225   3.724220   3.041137   3.990121   5.205773
    33  C    4.703357   3.617665   3.339004   4.288192   5.245493
    34  C    6.411475   5.097128   4.397431   5.295648   6.574144
    35  C    5.888858   4.897295   4.679019   5.539552   6.444190
    36  H    3.782954   2.862341   2.884587   3.829220   4.568110
    37  C    7.281980   6.036792   5.458722   6.324724   7.529306
    38  H    6.950295   5.595236   4.794787   5.649065   6.994451
    39  H    6.113591   5.306590   5.284080   6.089135   6.817398
    40  H    8.341381   7.073486   6.464743   7.308155   8.547731
    41  C    4.339261   3.220963   3.244497   4.378625   5.241269
    42  H    4.268075   3.306742   3.757850   4.960025   5.631426
    43  H    5.412348   4.287669   4.144574   5.190696   6.136831
    44  H    3.879061   2.946751   2.856479   3.742662   4.495735
    45  N    7.737002   6.695108   5.618963   5.788992   6.956449
    46  H    8.673634   7.669520   6.603318   6.705404   7.822080
    47  C    7.198896   6.524615   5.299178   4.800667   5.699449
    48  H    8.101342   7.516430   6.303344   5.685113   6.455981
    49  N    7.065857   5.962005   5.568989   6.411808   7.459589
    50  H    7.928978   6.877633   6.541751   7.357621   8.360250
                    6          7          8          9         10
     6  H    0.000000
     7  H    2.457883   0.000000
     8  H    4.958077   4.317184   0.000000
     9  H    4.301510   4.958160   2.447734   0.000000
    10  P    4.887975   2.846038   3.032577   4.990893   0.000000
    11  C    6.275863   4.392682   3.377803   5.587608   1.842473
    12  C    7.280352   5.177262   4.772869   6.969757   2.783802
    13  C    6.614832   5.144493   2.945669   5.063912   2.850158
    14  C    8.412807   6.429409   5.570626   7.740141   4.078376
    15  H    7.359684   5.068796   5.434656   7.591295   2.921368
    16  C    7.846645   6.395464   4.149720   6.115729   4.120702
    17  H    6.156614   5.034720   2.052086   4.065767   3.046231
    18  H    9.288795   7.216581   6.643500   8.813535   4.960423
    19  H    8.375430   7.164357   4.463067   6.181286   5.022454
    20  C    6.149343   4.581068   2.740059   4.956822   2.289759
    21  C    7.451897   5.814329   3.479358   5.834023   3.192923
    22  C    5.928979   4.831173   2.707577   4.423442   3.243238
    23  C    8.372468   6.975478   4.027536   6.165863   4.498455
    24  H    7.913065   6.061044   4.108540   6.544257   3.254215
    25  C    7.045057   6.175742   3.381400   4.847832   4.533947
    26  H    5.091659   4.224695   2.870594   4.095454   3.330776
    27  H    9.380029   7.919797   4.894773   7.039203   5.310570
    28  H    7.175090   6.630444   3.927249   4.864397   5.364165
    29  C    2.156430   3.391455   3.387849   2.157140   4.607780
    30  H    2.486583   4.286559   4.280262   2.485970   5.693797
    31  O    4.767561   2.414866   4.409218   6.006483   1.645544
    32  C    5.715107   3.608762   4.077875   6.035371   1.754071
    33  C    5.261255   3.429245   4.589844   6.108980   2.753442
    34  C    7.092017   4.858835   5.220089   7.354792   2.823651
    35  C    6.348476   4.633034   5.761260   7.248680   4.016494
    36  H    4.277060   2.742110   4.347482   5.477265   2.913334
    37  C    7.884580   5.737589   6.256613   8.290621   4.062054
    38  H    7.668460   5.366409   5.469334   7.741685   3.038735
    39  H    6.445712   5.033007   6.397933   7.602796   4.899264
    40  H    8.940101   6.742052   7.166345   9.283381   4.965747
    41  C    4.786046   2.818444   4.883308   6.189953   2.719777
    42  H    4.465504   2.654615   5.623963   6.633384   3.504173
    43  H    5.867183   3.888221   5.537419   7.024611   3.293155
    44  H    4.436602   2.899740   4.257827   5.374929   2.812420
    45  N    8.622695   6.910686   5.284091   7.342943   4.563666
    46  H    9.553103   7.888852   6.157987   8.138416   5.583234
    47  C    8.194935   7.131508   3.983651   5.719123   5.044741
    48  H    9.095292   8.163516   4.828793   6.329072   6.123507
    49  N    7.576945   5.662811   6.463478   8.224542   4.529647
    50  H    8.384175   6.547469   7.401213   9.102781   5.542610
                   11         12         13         14         15
    11  C    0.000000
    12  C    1.397884   0.000000
    13  C    1.395315   2.410243   0.000000
    14  C    2.398581   1.381365   2.757218   0.000000
    15  H    2.177277   1.083955   3.407905   2.124742   0.000000
    16  C    2.394875   2.754338   1.380122   2.359957   3.837037
    17  H    2.178892   3.409790   1.081085   3.837096   4.335156
    18  H    3.406046   2.176906   3.837127   1.082447   2.500664
    19  H    3.402173   3.834305   2.175244   3.307474   4.915725
    20  C    2.922707   3.909592   3.370315   4.939015   4.221379
    21  C    3.037206   3.760250   3.278416   4.486048   4.201156
    22  C    4.153710   5.256279   4.388996   6.278679   5.564553
    23  C    4.281448   5.006986   4.200827   5.525798   5.516463
    24  H    2.638461   2.997590   3.032965   3.591470   3.436818
    25  C    5.137273   6.213698   5.118810   7.064648   6.617531
    26  H    4.612654   5.752630   4.937531   6.885909   5.967444
    27  H    4.788979   5.312109   4.608797   5.587436   5.859842
    28  H    6.108560   7.236828   6.041954   8.110570   7.626845
    29  C    5.691730   6.947897   5.621389   7.938587   7.316624
    30  H    6.742215   8.001405   6.588966   8.954400   8.384056
    31  O    2.622425   2.949598   3.786737   4.236970   2.682165
    32  C    3.087442   3.622036   4.187624   4.938062   3.394783
    33  C    4.396396   5.017294   5.399396   6.357923   4.723016
    34  C    3.516914   3.544432   4.712233   4.721166   3.084273
    35  C    5.511173   5.966618   6.545261   7.265082   5.550386
    36  H    4.717139   5.510031   5.594411   6.862456   5.302197
    37  C    4.861101   4.837203   6.008551   5.936064   4.293230
    38  H    3.141057   2.812435   4.348489   3.844308   2.314002
    39  H    6.494128   7.006838   7.482808   8.321347   6.585327
    40  H    5.509520   5.264139   6.646219   6.203903   4.656934
    41  C    3.074126   3.280142   3.944574   4.276891   3.182288
    42  H    4.137293   4.308397   5.002728   5.298870   4.062562
    43  H    3.108347   2.866923   3.994271   3.643308   2.706518
    44  H    2.982977   3.517018   3.481594   4.376642   3.740211
    45  N    2.723738   2.349757   2.351397   1.340640   3.321440
    46  H    3.743611   3.267368   3.269220   2.033388   4.148110
    47  C    5.190230   6.111130   5.037496   6.742540   6.600018
    48  H    6.187153   7.078950   5.917358   7.605218   7.599768
    49  N    5.694982   5.896287   6.788206   7.087711   5.388873
    50  H    6.679790   6.818897   7.766473   7.968375   6.266530
                   16         17         18         19         20
    16  C    0.000000
    17  H    2.114952   0.000000
    18  H    3.308105   4.915617   0.000000
    19  H    1.082587   2.487312   4.139748   0.000000
    20  C    4.540429   3.269020   5.838818   5.242085   0.000000
    21  C    4.111616   3.375074   5.313803   4.754279   1.397486
    22  C    5.595385   3.980834   7.209645   6.145416   1.396097
    23  C    4.838677   4.103660   6.319026   5.239584   2.427554
    24  H    3.633564   3.468618   4.328684   4.391109   2.167377
    25  C    6.154863   4.617583   7.985372   6.533794   2.426599
    26  H    6.239806   4.464431   7.824729   6.809642   2.160086
    27  H    4.955921   4.634818   6.273361   5.262085   3.408494
    28  H    7.097606   5.429627   9.048436   7.407784   3.407246
    29  C    6.825766   4.879934   8.942202   7.152273   5.302954
    30  H    7.738057   5.791723   9.960856   7.975979   6.309331
    31  O    4.837839   4.183095   4.910258   5.803772   3.878171
    32  C    5.360924   4.412863   5.649720   6.290856   2.057149
    33  C    6.659443   5.431792   7.063912   7.536889   2.847764
    34  C    5.638504   5.175980   5.214575   6.624053   2.820655
    35  C    7.741735   6.619495   7.868181   8.630235   3.701911
    36  H    6.928878   5.468072   7.639487   7.745298   3.269109
    37  C    6.911846   6.416466   6.320192   7.871260   3.678823
    38  H    5.060620   5.005443   4.230657   6.075398   3.218702
    39  H    8.721408   7.468625   8.934466   9.581940   4.559315
    40  H    7.398001   7.150400   6.428421   8.356809   4.524147
    41  C    4.782603   4.358492   4.897578   5.659169   4.995068
    42  H    5.852957   5.332836   5.833399   6.698616   5.786141
    43  H    4.552951   4.631675   4.094618   5.463019   5.462820
    44  H    4.334351   3.712983   5.138213   5.075137   4.946565
    45  N    1.341889   3.316249   2.069801   2.070262   5.161703
    46  H    2.035875   4.141822   2.315879   2.318145   6.102243
    47  C    5.822261   4.668437   7.598805   6.121910   2.807635
    48  H    6.576456   5.504800   8.433392   6.749125   3.894331
    49  N    7.836670   7.021481   7.555404   8.758806   4.014757
    50  H    8.783694   8.000406   8.372210   9.699533   4.927959
                   21         22         23         24         25
    21  C    0.000000
    22  C    2.402026   0.000000
    23  C    1.394325   2.780765   0.000000
    24  H    1.088041   3.397760   2.137042   0.000000
    25  C    2.781853   1.392954   2.411902   3.869114   0.000000
    26  H    3.394487   1.088025   3.868388   4.308817   2.140735
    27  H    2.152079   3.867693   1.087020   2.450425   3.399717
    28  H    3.868782   2.150995   3.399776   4.955902   1.087037
    29  C    6.483106   4.896660   7.162416   7.087268   5.759959
    30  H    7.475211   5.785241   8.064833   8.117781   6.522746
    31  O    4.690009   4.792655   6.050222   4.519708   6.129697
    32  C    2.971889   2.909761   4.211450   3.129869   4.166579
    33  C    3.991310   3.048596   5.008889   4.387699   4.291131
    34  C    3.126178   3.845012   4.313554   2.924271   4.860716
    35  C    4.623992   3.754826   5.459136   5.013376   4.740759
    36  H    4.583285   3.180332   5.551446   5.081756   4.457776
    37  C    3.924515   4.402431   4.847785   3.842501   5.242278
    38  H    3.151001   4.453499   4.370532   2.580118   5.388503
    39  H    5.544695   4.341633   6.259675   6.024003   5.217688
    40  H    4.497370   5.299436   5.299314   4.252050   5.996260
    41  C    5.711813   5.890053   7.039739   5.462841   7.185153
    42  H    6.626440   6.556191   7.957754   6.433350   7.898431
    43  H    5.949392   6.521442   7.288755   5.504517   7.764058
    44  H    5.667509   5.737473   6.902583   5.517175   6.960129
    45  N    4.605035   6.384575   5.425895   3.843050   7.005797
    46  H    5.432205   7.306266   6.116799   4.637784   7.835298
    47  C    2.415455   2.414482   1.394768   3.389638   1.395556
    48  H    3.401480   3.400401   2.156541   4.284053   2.157126
    49  N    4.559042   4.326276   5.339880   4.760014   5.140126
    50  H    5.382265   5.126942   6.021814   5.583334   5.792102
                   26         27         28         29         30
    26  H    0.000000
    27  H    4.955230   0.000000
    28  H    2.456735   4.302267   0.000000
    29  C    4.210059   8.139891   5.825356   0.000000
    30  H    5.056520   9.038011   6.447052   1.086307   0.000000
    31  O    4.697763   6.787797   6.913802   5.127502   6.160013
    32  C    3.017219   5.048472   4.981393   5.626197   6.676598
    33  C    2.705602   5.948374   4.844896   5.420734   6.378572
    34  C    4.185845   4.918653   5.757054   7.054759   8.112463
    35  C    3.474712   6.326815   5.191637   6.596911   7.492468
    36  H    2.498809   6.561409   4.850074   4.548764   5.451109
    37  C    4.681257   5.401160   6.022220   7.950730   8.967419
    38  H    4.939292   4.786053   6.373682   7.559617   8.639405
    39  H    3.868591   7.156406   5.465863   6.827390   7.621691
    40  H    5.674603   5.667227   6.793623   9.009031  10.033772
    41  C    5.780173   7.715237   7.950846   5.229432   6.173629
    42  H    6.290576   8.684592   8.587504   5.345075   6.198277
    43  H    6.553571   7.836543   8.612487   6.236461   7.180856
    44  H    5.632063   7.589138   7.682506   4.558079   5.468724
    45  N    7.052976   5.405153   8.015860   7.849846   8.804246
    46  H    8.013745   5.948313   8.840563   8.739583   9.661036
    47  C    3.392293   2.157048   2.158049   6.845024   7.638345
    48  H    4.287897   2.488227   2.489261   7.636015   8.349684
    49  N    4.355498   6.033618   5.715247   7.749344   8.691958
    50  H    5.138555   6.648165   6.272918   8.617136   9.523285
                   31         32         33         34         35
    31  O    0.000000
    32  C    2.628852   0.000000
    33  C    3.375010   1.447575   0.000000
    34  C    3.382663   1.445567   2.444932   0.000000
    35  C    4.544314   2.426160   1.358040   2.762888   0.000000
    36  H    3.444059   2.214716   1.083320   3.440819   2.106392
    37  C    4.549668   2.422827   2.759501   1.358048   2.364041
    38  H    3.474270   2.215481   3.443588   1.081833   3.842049
    39  H    5.356630   3.431722   2.146048   3.841048   1.083413
    40  H    5.367673   3.428061   3.837950   2.145369   3.312750
    41  C    1.436504   4.030703   4.753582   4.733242   5.949795
    42  H    2.045741   4.612706   5.069447   5.352952   6.204477
    43  H    2.069574   4.508085   5.422937   4.917388   6.535950
    44  H    2.107594   4.409879   5.133516   5.280407   6.426035
    45  N    4.984725   5.626652   7.023144   5.603656   8.010630
    46  H    5.949421   6.615299   8.023345   6.507326   8.980128
    47  C    6.666468   4.695910   5.136716   5.059747   5.515360
    48  H    7.749163   5.760953   6.140277   6.056279   6.414215
    49  N    5.042859   2.780280   2.365946   2.368375   1.359111
    50  H    6.002940   3.793696   3.274562   3.276345   2.054995
                   36         37         38         39         40
    36  H    0.000000
    37  C    3.839368   0.000000
    38  H    4.366963   2.101907   0.000000
    39  H    2.465250   3.313264   4.917316   0.000000
    40  H    4.914874   1.083346   2.458464   4.146426   0.000000
    41  C    4.664321   5.934246   4.644839   6.710137   6.689355
    42  H    4.845410   6.431129   5.380876   6.841050   7.202810
    43  H    5.501914   6.137388   4.594907   7.375175   6.751607
    44  H    4.919008   6.539934   5.203680   7.166265   7.347432
    45  N    7.429078   6.842737   4.819625   9.046426   7.170620
    46  H    8.446476   7.702273   5.661301  10.025322   7.944954
    47  C    5.504297   5.442696   5.359384   6.123501   6.003433
    48  H    6.490419   6.333096   6.330619   6.944145   6.806833
    49  N    3.336234   1.359793   3.334811   2.079067   2.078655
    50  H    4.153456   2.055600   4.150415   2.335826   2.335046
                   41         42         43         44         45
    41  C    0.000000
    42  H    1.091712   0.000000
    43  H    1.093729   1.787490   0.000000
    44  H    1.094838   1.782878   1.787509   0.000000
    45  N    4.895470   5.954888   4.384839   4.693970   0.000000
    46  H    5.763740   6.793360   5.160289   5.547183   1.019874
    47  C    7.687621   8.521227   8.100344   7.471935   6.587230
    48  H    8.748495   9.590464   9.147773   8.495887   7.354514
    49  N    6.471800   6.825321   6.862686   7.040078   7.926217
    50  H    7.422067   7.724909   7.791826   8.024656   8.832685
                   46         47         48         49         50
    46  H    0.000000
    47  C    7.305253   0.000000
    48  H    7.988845   1.086701   0.000000
    49  N    8.833028   5.604919   6.449510   0.000000
    50  H    9.712812   6.216621   6.962249   1.013419   0.000000
 Stoichiometry    C23H23N2OP(2+)
 Framework group  C1[X(C23H23N2OP)]
 Deg. of freedom   144
 Full point group                 C1      NOp   1
 Largest Abelian subgroup         C1      NOp   1
 Largest concise Abelian subgroup C1      NOp   1
                         Standard orientation:                         
 ---------------------------------------------------------------------
 Center     Atomic      Atomic             Coordinates (Angstroms)
 Number     Number       Type             X           Y           Z
 ---------------------------------------------------------------------
      1          6           0        1.217703    4.129264   -0.454185
      2          6           0        0.784513    2.889606   -0.916237
      3          6           0        0.298161    1.932949   -0.013996
      4          6           0        0.243563    2.238939    1.351586
      5          6           0        0.654259    3.487924    1.802915
      6          1           0        1.606303    4.856678   -1.160621
      7          1           0        0.835316    2.670575   -1.977764
      8          1           0       -0.090643    1.504559    2.074530
      9          1           0        0.600836    3.716172    2.863217
     10         15           0       -0.253483    0.357099   -0.727852
     11          6           0       -1.900522   -0.253133   -0.171447
     12          6           0       -2.623485   -1.067818   -1.047627
     13          6           0       -2.486094    0.144460    1.031021
     14          6           0       -3.884581   -1.499358   -0.684889
     15          1           0       -2.232565   -1.364208   -2.014215
     16          6           0       -3.756825   -0.295814    1.341082
     17          1           0       -1.983201    0.783853    1.743075
     18          1           0       -4.500089   -2.141447   -1.301787
     19          1           0       -4.277893   -0.029852    2.251987
     20          6           0        0.731983   -0.853537    0.947324
     21          6           0        0.015839   -1.923738    1.490256
     22          6           0        1.829510   -0.357285    1.653196
     23          6           0        0.346987   -2.443253    2.741091
     24          1           0       -0.806918   -2.379739    0.943477
     25          6           0        2.168778   -0.870926    2.902752
     26          1           0        2.438501    0.439835    1.231854
     27          1           0       -0.229109   -3.267925    3.152967
     28          1           0        3.020979   -0.463727    3.440890
     29          6           0        1.145936    4.433050    0.903063
     30          1           0        1.476234    5.403861    1.261520
     31          8           0       -0.703258    0.827739   -2.239148
     32          6           0        0.990094   -0.824714   -1.093365
     33          6           0        2.332848   -0.350597   -1.353554
     34          6           0        0.708584   -2.167595   -1.548432
     35          6           0        3.306587   -1.237367   -1.684830
     36          1           0        2.592767    0.695871   -1.249012
     37          6           0        1.736353   -2.994806   -1.870467
     38          1           0       -0.299319   -2.559396   -1.579829
     39          1           0        4.336977   -0.942077   -1.842574
     40          1           0        1.585029   -4.027127   -2.162104
     41          6           0       -1.775260    1.746953   -2.502588
     42          1           0       -1.446145    2.405414   -3.308781
     43          1           0       -2.656907    1.183911   -2.821844
     44          1           0       -2.024738    2.349710   -1.623319
     45          7           0       -4.403012   -1.103708    0.486438
     46          1           0       -5.339919   -1.422299    0.733110
     47          6           0        1.421830   -1.912767    3.454306
     48          1           0        1.686870   -2.319906    4.426371
     49          7           0        3.022023   -2.552070   -1.879154
     50          1           0        3.762277   -3.183307   -2.163025
 ---------------------------------------------------------------------
 Rotational constants (GHZ):           0.1986497           0.1939013           0.1628775
 Standard basis: 6-31+G(d) (6D, 7F)
 There are   563 symmetry adapted cartesian basis functions of A   symmetry.
 There are   563 symmetry adapted basis functions of A   symmetry.
   563 basis functions,   980 primitive gaussians,   563 cartesian basis functions
    98 alpha electrons       98 beta electrons
       nuclear repulsion energy      2719.8042591136 Hartrees.
 NAtoms=   50 NActive=   50 NUniq=   50 SFac= 1.00D+00 NAtFMM=   60 NAOKFM=F Big=F
 Integral buffers will be    131072 words long.
 Raffenetti 2 integral format.
 Two-electron integral symmetry is turned on.
 Nuclear repulsion after empirical dispersion term =     2719.7551597242 Hartrees.
 Force inversion solution in PCM.
 ------------------------------------------------------------------------------
 Polarizable Continuum Model (PCM)
 =================================
 Model                : PCM.
 Atomic radii         : SMD-Coulomb.
 Polarization charges : Total charges.
 Charge compensation  : None.
 Solution method      : Matrix inversion.
 Cavity type          : VdW (van der Waals Surface) (Alpha=1.000).
 Cavity algorithm     : GePol (No added spheres)
                        Default sphere list used, NSphG=   50.
                        Lebedev-Laikov grids with approx.  5.0 points / Ang**2.
                        Smoothing algorithm: York/Karplus (Gamma=1.0000).
                        Polarization charges: spherical gaussians, with
                                              point-specific exponents (IZeta= 3).
                        Self-potential: point-specific (ISelfS= 7).
                        Self-field    : sphere-specific E.n sum rule (ISelfD= 2).
 1st derivatives      : Analytical E(r).r(x)/FMM algorithm (CHGder, D1EAlg=3).
                        Cavity 1st derivative terms included.
 2nd derivatives      : Analytical E(r).r(xy)/FMM algorithm (CHGder, D2EAlg=3).
                        Cavity 2nd derivative terms included.
 Solvent              : Ethanol, Eps=  24.852000 Eps(inf)=   1.852593
 ------------------------------------------------------------------------------
 ------------------------------------------------------------------------------
 Atomic radii for non-electrostatic terms: SMD-CDS.
 ------------------------------------------------------------------------------
 Nuclear repulsion after PCM non-electrostatic terms =     2719.7545241462 Hartrees.
 One-electron integrals computed using PRISM.
 NBasis=   563 RedAO= T EigKep=  1.09D-06  NBF=   563
 NBsUse=   560 1.00D-06 EigRej=  8.91D-07 NBFU=   560
 ExpMin= 3.48D-02 ExpMax= 1.94D+04 ExpMxC= 2.91D+03 IAcc=3 IRadAn=         5 AccDes= 0.00D+00
 Harris functional with IExCor= 4639 and IRadAn=       5 diagonalized for initial guess.
 HarFok:  IExCor= 4639 AccDes= 0.00D+00 IRadAn=         5 IDoV= 1 UseB2=F ITyADJ=14
 ICtDFT=  3500011 ScaDFX=  1.000000  1.000000  1.000000  1.000000
 FoFCou: FMM=F IPFlag=           0 FMFlag=      100000 FMFlg1=           0
         NFxFlg=           0 DoJE=T BraDBF=F KetDBF=T FulRan=T
         wScrn=  0.000000 ICntrl=       500 IOpCl=  0 I1Cent=   200000004 NGrid=           0
         NMat0=    1 NMatS0=      1 NMatT0=    0 NMatD0=    1 NMtDS0=    0 NMtDT0=    0
 Petite list used in FoFCou.
 Requested convergence on RMS density matrix=1.00D-08 within 128 cycles.
 Requested convergence on MAX density matrix=1.00D-06.
 Requested convergence on             energy=1.00D-06.
 No special actions if energy rises.
 Inv3:  Mode=1 IEnd=    39421875.
 Iteration    1 A*A^-1 deviation from unit magnitude is 6.88D-15 for   2520.
 Iteration    1 A*A^-1 deviation from orthogonality  is 3.60D-15 for   2114   1214.
 Iteration    1 A^-1*A deviation from unit magnitude is 6.11D-15 for   3602.
 Iteration    1 A^-1*A deviation from orthogonality  is 2.08D-15 for   2160    729.
 Error on total polarization charges =  0.05600
 SCF Done:  E(RwB97XD) =  -1415.67038569     A.U. after   17 cycles
            NFock= 17  Conv=0.85D-08     -V/T= 2.0082
 SMD-CDS (non-electrostatic) energy       (kcal/mol) =      -0.40
 (included in total energy above)
 DoSCS=F DFT=T ScalE2(SS,OS)=  1.000000  1.000000
 Range of M.O.s used for correlation:     1   560
 NBasis=   563 NAE=    98 NBE=    98 NFC=     0 NFV=     0
 NROrb=    560 NOA=    98 NOB=    98 NVA=   462 NVB=   462

 **** Warning!!: The largest alpha MO coefficient is  0.15342242D+03

 Symmetrizing basis deriv contribution to polar:
 IMax=3 JMax=2 DiffMx= 0.00D+00
 G2DrvN: will do    51 centers at a time, making    1 passes.
 Calling FoFCou, ICntrl=  3107 FMM=F I1Cent=   0 AccDes= 0.00D+00.
 NEqPCM:  Using equilibrium solvation (IEInf=0, Eps=  24.8520, EpsInf=   1.8526)
 G2PCM: DoFxE=T DoFxN=T DoGrad=T DoDP/DQ/DG/TGxP=FFFF NFrqRd=   0 IEInf=0 SqF1=F DoCFld=F IF1Alg=4.
 End of G2Drv F.D. properties file   721 does not exist.
 End of G2Drv F.D. properties file   722 does not exist.
 End of G2Drv F.D. properties file   788 does not exist.
          IDoAtm=11111111111111111111111111111111111111111111111111
 NEqPCM:  Using equilibrium solvation (IEInf=0, Eps=  24.8520, EpsInf=   1.8526)
          Differentiating once with respect to electric field.
                with respect to dipole field.
          Differentiating once with respect to nuclear coordinates.
 CalDSu exits because no D1Ps are significant.
          There are   153 degrees of freedom in the 1st order CPHF.  IDoFFX=6 NUNeed=     3.
    150 vectors produced by pass  0 Test12= 4.53D-14 1.00D-09 XBig12= 1.77D+02 4.70D+00.
 AX will form   150 AO Fock derivatives at one time.
    150 vectors produced by pass  1 Test12= 4.53D-14 1.00D-09 XBig12= 1.22D+01 8.05D-01.
    150 vectors produced by pass  2 Test12= 4.53D-14 1.00D-09 XBig12= 2.75D-01 5.91D-02.
    150 vectors produced by pass  3 Test12= 4.53D-14 1.00D-09 XBig12= 2.88D-03 5.96D-03.
    150 vectors produced by pass  4 Test12= 4.53D-14 1.00D-09 XBig12= 2.28D-05 4.69D-04.
    150 vectors produced by pass  5 Test12= 4.53D-14 1.00D-09 XBig12= 1.57D-07 2.44D-05.
    150 vectors produced by pass  6 Test12= 4.53D-14 1.00D-09 XBig12= 1.02D-09 2.02D-06.
     65 vectors produced by pass  7 Test12= 4.53D-14 1.00D-09 XBig12= 5.80D-12 1.92D-07.
      3 vectors produced by pass  8 Test12= 4.53D-14 1.00D-09 XBig12= 5.43D-14 1.65D-08.
      3 vectors produced by pass  9 Test12= 4.53D-14 1.00D-09 XBig12= 1.14D-14 1.01D-08.
      3 vectors produced by pass 10 Test12= 4.53D-14 1.00D-09 XBig12= 1.00D-15 2.24D-09.
      3 vectors produced by pass 11 Test12= 4.53D-14 1.00D-09 XBig12= 1.72D-15 2.54D-09.
      3 vectors produced by pass 12 Test12= 4.53D-14 1.00D-09 XBig12= 1.66D-15 3.58D-09.
      3 vectors produced by pass 13 Test12= 4.53D-14 1.00D-09 XBig12= 1.26D-15 4.02D-09.
      3 vectors produced by pass 14 Test12= 4.53D-14 1.00D-09 XBig12= 1.94D-15 3.06D-09.
      3 vectors produced by pass 15 Test12= 4.53D-14 1.00D-09 XBig12= 2.23D-15 3.07D-09.
      3 vectors produced by pass 16 Test12= 4.53D-14 1.00D-09 XBig12= 7.94D-16 2.04D-09.
      3 vectors produced by pass 17 Test12= 4.53D-14 1.00D-09 XBig12= 1.35D-15 2.20D-09.
      3 vectors produced by pass 18 Test12= 4.53D-14 1.00D-09 XBig12= 3.65D-15 4.82D-09.
      3 vectors produced by pass 19 Test12= 4.53D-14 1.00D-09 XBig12= 6.17D-16 1.87D-09.
      3 vectors produced by pass 20 Test12= 4.53D-14 1.00D-09 XBig12= 1.07D-15 2.21D-09.
      3 vectors produced by pass 21 Test12= 4.53D-14 1.00D-09 XBig12= 2.95D-15 5.02D-09.
      2 vectors produced by pass 22 Test12= 4.53D-14 1.00D-09 XBig12= 4.64D-16 1.30D-09.
 InvSVY:  IOpt=1 It=  1 EMax= 1.42D-14
 Solved reduced A of dimension  1159 with   153 vectors.
 Isotropic polarizability for W=    0.000000      442.48 Bohr**3.
 End of Minotr F.D. properties file   721 does not exist.
 End of Minotr F.D. properties file   722 does not exist.
 End of Minotr F.D. properties file   788 does not exist.

 **********************************************************************

            Population analysis using the SCF density.

 **********************************************************************

 Orbital symmetries:
       Occupied  (A) (A) (A) (A) (A) (A) (A) (A) (A) (A) (A) (A)
                 (A) (A) (A) (A) (A) (A) (A) (A) (A) (A) (A) (A)
                 (A) (A) (A) (A) (A) (A) (A) (A) (A) (A) (A) (A)
                 (A) (A) (A) (A) (A) (A) (A) (A) (A) (A) (A) (A)
                 (A) (A) (A) (A) (A) (A) (A) (A) (A) (A) (A) (A)
                 (A) (A) (A) (A) (A) (A) (A) (A) (A) (A) (A) (A)
                 (A) (A) (A) (A) (A) (A) (A) (A) (A) (A) (A) (A)
                 (A) (A) (A) (A) (A) (A) (A) (A) (A) (A) (A) (A)
                 (A) (A)
       Virtual   (A) (A) (A) (A) (A) (A) (A) (A) (A) (A) (A) (A)
                 (A) (A) (A) (A) (A) (A) (A) (A) (A) (A) (A) (A)
                 (A) (A) (A) (A) (A) (A) (A) (A) (A) (A) (A) (A)
                 (A) (A) (A) (A) (A) (A) (A) (A) (A) (A) (A) (A)
                 (A) (A) (A) (A) (A) (A) (A) (A) (A) (A) (A) (A)
                 (A) (A) (A) (A) (A) (A) (A) (A) (A) (A) (A) (A)
                 (A) (A) (A) (A) (A) (A) (A) (A) (A) (A) (A) (A)
                 (A) (A) (A) (A) (A) (A) (A) (A) (A) (A) (A) (A)
                 (A) (A) (A) (A) (A) (A) (A) (A) (A) (A) (A) (A)
                 (A) (A) (A) (A) (A) (A) (A) (A) (A) (A) (A) (A)
                 (A) (A) (A) (A) (A) (A) (A) (A) (A) (A) (A) (A)
                 (A) (A) (A) (A) (A) (A) (A) (A) (A) (A) (A) (A)
                 (A) (A) (A) (A) (A) (A) (A) (A) (A) (A) (A) (A)
                 (A) (A) (A) (A) (A) (A) (A) (A) (A) (A) (A) (A)
                 (A) (A) (A) (A) (A) (A) (A) (A) (A) (A) (A) (A)
                 (A) (A) (A) (A) (A) (A) (A) (A) (A) (A) (A) (A)
                 (A) (A) (A) (A) (A) (A) (A) (A) (A) (A) (A) (A)
                 (A) (A) (A) (A) (A) (A) (A) (A) (A) (A) (A) (A)
                 (A) (A) (A) (A) (A) (A) (A) (A) (A) (A) (A) (A)
                 (A) (A) (A) (A) (A) (A) (A) (A) (A) (A) (A) (A)
                 (A) (A) (A) (A) (A) (A) (A) (A) (A) (A) (A) (A)
                 (A) (A) (A) (A) (A) (A) (A) (A) (A) (A) (A) (A)
                 (A) (A) (A) (A) (A) (A) (A) (A) (A) (A) (A) (A)
                 (A) (A) (A) (A) (A) (A) (A) (A) (A) (A) (A) (A)
                 (A) (A) (A) (A) (A) (A) (A) (A) (A) (A) (A) (A)
                 (A) (A) (A) (A) (A) (A) (A) (A) (A) (A) (A) (A)
                 (A) (A) (A) (A) (A) (A) (A) (A) (A) (A) (A) (A)
                 (A) (A) (A) (A) (A) (A) (A) (A) (A) (A) (A) (A)
                 (A) (A) (A) (A) (A) (A) (A) (A) (A) (A) (A) (A)
                 (A) (A) (A) (A) (A) (A) (A) (A) (A) (A) (A) (A)
                 (A) (A) (A) (A) (A) (A) (A) (A) (A) (A) (A) (A)
                 (A) (A) (A) (A) (A) (A) (A) (A) (A) (A) (A) (A)
                 (A) (A) (A) (A) (A) (A) (A) (A) (A) (A) (A) (A)
                 (A) (A) (A) (A) (A) (A) (A) (A) (A) (A) (A) (A)
                 (A) (A) (A) (A) (A) (A) (A) (A) (A) (A) (A) (A)
                 (A) (A) (A) (A) (A) (A) (A) (A) (A) (A) (A) (A)
                 (A) (A) (A) (A) (A) (A) (A) (A) (A) (A) (A) (A)
                 (A) (A) (A) (A) (A) (A) (A) (A) (A) (A) (A) (A)
                 (A) (A) (A) (A) (A) (A)
 The electronic state is 1-A.
 Alpha  occ. eigenvalues --  -77.39126 -19.31406 -14.59137 -14.53642 -10.40801
 Alpha  occ. eigenvalues --  -10.40688 -10.39267 -10.39067 -10.37390 -10.37381
 Alpha  occ. eigenvalues --  -10.36706 -10.36633 -10.35401 -10.34805 -10.33299
 Alpha  occ. eigenvalues --  -10.33293 -10.33134 -10.33007 -10.32628 -10.32266
 Alpha  occ. eigenvalues --  -10.32193 -10.32189 -10.31690 -10.31518 -10.31497
 Alpha  occ. eigenvalues --  -10.31353 -10.31289  -6.80495  -4.95491  -4.95267
 Alpha  occ. eigenvalues --   -4.95168  -1.16430  -1.15761  -1.11035  -0.99295
 Alpha  occ. eigenvalues --   -0.98107  -0.97100  -0.95299  -0.93575  -0.90264
 Alpha  occ. eigenvalues --   -0.89016  -0.87041  -0.85777  -0.85424  -0.84250
 Alpha  occ. eigenvalues --   -0.80338  -0.80101  -0.78736  -0.76346  -0.73931
 Alpha  occ. eigenvalues --   -0.72411  -0.71879  -0.70527  -0.69856  -0.69136
 Alpha  occ. eigenvalues --   -0.68599  -0.64994  -0.63307  -0.62890  -0.62047
 Alpha  occ. eigenvalues --   -0.60942  -0.60098  -0.59800  -0.58012  -0.57686
 Alpha  occ. eigenvalues --   -0.57548  -0.56890  -0.56168  -0.55246  -0.55013
 Alpha  occ. eigenvalues --   -0.54697  -0.54237  -0.54147  -0.53603  -0.53180
 Alpha  occ. eigenvalues --   -0.52325  -0.51371  -0.51033  -0.50427  -0.49241
 Alpha  occ. eigenvalues --   -0.48305  -0.47723  -0.47167  -0.46812  -0.45008
 Alpha  occ. eigenvalues --   -0.44292  -0.43745  -0.42999  -0.42718  -0.41995
 Alpha  occ. eigenvalues --   -0.39846  -0.39687  -0.37649  -0.36230  -0.35353
 Alpha  occ. eigenvalues --   -0.34029  -0.33531  -0.28973
 Alpha virt. eigenvalues --   -0.04932  -0.01225   0.00312   0.01306   0.03058
 Alpha virt. eigenvalues --    0.03705   0.04676   0.05548   0.06007   0.06220
 Alpha virt. eigenvalues --    0.06364   0.06684   0.07510   0.07643   0.08077
 Alpha virt. eigenvalues --    0.08455   0.08563   0.09106   0.09713   0.10027
 Alpha virt. eigenvalues --    0.10183   0.10246   0.10363   0.10737   0.11340
 Alpha virt. eigenvalues --    0.11472   0.11534   0.12027   0.12231   0.12761
 Alpha virt. eigenvalues --    0.12973   0.13277   0.13602   0.13814   0.14134
 Alpha virt. eigenvalues --    0.14641   0.15095   0.15238   0.15376   0.15993
 Alpha virt. eigenvalues --    0.16283   0.16456   0.16630   0.17289   0.17672
 Alpha virt. eigenvalues --    0.17906   0.18166   0.18537   0.18552   0.18801
 Alpha virt. eigenvalues --    0.18888   0.19269   0.19647   0.19915   0.20469
 Alpha virt. eigenvalues --    0.20774   0.20946   0.21078   0.21296   0.21419
 Alpha virt. eigenvalues --    0.21764   0.21863   0.22085   0.22489   0.22661
 Alpha virt. eigenvalues --    0.22828   0.23033   0.23268   0.23550   0.23721
 Alpha virt. eigenvalues --    0.24318   0.24507   0.24721   0.25085   0.25251
 Alpha virt. eigenvalues --    0.25459   0.25915   0.26179   0.26359   0.26417
 Alpha virt. eigenvalues --    0.26762   0.26933   0.27225   0.27475   0.27606
 Alpha virt. eigenvalues --    0.27895   0.28214   0.28442   0.28622   0.28907
 Alpha virt. eigenvalues --    0.29332   0.29537   0.29790   0.30135   0.30189
 Alpha virt. eigenvalues --    0.30609   0.31007   0.31031   0.31095   0.31455
 Alpha virt. eigenvalues --    0.31720   0.31787   0.32004   0.32473   0.32837
 Alpha virt. eigenvalues --    0.33099   0.33278   0.33469   0.33876   0.34016
 Alpha virt. eigenvalues --    0.34525   0.34570   0.34722   0.35091   0.35317
 Alpha virt. eigenvalues --    0.35626   0.35714   0.35954   0.36391   0.36461
 Alpha virt. eigenvalues --    0.36997   0.37361   0.37573   0.37669   0.37824
 Alpha virt. eigenvalues --    0.38262   0.38767   0.39030   0.39289   0.39744
 Alpha virt. eigenvalues --    0.39781   0.40209   0.40440   0.40820   0.41230
 Alpha virt. eigenvalues --    0.41796   0.41996   0.42337   0.42889   0.43241
 Alpha virt. eigenvalues --    0.43446   0.44294   0.44338   0.44599   0.45337
 Alpha virt. eigenvalues --    0.46075   0.46310   0.46589   0.46997   0.47374
 Alpha virt. eigenvalues --    0.47712   0.48374   0.49032   0.49316   0.50083
 Alpha virt. eigenvalues --    0.51003   0.51749   0.52050   0.53716   0.56444
 Alpha virt. eigenvalues --    0.58355   0.59205   0.60682   0.61099   0.62150
 Alpha virt. eigenvalues --    0.64033   0.65830   0.66756   0.69724   0.70796
 Alpha virt. eigenvalues --    0.70966   0.73026   0.73575   0.75182   0.76282
 Alpha virt. eigenvalues --    0.76300   0.77518   0.77807   0.78934   0.79239
 Alpha virt. eigenvalues --    0.79478   0.79768   0.80247   0.80473   0.80962
 Alpha virt. eigenvalues --    0.81496   0.82112   0.82792   0.83283   0.83965
 Alpha virt. eigenvalues --    0.84152   0.84549   0.85209   0.85560   0.86175
 Alpha virt. eigenvalues --    0.87161   0.87239   0.88437   0.88781   0.89667
 Alpha virt. eigenvalues --    0.90223   0.90529   0.92065   0.92424   0.92824
 Alpha virt. eigenvalues --    0.93161   0.94336   0.94967   0.95350   0.95973
 Alpha virt. eigenvalues --    0.96632   0.96920   0.97526   0.97762   0.98445
 Alpha virt. eigenvalues --    0.99145   0.99911   1.00000   1.00393   1.00869
 Alpha virt. eigenvalues --    1.00928   1.01581   1.01620   1.01946   1.02266
 Alpha virt. eigenvalues --    1.02572   1.02855   1.03382   1.04032   1.04460
 Alpha virt. eigenvalues --    1.05313   1.05853   1.05990   1.06674   1.07035
 Alpha virt. eigenvalues --    1.07465   1.07951   1.08707   1.09645   1.10794
 Alpha virt. eigenvalues --    1.11014   1.11891   1.12393   1.13605   1.14601
 Alpha virt. eigenvalues --    1.15085   1.15232   1.15944   1.16813   1.17045
 Alpha virt. eigenvalues --    1.17572   1.18564   1.19468   1.20150   1.20964
 Alpha virt. eigenvalues --    1.21169   1.22101   1.23010   1.23929   1.24255
 Alpha virt. eigenvalues --    1.25347   1.25650   1.26535   1.26798   1.27769
 Alpha virt. eigenvalues --    1.29004   1.29381   1.29979   1.30232   1.30914
 Alpha virt. eigenvalues --    1.32278   1.32934   1.33239   1.34527   1.34663
 Alpha virt. eigenvalues --    1.35881   1.36787   1.37388   1.38276   1.39224
 Alpha virt. eigenvalues --    1.40468   1.41507   1.42696   1.43021   1.44413
 Alpha virt. eigenvalues --    1.45725   1.46538   1.48110   1.48831   1.49352
 Alpha virt. eigenvalues --    1.49964   1.49969   1.51113   1.51919   1.52324
 Alpha virt. eigenvalues --    1.52815   1.52997   1.53575   1.54227   1.54855
 Alpha virt. eigenvalues --    1.55119   1.55330   1.55965   1.56590   1.56949
 Alpha virt. eigenvalues --    1.57982   1.58648   1.59100   1.59540   1.60113
 Alpha virt. eigenvalues --    1.60765   1.62259   1.63007   1.64307   1.65442
 Alpha virt. eigenvalues --    1.66798   1.67536   1.70084   1.70525   1.72200
 Alpha virt. eigenvalues --    1.73790   1.77522   1.80858   1.82212   1.84772
 Alpha virt. eigenvalues --    1.86905   1.88368   1.90182   1.90891   1.92902
 Alpha virt. eigenvalues --    1.93713   1.94263   1.96048   1.96907   1.98247
 Alpha virt. eigenvalues --    1.99553   2.00304   2.02541   2.02973   2.04522
 Alpha virt. eigenvalues --    2.06553   2.07116   2.08437   2.09053   2.09205
 Alpha virt. eigenvalues --    2.10501   2.11411   2.11779   2.13255   2.15315
 Alpha virt. eigenvalues --    2.16684   2.17795   2.18795   2.19808   2.20035
 Alpha virt. eigenvalues --    2.20625   2.21179   2.22208   2.22262   2.22904
 Alpha virt. eigenvalues --    2.23250   2.23984   2.24264   2.24989   2.25663
 Alpha virt. eigenvalues --    2.25961   2.27033   2.27778   2.28076   2.28533
 Alpha virt. eigenvalues --    2.29780   2.30427   2.31244   2.31803   2.32400
 Alpha virt. eigenvalues --    2.33235   2.33844   2.34373   2.35408   2.36013
 Alpha virt. eigenvalues --    2.36412   2.37626   2.38195   2.38815   2.40121
 Alpha virt. eigenvalues --    2.40292   2.40946   2.41339   2.42082   2.44768
 Alpha virt. eigenvalues --    2.45142   2.47844   2.50515   2.62882   2.66565
 Alpha virt. eigenvalues --    2.67702   2.68478   2.68813   2.70087   2.70734
 Alpha virt. eigenvalues --    2.70932   2.71484   2.72632   2.73460   2.73701
 Alpha virt. eigenvalues --    2.75055   2.75614   2.76909   2.76951   2.77183
 Alpha virt. eigenvalues --    2.79128   2.80427   2.80588   2.82356   2.83785
 Alpha virt. eigenvalues --    2.85919   2.86000   2.86888   2.87837   2.89598
 Alpha virt. eigenvalues --    2.90470   2.91291   2.92710   2.95067   2.95454
 Alpha virt. eigenvalues --    2.98249   2.99720   3.10364   3.12694   3.15411
 Alpha virt. eigenvalues --    3.17780   3.43825   3.46357   3.47410   3.47705
 Alpha virt. eigenvalues --    3.72365   4.28970   4.31419   4.38079   4.38773
 Alpha virt. eigenvalues --    4.40723   4.42117   4.43358   4.43855   4.44641
 Alpha virt. eigenvalues --    4.45834   4.47936   4.50334   4.51347   4.52673
 Alpha virt. eigenvalues --    4.54064   4.55548   4.59070   4.60152   4.61559
 Alpha virt. eigenvalues --    4.63892   4.66802   4.75460   4.76186   4.79136
 Alpha virt. eigenvalues --    4.85066   4.86517
          Condensed to atoms (all electrons):
               1          2          3          4          5          6
     1  C   12.141958  -1.287648  -2.418718  -5.109927   2.812253   0.257189
     2  C   -1.287648  20.565059  -8.819942  -7.784349   2.417225  -0.026525
     3  C   -2.418718  -8.819942  22.745374  -0.020331  -2.102467   0.067648
     4  C   -5.109927  -7.784349  -0.020331  35.884960 -18.087879   0.039464
     5  C    2.812253   2.417225  -2.102467 -18.087879  20.770010  -0.025616
     6  H    0.257189  -0.026525   0.067648   0.039464  -0.025616   0.432808
     7  H    0.044037   0.381467  -0.128786  -0.042113   0.032478  -0.003161
     8  H    0.012997  -0.000825   0.186390   0.235946  -0.167426   0.000013
     9  H    0.015519  -0.016451   0.044437  -0.163363   0.430233  -0.000106
    10  P    0.489294  -0.254451  -2.124189  -0.958368   2.354096  -0.000202
    11  C    0.350479   1.667376  -1.277273  -1.510531   0.074423  -0.000687
    12  C    0.046914   1.780124   0.559663  -1.780248  -0.445679   0.000110
    13  C   -0.203619  -2.510682  -1.362915   3.439434   0.368011   0.000227
    14  C   -0.004816   0.006639   0.115162  -0.065651   0.025946   0.000002
    15  H    0.000181   0.001781   0.005318  -0.002289  -0.000367   0.000000
    16  C   -0.091604  -0.308904   0.855638   0.271597  -0.636928   0.000026
    17  H   -0.000898  -0.000880   0.003155  -0.003684   0.020850   0.000000
    18  H   -0.000010  -0.000310  -0.000846   0.000732   0.000063  -0.000000
    19  H    0.000083   0.001170   0.004627  -0.005347  -0.000875  -0.000000
    20  C    0.896615  -0.703604  -0.513219  -1.404107   0.865138  -0.000490
    21  C    0.117419   1.701121  -1.798772  -2.256096   2.070180  -0.000385
    22  C   -0.520473  -2.141683   2.965482   3.090260  -2.982526   0.001255
    23  C   -0.062753   0.035944  -0.062191   0.147273  -0.065797  -0.000008
    24  H   -0.000027  -0.001842  -0.014739   0.006380   0.001905  -0.000000
    25  C   -0.019729   0.062574  -0.579907   0.908613  -0.380007  -0.000092
    26  H   -0.004560  -0.014237   0.028695   0.015907  -0.008988   0.000000
    27  H    0.000011  -0.000017  -0.000160   0.000412   0.000028  -0.000000
    28  H    0.000838   0.000174  -0.004896  -0.004868   0.010680  -0.000000
    29  C    0.150656   0.077724  -0.983087   0.779443   0.002874   0.001002
    30  H   -0.013009   0.018518  -0.018978   0.024072  -0.012441  -0.002774
    31  O   -0.196926  -0.148640   0.378127   0.186872  -0.186889   0.000260
    32  C   -1.290414   3.086051  -0.843316  -0.522286  -0.295619  -0.005746
    33  C    0.275316  -2.143878   2.957094   0.649025  -0.663193   0.004420
    34  C   -0.093067   0.762057  -1.767561  -0.322065   0.391856  -0.000402
    35  C    0.260138   0.025241  -0.137151  -0.159337   0.077498   0.000268
    36  H   -0.022169  -0.052500   0.062914   0.022800  -0.012424  -0.000007
    37  C    0.002832  -0.193976   0.274061   0.098726  -0.038690   0.000015
    38  H   -0.000644  -0.007597  -0.003193   0.005453   0.000209   0.000000
    39  H   -0.000023   0.001211  -0.003499  -0.000237  -0.000150  -0.000000
    40  H    0.000008   0.000191  -0.000385  -0.000024   0.000010  -0.000000
    41  C   -0.056510  -0.097479   0.237159  -0.066931   0.008685   0.000264
    42  H   -0.011263   0.010944  -0.016954   0.001901   0.000348  -0.000000
    43  H    0.003351   0.006755  -0.008015   0.002987  -0.000725   0.000000
    44  H    0.018830   0.036349  -0.000534  -0.042424   0.007230  -0.000014
    45  N    0.002688   0.011976  -0.072619   0.014188   0.008636  -0.000000
    46  H   -0.000009  -0.000084   0.000252   0.000046  -0.000043   0.000000
    47  C    0.001193  -0.076369  -0.047446   0.299684  -0.195077   0.000011
    48  H    0.000007   0.000057   0.000827  -0.001055   0.000074   0.000000
    49  N   -0.010852  -0.007588   0.006054  -0.000972  -0.006432   0.000001
    50  H    0.000009  -0.000015   0.000397   0.000006  -0.000008   0.000000
               7          8          9         10         11         12
     1  C    0.044037   0.012997   0.015519   0.489294   0.350479   0.046914
     2  C    0.381467  -0.000825  -0.016451  -0.254451   1.667376   1.780124
     3  C   -0.128786   0.186390   0.044437  -2.124189  -1.277273   0.559663
     4  C   -0.042113   0.235946  -0.163363  -0.958368  -1.510531  -1.780248
     5  C    0.032478  -0.167426   0.430233   2.354096   0.074423  -0.445679
     6  H   -0.003161   0.000013  -0.000106  -0.000202  -0.000687   0.000110
     7  H    0.429740  -0.000129   0.000011  -0.020591   0.018337  -0.006047
     8  H   -0.000129   0.453333  -0.003612  -0.011240   0.040273   0.018129
     9  H    0.000011  -0.003612   0.432678   0.002880   0.000186  -0.000049
    10  P   -0.020591  -0.011240   0.002880  23.680566   1.689233  -3.364754
    11  C    0.018337   0.040273   0.000186   1.689233  18.786495  -5.695107
    12  C   -0.006047   0.018129  -0.000049  -3.364754  -5.695107  18.027171
    13  C   -0.002488  -0.052742  -0.001070   2.731124  -5.831008  -4.915518
    14  C   -0.000194  -0.002121  -0.000004  -0.398737   0.593683  -1.617406
    15  H   -0.000001  -0.000000  -0.000000  -0.034124  -0.073350   0.353413
    16  C   -0.000989   0.010816  -0.000463  -1.301032   1.747036  -0.219478
    17  H   -0.000003   0.005069  -0.000014   0.018434  -0.032422  -0.012528
    18  H   -0.000000  -0.000000  -0.000000   0.003881   0.093897  -0.128469
    19  H   -0.000000  -0.000004  -0.000000   0.000204   0.099711  -0.002223
    20  C    0.015572  -0.000185   0.003676   1.257902  -0.808432  -0.410174
    21  C    0.000352  -0.040046   0.000766   3.502122   1.057259  -0.340596
    22  C   -0.010803   0.081110   0.007537  -4.740930  -1.359971   0.355195
    23  C   -0.000400  -0.000761  -0.000229  -0.452609   0.078289   0.329254
    24  H    0.000000  -0.000008  -0.000000   0.072712   0.066694  -0.082586
    25  C   -0.001940  -0.002706  -0.011248   0.130171  -0.166810  -0.146991
    26  H    0.000008  -0.000812  -0.000010   0.018607  -0.005030  -0.000287
    27  H    0.000000  -0.000004   0.000000   0.003482  -0.000666  -0.000683
    28  H    0.000000  -0.000059  -0.000001   0.010700  -0.000024  -0.000312
    29  C    0.000393  -0.028093   0.003139  -0.339796  -0.004920   0.039416
    30  H   -0.000107  -0.000114  -0.002745   0.004719  -0.000166  -0.000041
    31  O    0.016184   0.001416   0.000028  -1.069125  -0.437672   0.464499
    32  C   -0.061305  -0.010334  -0.001567  -6.234869  -2.803604   3.126412
    33  C    0.045701   0.018335   0.000431  -3.898639  -0.838943  -0.000116
    34  C   -0.002615  -0.011063   0.000048   2.312452   0.967955  -0.495339
    35  C    0.014673  -0.000460  -0.000007   1.284028   0.361427  -0.076262
    36  H   -0.000291   0.000001  -0.000000   0.053906  -0.010858   0.000907
    37  C   -0.000147   0.000277   0.000001   0.387211   0.396048  -0.250467
    38  H   -0.000001  -0.000000  -0.000000   0.031807   0.041902  -0.059094
    39  H   -0.000000  -0.000000   0.000000   0.003646   0.000097   0.000037
    40  H   -0.000000  -0.000000  -0.000000   0.002172  -0.001951   0.000457
    41  C    0.001710   0.000189   0.000122  -0.178958  -0.070817  -0.018775
    42  H    0.000049   0.000000   0.000000  -0.009288   0.004615   0.006928
    43  H    0.000023   0.000000   0.000000   0.010160   0.010710   0.002552
    44  H   -0.000271  -0.000019  -0.000000   0.009355  -0.021687   0.029508
    45  N    0.000005  -0.000015   0.000001   0.099693  -0.031231  -0.237575
    46  H    0.000000   0.000000   0.000000  -0.005008   0.001707   0.017411
    47  C    0.000083  -0.002508  -0.000843  -0.202439  -0.102229   0.013830
    48  H   -0.000000   0.000003   0.000000   0.000723  -0.000625   0.000091
    49  N   -0.000081   0.000013  -0.000000  -0.157718  -0.075988   0.017552
    50  H   -0.000000   0.000000   0.000000  -0.002340   0.000099   0.000102
              13         14         15         16         17         18
     1  C   -0.203619  -0.004816   0.000181  -0.091604  -0.000898  -0.000010
     2  C   -2.510682   0.006639   0.001781  -0.308904  -0.000880  -0.000310
     3  C   -1.362915   0.115162   0.005318   0.855638   0.003155  -0.000846
     4  C    3.439434  -0.065651  -0.002289   0.271597  -0.003684   0.000732
     5  C    0.368011   0.025946  -0.000367  -0.636928   0.020850   0.000063
     6  H    0.000227   0.000002   0.000000   0.000026   0.000000  -0.000000
     7  H   -0.002488  -0.000194  -0.000001  -0.000989  -0.000003  -0.000000
     8  H   -0.052742  -0.002121  -0.000000   0.010816   0.005069  -0.000000
     9  H   -0.001070  -0.000004  -0.000000  -0.000463  -0.000014  -0.000000
    10  P    2.731124  -0.398737  -0.034124  -1.301032   0.018434   0.003881
    11  C   -5.831008   0.593683  -0.073350   1.747036  -0.032422   0.093897
    12  C   -4.915518  -1.617406   0.353413  -0.219478  -0.012528  -0.128469
    13  C   23.252035  -1.908545  -0.045106  -7.210844   0.268896   0.016300
    14  C   -1.908545   9.151066   0.053961   0.296102  -0.002497   0.388374
    15  H   -0.045106   0.053961   0.376019   0.008094  -0.000075  -0.001919
    16  C   -7.210844   0.296102   0.008094  12.189060   0.025599  -0.007200
    17  H    0.268896  -0.002497  -0.000075   0.025599   0.397902   0.000009
    18  H    0.016300   0.388374  -0.001919  -0.007200   0.000009   0.360638
    19  H   -0.186306   0.002911   0.000009   0.454966  -0.002386  -0.000074
    20  C   -0.206604   0.077041   0.001434   0.626856   0.007957  -0.000595
    21  C    0.298055   0.050175  -0.004752  -0.974836   0.004741   0.000911
    22  C    0.161170  -0.100330  -0.001227   0.767090  -0.005979  -0.000294
    23  C   -0.056713   0.125826  -0.001291  -0.244062  -0.004085   0.000139
    24  H    0.032991  -0.001872  -0.000077  -0.013294  -0.000083   0.000000
    25  C    0.247731  -0.035508  -0.000135  -0.012334  -0.001867   0.000004
    26  H   -0.001066  -0.000065   0.000000   0.000122   0.000007  -0.000000
    27  H    0.003511   0.000175  -0.000000  -0.001776  -0.000005  -0.000000
    28  H   -0.000136  -0.000001  -0.000000  -0.000238  -0.000001  -0.000000
    29  C    0.017442  -0.001635   0.000032   0.017786   0.000317  -0.000001
    30  H    0.000043   0.000002  -0.000000  -0.000025  -0.000000   0.000000
    31  O   -0.351881   0.074942   0.014544   0.103550   0.001630   0.000056
    32  C   -1.510742  -0.359260  -0.007715   0.793528   0.004075  -0.004703
    33  C    0.411227  -0.158621  -0.008542   0.077588   0.000156  -0.000180
    34  C   -0.290088   0.394237   0.032060  -0.197635   0.000409   0.002886
    35  C   -0.054756  -0.003040  -0.000803  -0.013133  -0.000026  -0.000023
    36  H    0.002704   0.000142  -0.000000   0.000273  -0.000000   0.000000
    37  C    0.078600  -0.036035   0.004476  -0.019333  -0.000001   0.000018
    38  H    0.034939  -0.015566   0.000986  -0.002606  -0.000001   0.000004
    39  H   -0.000033  -0.000005   0.000000   0.000004  -0.000000  -0.000000
    40  H    0.000042  -0.000066  -0.000002  -0.000051  -0.000000  -0.000000
    41  C   -0.054594   0.033455   0.002391   0.046005  -0.001020  -0.000124
    42  H   -0.003818   0.003529   0.000025   0.000065   0.000001   0.000000
    43  H    0.010697  -0.024403  -0.000179   0.000433  -0.000001  -0.000010
    44  H   -0.037002   0.004192   0.000035   0.001630  -0.000084  -0.000001
    45  N    0.058708   0.336437   0.001806   0.287628   0.007348  -0.048373
    46  H    0.012203  -0.027752  -0.000085  -0.029555  -0.000088  -0.002203
    47  C    0.073333   0.012655  -0.000063  -0.026828  -0.001991  -0.000007
    48  H   -0.000029  -0.000016   0.000000   0.000266   0.000000   0.000000
    49  N    0.005457  -0.001570   0.000038   0.002705  -0.000001   0.000001
    50  H   -0.000029   0.000013   0.000000   0.000001   0.000000   0.000000
              19         20         21         22         23         24
     1  C    0.000083   0.896615   0.117419  -0.520473  -0.062753  -0.000027
     2  C    0.001170  -0.703604   1.701121  -2.141683   0.035944  -0.001842
     3  C    0.004627  -0.513219  -1.798772   2.965482  -0.062191  -0.014739
     4  C   -0.005347  -1.404107  -2.256096   3.090260   0.147273   0.006380
     5  C   -0.000875   0.865138   2.070180  -2.982526  -0.065797   0.001905
     6  H   -0.000000  -0.000490  -0.000385   0.001255  -0.000008  -0.000000
     7  H   -0.000000   0.015572   0.000352  -0.010803  -0.000400   0.000000
     8  H   -0.000004  -0.000185  -0.040046   0.081110  -0.000761  -0.000008
     9  H   -0.000000   0.003676   0.000766   0.007537  -0.000229  -0.000000
    10  P    0.000204   1.257902   3.502122  -4.740930  -0.452609   0.072712
    11  C    0.099711  -0.808432   1.057259  -1.359971   0.078289   0.066694
    12  C   -0.002223  -0.410174  -0.340596   0.355195   0.329254  -0.082586
    13  C   -0.186306  -0.206604   0.298055   0.161170  -0.056713   0.032991
    14  C    0.002911   0.077041   0.050175  -0.100330   0.125826  -0.001872
    15  H    0.000009   0.001434  -0.004752  -0.001227  -0.001291  -0.000077
    16  C    0.454966   0.626856  -0.974836   0.767090  -0.244062  -0.013294
    17  H   -0.002386   0.007957   0.004741  -0.005979  -0.004085  -0.000083
    18  H   -0.000074  -0.000595   0.000911  -0.000294   0.000139   0.000000
    19  H    0.360858   0.001024   0.001384   0.000098  -0.003203  -0.000002
    20  C    0.001024  26.855265  -7.127821  -2.226700  -1.405220  -0.148083
    21  C    0.001384  -7.127821  23.487253 -11.069918  -3.187550   0.327954
    22  C    0.000098  -2.226700 -11.069918  26.102368   0.013154  -0.035363
    23  C   -0.003203  -1.405220  -3.187550   0.013154  10.159206   0.069366
    24  H   -0.000002  -0.148083   0.327954  -0.035363   0.069366   0.455982
    25  C    0.000135  -1.934874   1.287672  -5.172893  -0.530048   0.009685
    26  H   -0.000000  -0.016586  -0.030110   0.286603   0.003626  -0.000155
    27  H   -0.000000   0.071192  -0.056120  -0.004143   0.327580  -0.003770
    28  H   -0.000000   0.068930   0.015065  -0.131924   0.006107   0.000011
    29  C   -0.000092  -0.271342  -0.071825   0.259319   0.013768  -0.000015
    30  H    0.000000   0.000306   0.000086  -0.001295   0.000026   0.000000
    31  O    0.000034  -0.268161  -0.011253   0.151292   0.006990  -0.000808
    32  C   -0.000004  -6.396432  -1.837418   0.831785   0.886279  -0.026472
    33  C   -0.000023   1.226615  -6.418040   8.517400  -0.205407  -0.005724
    34  C    0.000228  -0.652592   7.908309  -7.769284   0.421430   0.044351
    35  C    0.000002  -0.369904   0.611169  -0.734038  -0.016034   0.002048
    36  H    0.000000  -0.029745  -0.004586   0.019338   0.003076  -0.000001
    37  C    0.000002  -0.077838  -1.090983   0.842253  -0.206496  -0.026209
    38  H    0.000000  -0.009843   0.029418  -0.000313  -0.004563  -0.001614
    39  H   -0.000000   0.006569   0.003250  -0.008586   0.000382  -0.000000
    40  H    0.000000   0.004296  -0.003979   0.001281  -0.000616  -0.000016
    41  C    0.000103   0.072585   0.003290  -0.012181  -0.001293  -0.000075
    42  H    0.000000  -0.001737   0.002786  -0.002081   0.000103   0.000000
    43  H   -0.000000   0.006514  -0.006743   0.003864  -0.000466  -0.000001
    44  H    0.000000   0.001074   0.000412  -0.005394   0.000153   0.000000
    45  N   -0.050503  -0.061743   0.089023  -0.019492   0.002018   0.000004
    46  H   -0.002169   0.000785  -0.001221   0.000090   0.000567   0.000002
    47  C   -0.000385  -0.810847  -0.058291   0.124488   0.443842   0.011498
    48  H    0.000000  -0.019926   0.011301   0.015793  -0.012847  -0.000121
    49  N   -0.000000   0.061199   0.007239   0.105528   0.004350   0.000281
    50  H   -0.000000   0.003711  -0.001764  -0.000669  -0.000482   0.000000
              25         26         27         28         29         30
     1  C   -0.019729  -0.004560   0.000011   0.000838   0.150656  -0.013009
     2  C    0.062574  -0.014237  -0.000017   0.000174   0.077724   0.018518
     3  C   -0.579907   0.028695  -0.000160  -0.004896  -0.983087  -0.018978
     4  C    0.908613   0.015907   0.000412  -0.004868   0.779443   0.024072
     5  C   -0.380007  -0.008988   0.000028   0.010680   0.002874  -0.012441
     6  H   -0.000092   0.000000  -0.000000  -0.000000   0.001002  -0.002774
     7  H   -0.001940   0.000008   0.000000   0.000000   0.000393  -0.000107
     8  H   -0.002706  -0.000812  -0.000004  -0.000059  -0.028093  -0.000114
     9  H   -0.011248  -0.000010   0.000000  -0.000001   0.003139  -0.002745
    10  P    0.130171   0.018607   0.003482   0.010700  -0.339796   0.004719
    11  C   -0.166810  -0.005030  -0.000666  -0.000024  -0.004920  -0.000166
    12  C   -0.146991  -0.000287  -0.000683  -0.000312   0.039416  -0.000041
    13  C    0.247731  -0.001066   0.003511  -0.000136   0.017442   0.000043
    14  C   -0.035508  -0.000065   0.000175  -0.000001  -0.001635   0.000002
    15  H   -0.000135   0.000000  -0.000000  -0.000000   0.000032  -0.000000
    16  C   -0.012334   0.000122  -0.001776  -0.000238   0.017786  -0.000025
    17  H   -0.001867   0.000007  -0.000005  -0.000001   0.000317  -0.000000
    18  H    0.000004  -0.000000  -0.000000  -0.000000  -0.000001   0.000000
    19  H    0.000135  -0.000000  -0.000000  -0.000000  -0.000092   0.000000
    20  C   -1.934874  -0.016586   0.071192   0.068930  -0.271342   0.000306
    21  C    1.287672  -0.030110  -0.056120   0.015065  -0.071825   0.000086
    22  C   -5.172893   0.286603  -0.004143  -0.131924   0.259319  -0.001295
    23  C   -0.530048   0.003626   0.327580   0.006107   0.013768   0.000026
    24  H    0.009685  -0.000155  -0.003770   0.000011  -0.000015   0.000000
    25  C   11.104718  -0.002537   0.009469   0.372100   0.006111   0.000493
    26  H   -0.002537   0.459077   0.000012  -0.003931  -0.005418   0.000001
    27  H    0.009469   0.000012   0.451369  -0.000099  -0.000010   0.000000
    28  H    0.372100  -0.003931  -0.000099   0.452071  -0.000280   0.000000
    29  C    0.006111  -0.005418  -0.000010  -0.000280   6.066118   0.308773
    30  H    0.000493   0.000001   0.000000   0.000000   0.308773   0.432893
    31  O   -0.005649  -0.000290  -0.000011  -0.000009   0.031278  -0.000015
    32  C    1.134031  -0.016601  -0.004463  -0.002550   0.091666   0.001454
    33  C   -0.588100   0.051066   0.002570  -0.007720   0.113996  -0.001251
    34  C    0.189276   0.009080  -0.003782   0.003554  -0.058616   0.000057
    35  C   -0.045209  -0.028536   0.000156   0.002228  -0.000690  -0.000105
    36  H    0.005842  -0.001765  -0.000000  -0.000004  -0.000471   0.000000
    37  C    0.035217   0.003205   0.001524  -0.000209   0.003800  -0.000001
    38  H    0.000731  -0.000003  -0.000006  -0.000000  -0.000018   0.000000
    39  H   -0.001819  -0.000047   0.000000   0.000000   0.000036   0.000000
    40  H    0.000407  -0.000000   0.000000   0.000000  -0.000001  -0.000000
    41  C   -0.007183   0.000078  -0.000012  -0.000005  -0.013268  -0.000171
    42  H   -0.000070  -0.000000  -0.000000  -0.000000   0.000374   0.000000
    43  H    0.000134   0.000000   0.000000  -0.000000   0.000544  -0.000000
    44  H   -0.000335  -0.000000   0.000000   0.000000  -0.002152   0.000000
    45  N   -0.000418   0.000002  -0.000037   0.000000  -0.000259   0.000000
    46  H    0.000002   0.000000   0.000000  -0.000000   0.000003  -0.000000
    47  C    0.642689   0.004423  -0.040466  -0.029551   0.005809  -0.000034
    48  H   -0.013380  -0.000120  -0.002982  -0.002998  -0.000015  -0.000000
    49  N    0.007560   0.000240  -0.000116  -0.000178   0.000269   0.000000
    50  H   -0.000930   0.000001  -0.000000  -0.000000   0.000002  -0.000000
              31         32         33         34         35         36
     1  C   -0.196926  -1.290414   0.275316  -0.093067   0.260138  -0.022169
     2  C   -0.148640   3.086051  -2.143878   0.762057   0.025241  -0.052500
     3  C    0.378127  -0.843316   2.957094  -1.767561  -0.137151   0.062914
     4  C    0.186872  -0.522286   0.649025  -0.322065  -0.159337   0.022800
     5  C   -0.186889  -0.295619  -0.663193   0.391856   0.077498  -0.012424
     6  H    0.000260  -0.005746   0.004420  -0.000402   0.000268  -0.000007
     7  H    0.016184  -0.061305   0.045701  -0.002615   0.014673  -0.000291
     8  H    0.001416  -0.010334   0.018335  -0.011063  -0.000460   0.000001
     9  H    0.000028  -0.001567   0.000431   0.000048  -0.000007  -0.000000
    10  P   -1.069125  -6.234869  -3.898639   2.312452   1.284028   0.053906
    11  C   -0.437672  -2.803604  -0.838943   0.967955   0.361427  -0.010858
    12  C    0.464499   3.126412  -0.000116  -0.495339  -0.076262   0.000907
    13  C   -0.351881  -1.510742   0.411227  -0.290088  -0.054756   0.002704
    14  C    0.074942  -0.359260  -0.158621   0.394237  -0.003040   0.000142
    15  H    0.014544  -0.007715  -0.008542   0.032060  -0.000803  -0.000000
    16  C    0.103550   0.793528   0.077588  -0.197635  -0.013133   0.000273
    17  H    0.001630   0.004075   0.000156   0.000409  -0.000026  -0.000000
    18  H    0.000056  -0.004703  -0.000180   0.002886  -0.000023   0.000000
    19  H    0.000034  -0.000004  -0.000023   0.000228   0.000002   0.000000
    20  C   -0.268161  -6.396432   1.226615  -0.652592  -0.369904  -0.029745
    21  C   -0.011253  -1.837418  -6.418040   7.908309   0.611169  -0.004586
    22  C    0.151292   0.831785   8.517400  -7.769284  -0.734038   0.019338
    23  C    0.006990   0.886279  -0.205407   0.421430  -0.016034   0.003076
    24  H   -0.000808  -0.026472  -0.005724   0.044351   0.002048  -0.000001
    25  C   -0.005649   1.134031  -0.588100   0.189276  -0.045209   0.005842
    26  H   -0.000290  -0.016601   0.051066   0.009080  -0.028536  -0.001765
    27  H   -0.000011  -0.004463   0.002570  -0.003782   0.000156  -0.000000
    28  H   -0.000009  -0.002550  -0.007720   0.003554   0.002228  -0.000004
    29  C    0.031278   0.091666   0.113996  -0.058616  -0.000690  -0.000471
    30  H   -0.000015   0.001454  -0.001251   0.000057  -0.000105   0.000000
    31  O    9.353160   0.369402  -0.026437   0.255524  -0.015357  -0.001145
    32  C    0.369402  34.399276  -7.301979 -11.557054   0.778169   0.010301
    33  C   -0.026437  -7.301979  29.072603 -10.898124  -5.505171   0.292217
    34  C    0.255524 -11.557054 -10.898124  33.097232  -0.896529   0.005649
    35  C   -0.015357   0.778169  -5.505171  -0.896529  10.976267  -0.051747
    36  H   -0.001145   0.010301   0.292217   0.005649  -0.051747   0.413360
    37  C   -0.002827   2.165740   0.279687  -6.948647  -0.002628  -0.005700
    38  H   -0.000968  -0.063131  -0.015462   0.319929  -0.002759  -0.000065
    39  H   -0.000041   0.071390  -0.146085   0.009864   0.426561  -0.002488
    40  H   -0.000056   0.066518   0.006393  -0.119598   0.002660   0.000009
    41  C   -0.051157  -0.006990  -0.041373   0.106068  -0.010945  -0.000449
    42  H   -0.046448  -0.004827  -0.018231   0.016274   0.000308   0.000005
    43  H   -0.045019  -0.000177   0.017266  -0.026729   0.000069   0.000000
    44  H   -0.069719   0.021726  -0.008000   0.003074  -0.000314  -0.000007
    45  N   -0.011079  -0.062766   0.000810   0.007286   0.000679  -0.000002
    46  H   -0.000011   0.000962   0.000023  -0.000383   0.000000   0.000000
    47  C    0.003454  -0.410109   0.182230   0.149468  -0.022151  -0.001141
    48  H    0.000000   0.001454  -0.000196  -0.001079   0.000084   0.000000
    49  N   -0.003031  -0.214035   0.028569   0.105623   0.191614   0.009439
    50  H    0.000025   0.016097   0.013055   0.006549  -0.032796  -0.000093
              37         38         39         40         41         42
     1  C    0.002832  -0.000644  -0.000023   0.000008  -0.056510  -0.011263
     2  C   -0.193976  -0.007597   0.001211   0.000191  -0.097479   0.010944
     3  C    0.274061  -0.003193  -0.003499  -0.000385   0.237159  -0.016954
     4  C    0.098726   0.005453  -0.000237  -0.000024  -0.066931   0.001901
     5  C   -0.038690   0.000209  -0.000150   0.000010   0.008685   0.000348
     6  H    0.000015   0.000000  -0.000000  -0.000000   0.000264  -0.000000
     7  H   -0.000147  -0.000001  -0.000000  -0.000000   0.001710   0.000049
     8  H    0.000277  -0.000000  -0.000000  -0.000000   0.000189   0.000000
     9  H    0.000001  -0.000000   0.000000  -0.000000   0.000122   0.000000
    10  P    0.387211   0.031807   0.003646   0.002172  -0.178958  -0.009288
    11  C    0.396048   0.041902   0.000097  -0.001951  -0.070817   0.004615
    12  C   -0.250467  -0.059094   0.000037   0.000457  -0.018775   0.006928
    13  C    0.078600   0.034939  -0.000033   0.000042  -0.054594  -0.003818
    14  C   -0.036035  -0.015566  -0.000005  -0.000066   0.033455   0.003529
    15  H    0.004476   0.000986   0.000000  -0.000002   0.002391   0.000025
    16  C   -0.019333  -0.002606   0.000004  -0.000051   0.046005   0.000065
    17  H   -0.000001  -0.000001  -0.000000  -0.000000  -0.001020   0.000001
    18  H    0.000018   0.000004  -0.000000  -0.000000  -0.000124   0.000000
    19  H    0.000002   0.000000  -0.000000   0.000000   0.000103   0.000000
    20  C   -0.077838  -0.009843   0.006569   0.004296   0.072585  -0.001737
    21  C   -1.090983   0.029418   0.003250  -0.003979   0.003290   0.002786
    22  C    0.842253  -0.000313  -0.008586   0.001281  -0.012181  -0.002081
    23  C   -0.206496  -0.004563   0.000382  -0.000616  -0.001293   0.000103
    24  H   -0.026209  -0.001614  -0.000000  -0.000016  -0.000075   0.000000
    25  C    0.035217   0.000731  -0.001819   0.000407  -0.007183  -0.000070
    26  H    0.003205  -0.000003  -0.000047  -0.000000   0.000078  -0.000000
    27  H    0.001524  -0.000006   0.000000   0.000000  -0.000012  -0.000000
    28  H   -0.000209  -0.000000   0.000000   0.000000  -0.000005  -0.000000
    29  C    0.003800  -0.000018   0.000036  -0.000001  -0.013268   0.000374
    30  H   -0.000001   0.000000   0.000000  -0.000000  -0.000171   0.000000
    31  O   -0.002827  -0.000968  -0.000041  -0.000056  -0.051157  -0.046448
    32  C    2.165740  -0.063131   0.071390   0.066518  -0.006990  -0.004827
    33  C    0.279687  -0.015462  -0.146085   0.006393  -0.041373  -0.018231
    34  C   -6.948647   0.319929   0.009864  -0.119598   0.106068   0.016274
    35  C   -0.002628  -0.002759   0.426561   0.002660  -0.010945   0.000308
[...]
 00223070,0.00097835,-0.00042003,-0.00117985,0.00074755,-0.00262069,-0.
 00003654,0.00003186,0.00003738,-0.00014526,-0.00151715,0.00005828,-0.0
 0004836,-0.00000892,0.00001139,0.00018918,0.00000257,0.00002186,-0.000
 02010,0.00000953,0.00001997,0.00004026,-0.00005047,0.00002928,-0.00000
 158,0.00001090,-0.00000937,0.00000666,0.00001739,-0.00000185,0.0000077
 0,0.00000351,-0.00000553,0.00000277,-0.00016156,-0.00032566,-0.0003240
 5,0.00003044,-0.00000214,-0.00001513,0.20948690,0.45647623,0.00004108,
 0.00005338,0.00005666,-0.00009912,-0.00008656,0.00011225,-0.00008620,0
 .00012433,-0.00002563,0.00003660,0.00009349,-0.00006295,-0.00001128,-0
 .00003089,-0.00001208,0.00000935,0.00000841,0.00000290,-0.00000523,-0.
 00000584,0.00000233,0.00001789,-0.00002789,-0.00007364,0.00000057,0.00
 001863,0.00001080,0.00052067,-0.00062993,0.00007504,-0.00015186,-0.000
 01722,-0.00015647,-0.00001518,0.00014656,0.00005164,-0.00019883,0.0000
 0011,-0.00004077,0.00004344,0.00001616,-0.00000149,0.00000898,0.000009
 44,0.00001363,0.00018551,0.00010521,0.00001520,0.00001869,-0.00000186,
 -0.00001771,-0.00000447,-0.00000710,0.00000857,-0.00001650,0.00000035,
 -0.00000510,-0.00065905,-0.00698502,-0.00250882,-0.02713321,-0.0019227
 3,-0.02721786,0.01554832,0.02834022,-0.01356630,-0.12632193,-0.0434394
 4,-0.17665792,-0.00271935,0.00422686,-0.00298993,0.04998005,0.10411827
 ,-0.15355261,-0.00343186,0.00368099,-0.00314867,0.01088518,0.00603014,
 0.01032994,-0.00972127,-0.01300984,0.01038216,0.00001015,0.00003863,-0
 .00004243,0.00000464,0.00000666,0.00000020,-0.00024737,0.00021108,-0.0
 0015109,-0.00109871,0.00028861,0.00375403,0.00137667,0.00016784,-0.000
 65161,0.00042230,-0.00149251,-0.00134846,-0.00058790,0.00093294,0.0001
 7210,-0.00001317,-0.00002892,-0.00002232,-0.00162064,0.00051270,0.0000
 4667,-0.00000519,0.00000740,0.00003202,0.00001198,0.00002351,-0.000020
 85,-0.00001535,-0.00001253,-0.00000356,0.00005026,-0.00004015,-0.00000
 090,-0.00001362,0.00001531,-0.00001038,-0.00001593,0.00001211,-0.00000
 300,-0.00001136,0.00001017,-0.00000134,-0.00012752,-0.00010893,-0.0000
 3361,0.00002475,0.00000936,-0.00001088,0.16228664,-0.18319283,0.643922
 44,0.00000445,-0.00000184,-0.00002274,0.00003444,0.00004992,0.00003411
 ,-0.00000796,0.00000589,-0.00010798,0.00001137,-0.00002438,-0.00000732
 ,0.00000735,0.00001831,-0.00000097,0.00000074,0.00000542,0.00000180,-0
 .00000453,-0.00000080,-0.00000021,-0.00000709,-0.00001237,-0.00001083,
 0.00000142,0.00000264,0.00000113,0.00008160,-0.00013730,0.00074003,0.0
 0000449,0.00000697,-0.00008357,-0.00002062,0.00000142,0.00004423,-0.00
 000125,-0.00001994,0.00000439,0.00000297,-0.00000791,-0.00000781,-0.00
 000053,0.00000241,0.00000093,0.00003377,0.00001522,0.00000458,0.000006
 01,-0.00000109,-0.00000731,-0.00000252,-0.00000189,0.00000357,-0.00000
 383,-0.00000028,-0.00000245,-0.00144514,0.00014488,0.00067036,-0.00059
 004,-0.00504986,-0.00376198,0.00106219,-0.00539827,-0.00041334,-0.0006
 7920,0.01023227,-0.02220717,-0.00029839,0.00062135,-0.00107926,0.00863
 954,-0.00713549,0.01603457,0.00006849,-0.00023054,0.00092645,-0.000788
 24,0.00194821,0.00181159,-0.00086944,0.00232763,0.00088279,-0.00000405
 ,-0.00000007,0.00001269,0.00000022,0.00000089,0.00000053,-0.00001669,0
 .00001341,-0.00010180,0.00012796,0.00010843,-0.00090552,-0.00023381,-0
 .00012996,-0.00000469,0.00003678,0.00024664,0.00012199,0.00005655,-0.0
 0012251,-0.00003660,0.00000006,-0.00000260,0.00003483,0.00020445,-0.00
 001974,-0.00002664,0.00001841,0.00001241,0.00003056,-0.00000010,-0.000
 00499,0.00000132,0.00000598,-0.00000076,0.00000014,0.00002212,-0.00002
 534,-0.00000388,-0.00000244,0.00000454,-0.00000082,-0.00000438,0.00000
 284,-0.00000004,-0.00000005,0.00000017,0.00000452,-0.00002509,-0.00001
 760,-0.00000749,0.00000661,0.00000247,-0.00000365,-0.07026013,0.017860
 36,-0.06831123,0.06495781,-0.00001250,-0.00001338,0.00000836,-0.000008
 59,-0.00002183,-0.00004688,0.00001124,-0.00002986,0.00008697,0.0000038
 2,0.00000704,0.00001611,0.00000589,-0.00000058,0.00001194,-0.00000208,
 -0.00000622,-0.00000128,0.00000299,0.00000135,0.00000059,-0.00000828,0
 .00000963,0.00003162,-0.00000099,-0.00000528,-0.00000385,-0.00011695,0
 .00019939,-0.00084416,-0.00002377,-0.00005820,0.00012839,0.00001880,0.
 00003239,-0.00004016,-0.00000534,0.00002692,-0.00002175,0.00001566,0.0
 0002313,-0.00000360,0.00000099,-0.00000546,0.00000131,-0.00001680,-0.0
 0000227,-0.00001213,-0.00001055,-0.00000390,0.00000703,0.00000461,0.00
 000039,-0.00000234,0.00000402,0.00000041,0.00000183,0.00031089,-0.0012
 2920,-0.00089622,-0.00481127,0.00252764,0.00041709,-0.00566607,0.00015
 144,0.00315623,-0.00394153,0.00892109,-0.01182136,-0.00009808,0.000087
 50,-0.00068767,0.00712753,-0.00338840,0.02144224,0.00049582,-0.0004233
 2,0.00097165,0.00227704,-0.00129506,-0.00103018,0.00199541,-0.00110069
 ,-0.00182722,-0.00000437,-0.00000557,-0.00000041,-0.00000099,-0.000003
 60,0.00000029,0.00002718,-0.00002887,0.00012779,-0.00007303,-0.0000696
 0,0.00101787,0.00022301,0.00011547,0.00000574,-0.00006070,-0.00029301,
 -0.00013762,-0.00003243,0.00009067,0.00003753,0.00001276,0.00002882,-0
 .00003498,-0.00023248,0.00004680,0.00003072,-0.00000558,-0.00000087,-0
 .00002966,-0.00000095,0.00000708,-0.00000028,-0.00000552,0.00000048,0.
 00000152,-0.00003297,0.00002680,0.00000154,0.00000499,-0.00000624,0.00
 000177,0.00000576,-0.00000153,0.00000115,0.00000021,-0.00000117,-0.000
 00481,0.00001203,0.00000530,0.00001585,-0.00000246,-0.00000061,0.00000
 174,0.01780943,-0.09199256,0.10244658,-0.01534789,0.08771510,0.0000097
 7,0.00001303,0.00001539,-0.00003011,-0.00003080,0.00000907,-0.00002391
 ,0.00004303,0.00002139,-0.00002208,0.00002136,-0.00000442,-0.00000738,
 -0.00000927,-0.00000743,0.00000225,0.00000167,-0.00000087,-0.00000073,
 -0.00000172,-0.00000007,0.00001569,-0.00000165,-0.00001125,0.00000027,
 0.00000172,0.00000341,0.00023009,-0.00022194,-0.00030518,-0.00001694,0
 .00000957,0.00001991,-0.00001166,0.00002314,-0.00000102,-0.00004470,0.
 00000453,-0.00000469,0.00003075,0.00000737,-0.00000926,0.00000340,0.00
 000013,0.00000380,0.00003681,0.00002545,-0.00000212,0.00000183,-0.0000
 0526,-0.00000264,-0.00000069,0.00000031,0.00000058,-0.00000061,-0.0000
 0183,-0.00000004,0.00080619,-0.00083592,-0.00028317,-0.00411303,0.0001
 2879,0.00134102,-0.00010464,0.00342704,0.00200984,-0.00167614,0.007515
 38,-0.00877930,0.00000697,0.00024478,-0.00064573,-0.00480023,0.0025758
 1,-0.00572689,-0.00012213,0.00001373,-0.00051937,0.00130652,-0.0014810
 7,-0.00012169,0.00137478,-0.00136056,-0.00020072,0.00000760,0.00000724
 ,-0.00001010,0.00000138,0.00000288,0.00000007,-0.00011097,0.00010119,-
 0.00005606,-0.00041263,0.00017571,0.00137785,0.00045510,0.00007319,-0.
 00010907,0.00001441,-0.00045935,-0.00023817,-0.00012544,0.00033325,0.0
 0006204,0.00000344,0.00000014,-0.00002695,-0.00041811,0.00007859,0.000
 03331,-0.00000162,-0.00000139,-0.00002486,0.00000311,0.00000634,-0.000
 00525,-0.00000566,-0.00000316,-0.00000360,0.00001785,-0.00001342,0.000
 00007,-0.00000500,0.00000630,-0.00000352,-0.00000663,0.00000365,-0.000
 00169,-0.00000406,0.00000354,-0.00000073,-0.00003230,-0.00002127,0.000
 00659,0.00000845,0.00000238,-0.00000223,-0.06826104,0.10230454,-0.2866
 7778,0.07574494,-0.11251695,0.29888878,0.00019898,0.00018283,-0.000107
 99,0.00004280,0.00030088,0.00069218,-0.00040506,0.00043298,-0.00141769
 ,-0.00007885,-0.00005746,-0.00020233,0.00005357,0.00008353,0.00001782,
 0.00003440,0.00010812,0.00001929,-0.00009392,-0.00001711,-0.00001348,0
 .00002605,-0.00006892,-0.00017038,0.00000945,0.00005091,0.00004273,0.0
 0562894,-0.00727145,0.01229439,0.00029922,0.00047848,-0.00140207,-0.00
 011297,-0.00027535,0.00032699,-0.00025805,-0.00018484,0.00013556,0.000
 32196,-0.00010051,-0.00023083,0.00024563,-0.00002816,0.00014886,0.0003
 8681,0.00016287,0.00012046,0.00007472,0.00002104,-0.00006401,-0.000069
 10,0.00000864,0.00003680,-0.00003370,-0.00002338,-0.00001376,-0.006666
 25,0.01328950,0.01100384,0.00236994,0.00097788,0.00277691,-0.00219585,
 -0.00177974,0.00113966,-0.00022057,-0.00101303,-0.00238903,-0.00046353
 ,-0.00007724,-0.00048782,0.00164557,-0.00266766,0.00109439,-0.00059125
 ,0.00130530,0.00074425,-0.00020051,-0.00013731,0.00046305,0.00040508,-
 0.00027327,0.00037775,0.00003886,0.00008319,0.00001707,-0.00000301,0.0
 0004511,0.00000749,-0.00119540,0.00124356,-0.00226122,-0.01327802,-0.0
 3554276,-0.03030039,0.02724728,0.01725400,0.00152873,-0.07274374,0.042
 26725,0.01240892,-0.15207689,-0.02414955,0.01596499,-0.00288896,0.0034
 8045,0.00200849,-0.31698399,-0.08778349,0.00146517,-0.00137418,0.00451
 753,0.00195449,-0.00067488,-0.03781904,-0.00604912,-0.00549864,-0.0011
 9981,0.00223168,0.00070078,-0.00066068,0.00011832,-0.00009593,0.000124
 03,-0.00005263,-0.00014275,0.00006390,-0.00003477,-0.00006993,0.000062
 28,0.00008647,-0.00048496,-0.00018419,0.00010040,0.00012122,0.00004372
 ,-0.00002537,0.00173548,0.00109560,0.00129262,-0.00014678,0.00016538,0
 .00031719,0.81531814,-0.00003615,-0.00004734,0.00011715,0.00005802,0.0
 0003245,-0.00052941,-0.00001060,-0.00060808,0.00077962,0.00015065,0.00
 014518,0.00043333,-0.00007204,-0.00018684,0.00000906,-0.00003116,-0.00
 008230,-0.00000651,-0.00003014,0.00007463,-0.00003013,-0.00004470,0.00
 009451,0.00012153,-0.00001988,-0.00003879,-0.00004420,-0.00513542,0.00
 692842,-0.01080840,-0.00034508,-0.00089184,0.00127919,0.00070228,0.000
 21327,-0.00042000,0.00037694,0.00026357,-0.00015167,-0.00022613,0.0002
 2683,0.00017055,0.00009160,-0.00013662,0.00002431,-0.00039768,-0.00017
 740,-0.00014684,-0.00006849,-0.00001611,0.00007790,0.00007529,-0.00000
 996,-0.00003472,0.00004306,0.00001676,0.00001360,0.01413925,-0.0022108
 4,-0.00884264,-0.00209640,-0.00211385,-0.00201520,0.00155340,0.0027343
 7,-0.00185747,-0.00207845,0.00217757,-0.00172148,0.00106998,-0.0006294
 8,-0.00034727,-0.00082238,-0.00110919,0.00230451,-0.00051522,-0.000166
 79,0.00135751,-0.00024537,0.00049445,-0.00037115,-0.00005935,-0.000155
 52,-0.00044288,-0.00003159,-0.00004692,-0.00012086,-0.00001296,-0.0000
 3768,-0.00001479,0.00102872,-0.00108973,0.00207451,-0.03868143,-0.0256
 8793,0.02222930,0.05539085,-0.06364020,-0.01602481,0.00443288,0.033321
 12,0.00191782,-0.06954095,-0.32414093,-0.03678566,0.00416915,0.0003393
 4,-0.00183269,-0.04384385,-0.16132293,-0.02765618,0.00369534,-0.001326
 31,-0.00221881,-0.00054699,-0.01015105,-0.00430873,-0.03788465,-0.0054
 8106,0.00142251,-0.00068288,0.00047819,-0.00009256,0.00010721,-0.00014
 695,0.00004556,0.00011596,-0.00004099,0.00001141,0.00005857,-0.0000416
 1,-0.00005638,0.00042050,0.00018358,0.00000707,-0.00008690,-0.00005072
 ,0.00003477,0.00186133,0.00187743,-0.00074288,0.00007407,-0.00005531,-
 0.00022881,-0.05916609,0.77017920,-0.00000764,0.00001492,0.00001467,0.
 00004065,0.00001047,-0.00003604,0.00001472,-0.00006209,0.00006691,-0.0
 0001505,0.00001137,0.00006725,-0.00000632,-0.00003517,0.00000202,-0.00
 000381,-0.00000977,-0.00000172,0.00000239,0.00000528,-0.00001972,-0.00
 000086,0.00001787,0.00000893,-0.00000524,-0.00000431,-0.00000619,-0.00
 048305,0.00060489,-0.00132094,-0.00004007,-0.00006058,0.00011388,0.000
 05488,0.00000732,0.00000095,0.00005070,0.00000532,0.00002861,-0.000034
 64,0.00001363,0.00001881,-0.00001970,-0.00000748,-0.00004460,-0.000036
 16,-0.00001030,-0.00002399,-0.00001054,-0.00000756,0.00000381,0.000009
 60,-0.00000325,-0.00000401,0.00000353,0.00000429,0.00000140,0.00072922
 ,0.00021846,0.00037496,-0.00046108,0.00065337,-0.00025362,-0.00055732,
 0.00054571,0.00011161,0.00007730,0.00010250,-0.00013844,0.00006060,-0.
 00005186,-0.00000479,0.00001429,-0.00008479,-0.00016945,-0.00003333,-0
 .00000903,0.00015943,-0.00003465,0.00003292,-0.00002624,-0.00001394,0.
 00003347,0.00000076,-0.00000156,-0.00000337,-0.00002465,-0.00000221,-0
 .00000431,-0.00000246,0.00003166,-0.00002618,0.00019004,-0.00605631,0.
 00016328,-0.00746643,0.00292901,-0.01668278,0.00933994,0.00875032,0.00
 583181,0.01237596,0.00610344,-0.05413882,-0.06589132,0.00346459,-0.001
 81606,0.00782161,0.02256372,-0.02086671,-0.06305648,0.00192649,-0.0037
 9987,0.00766692,0.00046431,0.00424254,0.00322090,-0.00936382,-0.002086
 13,0.00297645,-0.00008978,0.00006519,-0.00006505,0.00000132,-0.0000122
 1,0.00000665,0.00001006,-0.00000060,-0.00000316,0.00000807,-0.00000917
 ,-0.00000322,0.00005236,0.00002411,-0.00001264,-0.00001255,-0.00000694
 ,0.00000229,0.00012856,-0.00012687,0.00001051,-0.00000476,0.00000009,-
 0.00000203,-0.11790544,0.16814401,0.14339001,-0.00000932,-0.00001517,0
 .00001533,-0.00000321,-0.00000668,-0.00008517,0.00003782,-0.00006841,0
 .00013035,0.00001384,0.00000890,0.00006166,-0.00001253,-0.00002684,-0.
 00000549,-0.00000471,-0.00001445,-0.00000122,0.00000438,0.00000983,-0.
 00000461,-0.00000365,0.00001208,0.00002158,-0.00000263,-0.00000782,-0.
 00000780,-0.00085285,0.00112206,-0.00155553,-0.00004188,-0.00015379,0.
 00016389,0.00008624,0.00002632,-0.00008741,0.00006985,0.00004193,-0.00
 002288,-0.00004080,0.00003094,0.00003256,0.00000306,-0.00001234,0.0000
 1689,-0.00006670,-0.00003045,-0.00002611,-0.00001130,-0.00000418,0.000
 01225,0.00001016,-0.00000048,-0.00000517,0.00000725,0.00000416,0.00000
 234,0.00148828,-0.00095309,-0.00124493,-0.00031217,-0.00019802,-0.0003
 5951,0.00018838,0.00032339,-0.00026335,-0.00014959,0.00023990,-0.00000
 651,0.00011541,-0.00004976,-0.00000651,-0.00015714,0.00006433,0.000123
 31,0.00001921,-0.00007957,0.00006071,-0.00000935,0.00005102,-0.0000577
 0,-0.00002985,0.00000173,-0.00006307,-0.00000577,-0.00000873,-0.000014
 74,-0.00000051,-0.00000738,-0.00000203,0.00023953,-0.00024826,0.000337
 45,-0.00176377,-0.00032867,0.00303310,0.00289109,-0.00439596,-0.000001
 76,-0.00252918,-0.00548903,-0.00065692,0.01293428,-0.00492422,-0.00463
 983,0.00062661,-0.00057019,0.00008096,-0.02124893,0.02142636,0.0084894
 9,-0.00055435,0.00086481,0.00040297,0.00039906,-0.00015529,-0.00075446
 ,0.00086401,0.00006041,-0.00053125,-0.00012588,0.00009159,-0.00001166,
 0.00002059,-0.00002421,0.00001006,0.00002260,-0.00000923,0.00000496,0.
 00001184,-0.00001041,-0.00001166,0.00007106,0.00002826,-0.00000021,-0.
 00001592,-0.00000703,0.00000596,0.00004928,0.00008940,-0.00013303,0.00
 001653,-0.00001328,-0.00004037,-0.27785719,0.17309789,0.08770804,0.285
 61884,0.00002636,0.00002765,-0.00000175,0.00000733,0.00002476,0.000074
 24,-0.00006115,0.00004346,-0.00013013,-0.00000024,0.00001077,-0.000017
 81,0.00000472,0.00000106,0.00000301,0.00000427,0.00001133,0.00000196,-
 0.00001102,-0.00000320,-0.00000709,0.00000283,-0.00000905,-0.00002101,
 0.00000235,0.00000692,0.00000565,0.00075172,-0.00094546,0.00138092,0.0
 0006001,0.00006580,-0.00014519,-0.00002596,-0.00003558,0.00002890,-0.0
 0004633,-0.00002584,0.00000577,0.00004594,-0.00001135,-0.00003114,0.00
 002862,-0.00000097,0.00002112,0.00004784,0.00002147,0.00002034,0.00000
 952,0.00000323,-0.00000802,-0.00000973,0.00000288,0.00000395,-0.000005
 31,-0.00000287,-0.00000199,-0.00108731,0.00112193,0.00113413,0.0002630
 9,0.00010274,0.00035329,-0.00018920,-0.00024362,0.00018559,0.00004535,
 -0.00016894,-0.00013659,-0.00007412,0.00003356,-0.00001604,0.00016998,
 -0.00018227,0.00001348,-0.00004202,0.00011007,0.00003011,-0.00000926,-
 0.00003158,0.00005692,0.00003520,-0.00001611,0.00004824,0.00000461,0.0
 0001360,-0.00000553,-0.00000027,0.00000551,0.00000047,-0.00021325,0.00
 020225,-0.00028538,0.00009663,-0.00132950,-0.00275621,-0.00481113,-0.0
 0373080,-0.00078883,-0.00496361,0.00175686,-0.00067784,0.02625318,-0.0
 1837654,-0.00829630,0.00099777,-0.00042083,-0.00050831,-0.00936705,0.0
 1418080,0.00672196,-0.00075433,0.00069104,-0.00014936,0.00005219,0.000
 68625,0.00081718,-0.00015560,0.00020131,0.00095054,0.00009816,-0.00008
 833,0.00000855,-0.00001524,0.00001905,-0.00000800,-0.00002074,0.000009
 24,-0.00000518,-0.00001098,0.00000948,0.00001055,-0.00006571,-0.000022
 09,0.00001685,0.00001595,0.00000651,-0.00000350,0.00008159,0.00002038,
 0.00012764,-0.00001534,0.00001779,0.00003857,0.17263208,-0.21793957,-0
 .08082661,-0.17978238,0.22417679,0.00000683,0.00001247,-0.00000384,0.0
 0000506,0.00001476,0.00004934,-0.00003817,0.00004516,-0.00004907,-0.00
 000638,-0.00000172,-0.00001283,-0.00000297,-0.00000261,0.00000030,0.00
 000530,0.00000288,0.00000216,-0.00000595,-0.00000306,-0.00000055,0.000
 00005,0.00000041,-0.00000123,0.00000231,0.00000028,0.00000088,0.000043
 37,-0.00006405,0.00009035,0.00002342,0.00005285,-0.00006562,-0.0000200
 0,-0.00001740,0.00001116,-0.00002422,0.00000593,-0.00000639,-0.0000073
 1,-0.00001561,0.00000328,-0.00000579,0.00001652,0.00000472,0.00002652,
 0.00000166,0.00001689,0.00000083,0.00000042,-0.00000006,-0.00000113,-0
 .00000303,0.00000446,-0.00000141,-0.00000024,-0.00000097,-0.00004298,0
 .00009819,-0.00001830,0.00005053,0.00006242,-0.00003804,-0.00007312,-0
 .00002307,-0.00008144,-0.00001466,0.00004192,-0.00001790,0.00000818,-0
 .00001830,-0.00004037,-0.00003888,-0.00002298,0.00002995,0.00000240,0.
 00001479,-0.00002873,0.00000096,-0.00000241,-0.00000443,0.00000624,-0.
 00000569,-0.00000962,0.00000365,0.00000166,-0.00000420,-0.00000013,0.0
 0000082,0.00000026,-0.00003398,0.00003314,-0.00009290,0.00027588,-0.00
 026658,-0.00106365,-0.00088884,-0.00057948,0.00457120,-0.00075804,-0.0
 0011879,0.00445064,0.00203911,-0.00097799,-0.00466294,0.00040473,-0.00
 021739,0.00125601,-0.00181162,0.00249754,-0.00312602,0.00000956,-0.000
 30464,0.00123947,-0.00081690,0.00066528,-0.00238188,-0.00043252,0.0010
 2978,-0.00228544,0.00002220,-0.00002013,0.00002619,-0.00000083,0.00000
 354,-0.00000030,-0.00000469,0.00000138,0.00000175,-0.00000246,0.000002
 21,0.00000273,-0.00001337,-0.00000769,-0.00001433,0.00000343,0.0000021
 1,-0.00000095,0.00001926,0.00002699,0.00001706,0.00000806,-0.00000802,
 -0.00000523,0.09219140,-0.08472209,-0.04939811,-0.09011294,0.08276785,
 0.05163657\\-0.00001124,0.00000211,-0.00001337,0.00001094,0.00001709,0
 .00000424,0.00001134,-0.00003907,-0.00001784,0.00009911,-0.00007840,0.
 00004195,0.00000657,0.00000317,-0.00000595,0.00000016,0.00000022,-0.00
 000263,-0.00000252,0.00000135,0.00000053,-0.00011398,-0.00016029,-0.00
 008310,0.00000614,-0.00000076,-0.00000378,-0.00011732,0.00000958,-0.00
 003902,-0.00004135,0.00011490,-0.00005896,-0.00002887,-0.00007847,-0.0
 0001469,-0.00005631,0.00006107,-0.00004948,-0.00001804,0.00000999,0.00
 000765,-0.00001378,0.00001526,0.00000370,0.00003770,0.00001069,0.00001
 818,0.00009561,0.00004785,0.00007063,-0.00001088,-0.00000619,0.0000191
 0,0.00000418,0.00000076,0.00000892,-0.00000453,0.00002794,-0.00001372,
 0.00005303,-0.00002630,0.00008694,0.00003213,0.00001480,0.00000668,0.0
 0000623,-0.00000089,0.00000296,0.00006573,-0.00003627,0.00009281,-0.00
 000291,0.00001651,-0.00000444,-0.00005544,0.00006954,-0.00006162,0.000
 01668,0.00000275,0.00000370,0.00001423,0.00000136,-0.00001453,0.000002
 37,-0.00000802,-0.00000480,0.00000204,0.00000631,-0.00000466,0.0000151
 9,0.00002005,0.00000762,0.00001354,-0.00004893,0.00000463,-0.00003017,
 0.00002645,0.00003646,-0.00000600,0.00001619,-0.00005056,-0.00000774,-
 0.00000786,-0.00001291,0.00000790,0.00001120,-0.00000945,-0.00001561,0
 .00001697,-0.00000305,0.00005618,-0.00002438,0.00000413,-0.00000195,-0
 .00000102,-0.00001030,-0.00000571,-0.00000053,-0.00000506,-0.00001981,
 -0.00000184,0.00001135,-0.00001396,-0.00000164,0.00000445,-0.00000112,
 0.00000214,0.00001229,-0.00000352,-0.00000876,0.00002524,-0.00001826,0
 .00000818,0.00002120,0.00000630,-0.00001566,0.00001665,0.00001498,-0.0
 0000241,-0.00000783,0.00001598,0.00000459,-0.00000510,0.00001377,-0.00
 000053,-0.00000591,-0.00000703,0.00000922,-0.00000927\\\@


 IN SO FAR AS QUANTUM MECHANICS IS CORRECT, CHEMICAL 
 QUESTIONS ARE PROBLEMS IN APPLIED MATHEMATICS.

                    -- EYRING, WALTER, & KIMBALL, 1944
 Job cpu time:       1 days 11 hours  7 minutes 10.9 seconds.
 Elapsed time:       0 days  1 hours 27 minutes 58.4 seconds.
 File lengths (MBytes):  RWF=   2304 Int=      0 D2E=      0 Chk=     48 Scr=     16
 Normal termination of Gaussian 16 at Sat Mar 31 12:16:18 2018.
