Job Start Time: Tue Mar 20 20:15:33 MDT 2018
SLURM Job ID: 708200
SLURM Job Name: TS_Int3_1Pyrax_SMD
 Entering Gaussian System, Link 0=/projects/user/g16/g16
 Initial command:
 /projects/user/g16/l1.exe "/gpfs/summit/scratch/user/708200/Gau-79786.inp" -scrdir="/gpfs/summit/scratch/user/708200/"
 Entering Link 1 = /projects/user/g16/l1.exe PID=     79787.
  
 Copyright (c) 1988,1990,1992,1993,1995,1998,2003,2009,2016,
            Gaussian, Inc.  All Rights Reserved.
  
 This is part of the Gaussian(R) 16 program.  It is based on
 the Gaussian(R) 09 system (copyright 2009, Gaussian, Inc.),
 the Gaussian(R) 03 system (copyright 2003, Gaussian, Inc.),
 the Gaussian(R) 98 system (copyright 1998, Gaussian, Inc.),
 the Gaussian(R) 94 system (copyright 1995, Gaussian, Inc.),
 the Gaussian 92(TM) system (copyright 1992, Gaussian, Inc.),
 the Gaussian 90(TM) system (copyright 1990, Gaussian, Inc.),
 the Gaussian 88(TM) system (copyright 1988, Gaussian, Inc.),
 the Gaussian 86(TM) system (copyright 1986, Carnegie Mellon
 University), and the Gaussian 82(TM) system (copyright 1983,
 Carnegie Mellon University). Gaussian is a federally registered
 trademark of Gaussian, Inc.
  
 This software contains proprietary and confidential information,
 including trade secrets, belonging to Gaussian, Inc.
  
 This software is provided under written license and may be
 used, copied, transmitted, or stored only in accord with that
 written license.
  
 The following legend is applicable only to US Government
 contracts under FAR:
  
                    RESTRICTED RIGHTS LEGEND
  
 Use, reproduction and disclosure by the US Government is
 subject to restrictions as set forth in subparagraphs (a)
 and (c) of the Commercial Computer Software - Restricted
 Rights clause in FAR 52.227-19.
  
 Gaussian, Inc.
 340 Quinnipiac St., Bldg. 40, Wallingford CT 06492
  
  
 ---------------------------------------------------------------
 Warning -- This program may not be used in any manner that
 competes with the business of Gaussian, Inc. or will provide
 assistance to any competitor of Gaussian, Inc.  The licensee
 of this program is prohibited from giving any competitor of
 Gaussian, Inc. access to this program.  By using this program,
 the user acknowledges that Gaussian, Inc. is engaged in the
 business of creating and licensing software in the field of
 computational chemistry and represents and warrants to the
 licensee that it is not a competitor of Gaussian, Inc. and that
 it will not use this program in any manner prohibited above.
 ---------------------------------------------------------------
  

 Cite this work as:
 Gaussian 16, Revision A.03,
 M. J. Frisch, G. W. Trucks, H. B. Schlegel, G. E. Scuseria, 
 M. A. Robb, J. R. Cheeseman, G. Scalmani, V. Barone, 
 G. A. Petersson, H. Nakatsuji, X. Li, M. Caricato, A. V. Marenich, 
 J. Bloino, B. G. Janesko, R. Gomperts, B. Mennucci, H. P. Hratchian, 
 J. V. Ortiz, A. F. Izmaylov, J. L. Sonnenberg, D. Williams-Young, 
 F. Ding, F. Lipparini, F. Egidi, J. Goings, B. Peng, A. Petrone, 
 T. Henderson, D. Ranasinghe, V. G. Zakrzewski, J. Gao, N. Rega, 
 G. Zheng, W. Liang, M. Hada, M. Ehara, K. Toyota, R. Fukuda, 
 J. Hasegawa, M. Ishida, T. Nakajima, Y. Honda, O. Kitao, H. Nakai, 
 T. Vreven, K. Throssell, J. A. Montgomery, Jr., J. E. Peralta, 
 F. Ogliaro, M. J. Bearpark, J. J. Heyd, E. N. Brothers, K. N. Kudin, 
 V. N. Staroverov, T. A. Keith, R. Kobayashi, J. Normand, 
 K. Raghavachari, A. P. Rendell, J. C. Burant, S. S. Iyengar, 
 J. Tomasi, M. Cossi, J. M. Millam, M. Klene, C. Adamo, R. Cammi, 
 J. W. Ochterski, R. L. Martin, K. Morokuma, O. Farkas, 
 J. B. Foresman, and D. J. Fox, Gaussian, Inc., Wallingford CT, 2016.
 
 ******************************************
 Gaussian 16:  ES64L-G16RevA.03 25-Dec-2016
                20-Mar-2018 
 ******************************************
 %chk=T443teqwdrScan_ang.chk
 %nprocshared=24
 Will use up to   24 processors via shared memory.
 %mem=98GB
 ----------------------------------------------------------------------
 # opt=(calcfc,qst3,maxcycle=600) scrf=(solvent=ethanol,smd) freq=noram
 an wb97xd/6-31+g(d) geom=connectivity
 ----------------------------------------------------------------------
 1/5=1,6=600,10=4,18=20,26=3,27=203,38=1,57=2/1,3;
 2/9=110,12=2,17=6,18=5,40=1/2;
 3/5=1,6=6,7=11,11=2,25=1,30=1,70=32201,71=2,72=4,74=-58,140=1/1,2,3;
 4//1;
 5/5=2,38=5,53=4/2;
 8/6=4,10=90,11=11/1;
 11/6=1,8=1,9=11,15=111,16=1/1,2,10;
 10/6=1,13=1/2;
 6/7=2,8=2,9=2,10=2,28=1/1;
 7/10=1,18=20,25=1/1,2,3,16;
 1/5=1,6=600,10=4,18=20,26=3,27=203/3(2);
 2/9=110/2;
 99//99;
 2/9=110/2;
 3/5=1,6=6,7=11,11=2,25=1,30=1,70=32205,71=1,72=4,74=-58/1,2,3;
 4/5=5,16=3,69=1/1;
 5/5=2,38=5,53=4/2;
 7//1,2,3,16;
 1/5=1,6=600,18=20,26=3,27=203/3(-5);
 2/9=110/2;
 6/7=2,8=2,9=2,10=2,19=2,28=1/1;
 99/9=1/99;
 -------------------
 Title Card Required
 -------------------
 Symbolic Z-matrix:
 Charge =  2 Multiplicity = 1
 C                    -3.8743    0.70238   1.33864 
 C                    -2.58198   0.94021   0.88042 
 C                    -2.03185   0.12822  -0.1179 
 C                    -2.80096  -0.90483  -0.66944 
 C                    -4.09043  -1.14199  -0.19868 
 H                    -4.29119   1.33997   2.11277 
 H                    -2.0203    1.76518   1.30385 
 H                    -2.41657  -1.52955  -1.4694 
 H                    -4.67467  -1.94997  -0.62916 
 P                    -0.36979   0.46442  -0.75576 
 C                     0.67363  -0.97557  -1.12347 
 C                     1.97951  -0.70484  -1.59445 
 C                     0.2599   -2.32906  -1.08959 
 C                     2.84698  -1.74021  -1.84062 
 H                     2.33223   0.30869  -1.74642 
 C                     1.16377  -3.32086  -1.36104 
 H                    -0.74037  -2.61829  -0.79623 
 H                     3.8683   -1.59456  -2.16997 
 H                     0.9146   -4.37388  -1.32486 
 C                     0.55387  -0.65501   1.09458 
 C                     1.88901  -0.49541   1.49416 
 C                    -0.25482  -1.47137   1.90081 
 C                     2.37552  -1.12601   2.61675 
 H                     2.57662   0.12574   0.92478 
 C                     0.26088  -2.09199   3.01942 
 H                    -1.30261  -1.64166   1.67129 
 H                     3.39522  -1.03821   2.97184 
 H                    -0.31422  -2.72992   3.67993 
 C                    -4.62732  -0.34397   0.80858 
 H                    -5.63365  -0.52997   1.1729 
 O                    -0.69722   1.05853  -2.26066 
 C                     0.48103   1.96944  -0.18555 
 C                     0.5217    2.3295    1.16776 
 C                     1.11083   2.78898  -1.13187 
 C                     1.16613   3.49651   1.56375 
 H                     0.0619    1.70549   1.92568 
 C                     1.77862   3.94166  -0.72534 
 H                     1.08469   2.53087  -2.18411 
 H                     1.17768   3.76926   2.6149 
 H                     2.27435   4.56053  -1.46757 
 C                    -1.28507   0.28812  -3.31038 
 H                    -2.37136   0.24258  -3.18554 
 H                    -1.0489    0.80601  -4.24208 
 H                    -0.87223  -0.72615  -3.35016 
 C                     1.80237   4.30143   0.61986 
 H                     2.31598   5.20602   0.93328 
 N                     1.55315  -1.90717   3.34421 
 N                     2.43279  -3.01269  -1.70487 
 H                     1.92227  -2.36835   4.17244 
 H                     3.08304  -3.76727  -1.91014 
 
 Add virtual bond connecting atoms C20        and P10        Dist= 4.44D+00.
 Add virtual bond connecting atoms C20        and C11        Dist= 4.24D+00.
 -------------------
 Title Card Required
 -------------------
 Symbolic Z-matrix:
 Charge =  2 Multiplicity = 1
 C                    -3.44248   2.14745   0.74554 
 C                    -2.17564   1.81812   0.2737 
 C                    -1.92569   0.53505  -0.22854 
 C                    -2.97729  -0.39179  -0.30569 
 C                    -4.24106  -0.05296   0.16706 
 H                    -3.62163   3.1435    1.13902 
 H                    -1.40217   2.57581   0.2922 
 H                    -2.84019  -1.37251  -0.74704 
 H                    -5.04543  -0.77979   0.10562 
 P                    -0.32317   0.10512  -0.94445 
 C                     0.32983  -1.4674   -0.43672 
 C                     1.63264  -1.79547  -1.02401 
 C                    -0.47388  -2.64173  -0.08345 
 C                     2.12711  -3.05284  -0.93587 
 H                     2.2366   -1.03446  -1.50343 
 C                     0.10191  -3.86399  -0.02481 
 H                    -1.50376  -2.54422   0.22896 
 H                     3.10387  -3.31803  -1.32342 
 H                    -0.4456   -4.74317   0.29368 
 C                     0.59819  -0.53875   1.27148 
 C                     1.93035  -0.33571   1.62295 
 C                    -0.38179  -0.51062   2.26168 
 C                     2.2524   -0.03628   2.92893 
 H                     2.7275   -0.39986   0.88729 
 C                    -0.02091  -0.19816   3.55797 
 H                    -1.42536  -0.72105   2.05313 
 H                     3.25973   0.14887   3.28108 
 H                    -0.72155  -0.13144   4.38136 
 C                    -4.4728    1.21081   0.7058 
 H                    -5.45941   1.47076   1.07847 
 O                    -0.55601   0.06832  -2.5454 
 C                     0.90563   1.43804  -0.88876 
 C                     1.08896   2.27765   0.21957 
 C                     1.69279   1.62756  -2.03323 
 C                     2.03948   3.29046   0.17707 
 H                     0.50756   2.15132   1.12606 
 C                     2.65316   2.63521  -2.06122 
 H                     1.56197   0.99399  -2.90329 
 H                     2.16648   3.93761   1.03968 
 H                     3.26153   2.76663  -2.95097 
 C                    -1.38368  -0.91517  -3.1926 
 H                    -2.4361   -0.63739  -3.09127 
 H                    -1.09687  -0.89783  -4.24449 
 H                    -1.20863  -1.91277  -2.78011 
 C                     2.82604   3.46935  -0.96008 
 H                     3.57148   4.25919  -0.98656 
 N                     1.27043   0.03681   3.84662 
 N                     1.40174  -4.06834  -0.39097 
 H                     1.51958   0.25588   4.8095 
 H                     1.78116  -5.00676  -0.38565 
 
 Add virtual bond connecting atoms C20        and C11        Dist= 3.71D+00.
 -------------------
 Title Card Required
 -------------------
 Symbolic Z-matrix:
 Charge =  2 Multiplicity = 1
 C                    -3.71806   1.10924   1.35504 
 C                    -2.42454   1.20822   0.85207 
 C                    -1.98916   0.3237   -0.1421 
 C                    -2.88025  -0.6289   -0.65691 
 C                    -4.17138  -0.72319  -0.14484 
 H                    -4.04324   1.79895   2.1282 
 H                    -1.77439   1.98458   1.23658 
 H                    -2.59575  -1.29426  -1.46487 
 H                    -4.85113  -1.46834  -0.54721 
 P                    -0.33859   0.4875   -0.85753 
 C                     0.58527  -1.03135  -1.06741 
 C                     1.94262  -0.88388  -1.5049 
 C                     0.02938  -2.34913  -1.17619 
 C                     2.70125  -1.98812  -1.76543 
 H                     2.4031    0.09171  -1.60432 
 C                     0.84257  -3.40705  -1.44835 
 H                    -1.01292  -2.54851  -0.97009 
 H                     3.74217  -1.92963  -2.05929 
 H                     0.48098  -4.42682  -1.49275 
 C                     0.54661  -0.81849   1.08149 
 C                     1.85365  -0.723     1.56832 
 C                    -0.3984   -1.47691   1.87748 
 C                     2.17974  -1.22796   2.80783 
 H                     2.63976  -0.24826   0.98533 
 C                    -0.04037  -1.97275   3.11433 
 H                    -1.42671  -1.61377   1.55612 
 H                     3.16804  -1.17532   3.2483 
 H                    -0.72365  -2.47663   3.78739 
 C                    -4.58951   0.13735   0.86755 
 H                    -5.59714   0.06016   1.2658 
 O                    -0.60316   1.07523  -2.35304 
 C                     0.66224   1.87053  -0.24331 
 C                     0.76043   2.19397   1.11658 
 C                     1.35578   2.64286  -1.18599 
 C                     1.53376   3.27597   1.5228 
 H                     0.2458    1.61054   1.8711 
 C                     2.14301   3.71277  -0.76927 
 H                     1.28747   2.41216  -2.24297 
 H                     1.5939    3.52109   2.57901 
 H                     2.68347   4.29633  -1.50866 
 C                    -1.2819    0.34219  -3.38293 
 H                    -2.36251   0.37732  -3.21931 
 H                    -1.03754   0.84521  -4.31959 
 H                    -0.93646  -0.6955   -3.42677 
 C                     2.23074   4.03374   0.58302 
 H                     2.84004   4.87354   0.90498 
 N                     1.22658  -1.83067   3.54436 
 N                     2.16282  -3.22606  -1.70235 
 H                     1.47496  -2.19992   4.45931 
 H                     2.73921  -4.03076  -1.92625 
 

 GradGradGradGradGradGradGradGradGradGradGradGradGradGradGradGradGradGrad
 Berny optimization.
 Initialization pass.
                           ----------------------------
                           !    Initial Parameters    !
                           ! (Angstroms and Degrees)  !
 --------------------------                            --------------------------
 ! Name  Definition         TS        Reactant Product Derivative Info.         !
 --------------------------------------------------------------------------------
 ! R1    R(1,2)             1.3914    1.3916    1.3914 calculate D2E/DX2 analyti!
 ! R2    R(1,6)             1.0859    1.0861    1.0858 calculate D2E/DX2 analyti!
 ! R3    R(1,29)            1.3934    1.3939    1.393  calculate D2E/DX2 analyti!
 ! R4    R(2,3)             1.4001    1.3995    1.4004 calculate D2E/DX2 analyti!
 ! R5    R(2,7)             1.0832    1.0841    1.0829 calculate D2E/DX2 analyti!
 ! R6    R(3,4)             1.4023    1.401     1.4039 calculate D2E/DX2 analyti!
 ! R7    R(3,10)            1.8064    1.8117    1.8071 calculate D2E/DX2 analyti!
 ! R8    R(4,5)             1.3922    1.3931    1.3912 calculate D2E/DX2 analyti!
 ! R9    R(4,8)             1.0846    1.0853    1.0842 calculate D2E/DX2 analyti!
 ! R10   R(5,9)             1.0859    1.086     1.0859 calculate D2E/DX2 analyti!
 ! R11   R(5,29)            1.3929    1.3927    1.3932 calculate D2E/DX2 analyti!
 ! R12   R(10,11)           1.7901    1.8159    1.7768 calculate D2E/DX2 analyti!
 ! R13   R(10,20)           2.4998    2.3516    2.4847 calculate D2E/DX2 analyti!
 ! R14   R(10,31)           1.6285    1.6507    1.6182 calculate D2E/DX2 analyti!
 ! R15   R(10,32)           1.8143    1.8205    1.8138 calculate D2E/DX2 analyti!
 ! R16   R(11,12)           1.4337    1.4144    1.4662 calculate D2E/DX2 analyti!
 ! R17   R(11,13)           1.4344    1.4157    1.4662 calculate D2E/DX2 analyti!
 ! R18   R(11,20)           2.1598    2.2443    1.9627 calculate D2E/DX2 analyti!
 ! R19   R(12,14)           1.3648    1.373     1.354  calculate D2E/DX2 analyti!
 ! R20   R(12,15)           1.0834    1.0839    1.0834 calculate D2E/DX2 analyti!
 ! R21   R(13,16)           1.3618    1.3691    1.3524 calculate D2E/DX2 analyti!
 ! R22   R(13,17)           1.081     1.0818    1.0806 calculate D2E/DX2 analyti!
 ! R23   R(14,18)           1.0832    1.083     1.0838 calculate D2E/DX2 analyti!
 ! R24   R(14,48)           1.3514    1.3451    1.3617 calculate D2E/DX2 analyti!
 ! R25   R(16,19)           1.0829    1.0827    1.0836 calculate D2E/DX2 analyti!
 ! R26   R(16,48)           1.3566    1.3504    1.3658 calculate D2E/DX2 analyti!
 ! R27   R(20,21)           1.398     1.4028    1.3926 calculate D2E/DX2 analyti!
 ! R28   R(20,22)           1.4001    1.4037    1.3934 calculate D2E/DX2 analyti!
 ! R29   R(21,23)           1.3776    1.3764    1.378  calculate D2E/DX2 analyti!
 ! R30   R(21,24)           1.0878    1.0876    1.0866 calculate D2E/DX2 analyti!
 ! R31   R(22,25)           1.3798    1.3793    1.3814 calculate D2E/DX2 analyti!
 ! R32   R(22,26)           1.086     1.0861    1.0848 calculate D2E/DX2 analyti!
 ! R33   R(23,27)           1.0833    1.0833    1.0831 calculate D2E/DX2 analyti!
 ! R34   R(23,47)           1.3469    1.3475    1.346  calculate D2E/DX2 analyti!
 ! R35   R(25,28)           1.0834    1.0835    1.0832 calculate D2E/DX2 analyti!
 ! R36   R(25,47)           1.3455    1.3452    1.3439 calculate D2E/DX2 analyti!
 ! R37   R(29,30)           1.0862    1.0863    1.0862 calculate D2E/DX2 analyti!
 ! R38   R(31,41)           1.4348    1.4286    1.4392 calculate D2E/DX2 analyti!
 ! R39   R(32,33)           1.4013    1.401     1.4025 calculate D2E/DX2 analyti!
 ! R40   R(32,34)           1.4022    1.4014    1.4019 calculate D2E/DX2 analyti!
 ! R41   R(33,35)           1.3906    1.3907    1.3896 calculate D2E/DX2 analyti!
 ! R42   R(33,36)           1.0838    1.0841    1.0843 calculate D2E/DX2 analyti!
 ! R43   R(34,37)           1.3922    1.3928    1.3923 calculate D2E/DX2 analyti!
 ! R44   R(34,38)           1.084     1.0837    1.0842 calculate D2E/DX2 analyti!
 ! R45   R(35,39)           1.0859    1.086     1.0858 calculate D2E/DX2 analyti!
 ! R46   R(35,45)           1.394     1.3941    1.3942 calculate D2E/DX2 analyti!
 ! R47   R(37,40)           1.086     1.0861    1.0858 calculate D2E/DX2 analyti!
 ! R48   R(37,45)           1.3926    1.3927    1.3922 calculate D2E/DX2 analyti!
 ! R49   R(41,42)           1.0935    1.0944    1.0932 calculate D2E/DX2 analyti!
 ! R50   R(41,43)           1.0909    1.0918    1.0904 calculate D2E/DX2 analyti!
 ! R51   R(41,44)           1.0946    1.0958    1.0936 calculate D2E/DX2 analyti!
 ! R52   R(45,46)           1.0864    1.0864    1.0864 calculate D2E/DX2 analyti!
 ! R53   R(47,49)           1.0174    1.0173    1.0184 calculate D2E/DX2 analyti!
 ! R54   R(48,50)           1.0148    1.017     1.0122 calculate D2E/DX2 analyti!
 ! A1    A(2,1,6)         119.3786  119.3944  119.3558 calculate D2E/DX2 analyti!
 ! A2    A(2,1,29)        120.3018  120.316   120.3057 calculate D2E/DX2 analyti!
 ! A3    A(6,1,29)        120.3191  120.2896  120.3374 calculate D2E/DX2 analyti!
 ! A4    A(1,2,3)         120.0548  120.0506  120.0667 calculate D2E/DX2 analyti!
 ! A5    A(1,2,7)         118.7291  118.8532  118.6144 calculate D2E/DX2 analyti!
 ! A6    A(3,2,7)         121.2126  121.0942  121.3132 calculate D2E/DX2 analyti!
 ! A7    A(2,3,4)         119.4871  119.5264  119.4004 calculate D2E/DX2 analyti!
 ! A8    A(2,3,10)        120.5358  120.2716  121.2232 calculate D2E/DX2 analyti!
 ! A9    A(4,3,10)        119.79    120.122   119.0417 calculate D2E/DX2 analyti!
 ! A10   A(3,4,5)         120.0198  120.0423  120.0661 calculate D2E/DX2 analyti!
 ! A11   A(3,4,8)         121.5677  121.3419  121.6587 calculate D2E/DX2 analyti!
 ! A12   A(5,4,8)         118.4051  118.6144  118.2634 calculate D2E/DX2 analyti!
 ! A13   A(4,5,9)         119.3887  119.3841  119.3846 calculate D2E/DX2 analyti!
 ! A14   A(4,5,29)        120.2567  120.2444  120.2271 calculate D2E/DX2 analyti!
 ! A15   A(9,5,29)        120.353   120.3701  120.3869 calculate D2E/DX2 analyti!
 ! A16   A(3,10,11)       116.1719  116.8256  115.0413 calculate D2E/DX2 analyti!
 ! A17   A(3,10,20)        88.222    89.7119   92.1304 calculate D2E/DX2 analyti!
 ! A18   A(3,10,31)       104.3586  101.8757  105.6498 calculate D2E/DX2 analyti!
 ! A19   A(3,10,32)       116.0458  118.157   114.4433 calculate D2E/DX2 analyti!
 ! A20   A(11,10,31)      106.4033  102.4023  108.3888 calculate D2E/DX2 analyti!
 ! A21   A(11,10,32)      113.6897  116.773   113.1193 calculate D2E/DX2 analyti!
 ! A22   L(20,10,31,3,-1)  192.5807  191.5876  197.7802 calculate D2E/DX2 analyt!
 ! A23   L(20,10,31,3,-2)  190.9336  189.3676  192.4038 calculate D2E/DX2 analyt!
 ! A24   A(20,10,32)       86.5783   87.909    84.9417 calculate D2E/DX2 analyti!
 ! A25   A(31,10,32)       97.2043   94.6293   98.3125 calculate D2E/DX2 analyti!
 ! A26   A(10,11,12)      115.9195  116.4984  114.2121 calculate D2E/DX2 analyti!
 ! A27   A(10,11,13)      126.0428  125.8289  125.1863 calculate D2E/DX2 analyti!
 ! A28   A(10,11,20)       77.906    69.8761   83.1196 calculate D2E/DX2 analyti!
 ! A29   A(12,11,13)      115.9931  117.4379  113.8508 calculate D2E/DX2 analyti!
 ! A30   A(12,11,20)      108.0846  110.5506  109.4494 calculate D2E/DX2 analyti!
 ! A31   A(13,11,20)       99.1527   95.5841  104.1346 calculate D2E/DX2 analyti!
 ! A32   A(11,12,14)      120.0838  119.9148  120.4111 calculate D2E/DX2 analyti!
 ! A33   A(11,12,15)      121.5355  121.7456  121.0247 calculate D2E/DX2 analyti!
 ! A34   A(14,12,15)      118.3467  118.3215  118.5248 calculate D2E/DX2 analyti!
 ! A35   A(11,13,16)      119.8306  119.664   120.0616 calculate D2E/DX2 analyti!
 ! A36   A(11,13,17)      121.9147  122.1619  121.3185 calculate D2E/DX2 analyti!
 ! A37   A(16,13,17)      118.0713  118.0699  118.3456 calculate D2E/DX2 analyti!
 ! A38   A(12,14,18)      122.8366  123.2955  122.2138 calculate D2E/DX2 analyti!
 ! A39   A(12,14,48)      120.7146  120.0502  121.604  calculate D2E/DX2 analyti!
 ! A40   A(18,14,48)      116.4233  116.6375  116.149  calculate D2E/DX2 analyti!
 ! A41   A(13,16,19)      122.7083  123.0935  122.0673 calculate D2E/DX2 analyti!
 ! A42   A(13,16,48)      120.9918  120.37    121.9245 calculate D2E/DX2 analyti!
 ! A43   A(19,16,48)      116.2914  116.5341  115.9943 calculate D2E/DX2 analyti!
 ! A44   A(10,20,21)      124.4363  122.9439  122.8206 calculate D2E/DX2 analyti!
 ! A45   A(10,20,22)      116.5952  120.1645  111.5757 calculate D2E/DX2 analyti!
 ! A46   A(11,20,21)      109.6621  104.299   114.7982 calculate D2E/DX2 analyti!
 ! A47   A(11,20,22)      122.1013  121.0182  122.1305 calculate D2E/DX2 analyti!
 ! A48   A(21,20,22)      117.7221  116.8015  119.371  calculate D2E/DX2 analyti!
 ! A49   A(20,21,23)      120.6373  121.1054  119.6318 calculate D2E/DX2 analyti!
 ! A50   A(20,21,24)      121.2531  121.1726  121.4849 calculate D2E/DX2 analyti!
 ! A51   A(23,21,24)      118.1095  117.7211  118.8815 calculate D2E/DX2 analyti!
 ! A52   A(20,22,25)      120.2318  120.8033  119.1881 calculate D2E/DX2 analyti!
 ! A53   A(20,22,26)      122.015   121.7095  122.4134 calculate D2E/DX2 analyti!
 ! A54   A(25,22,26)      117.7527  117.487   118.3978 calculate D2E/DX2 analyti!
 ! A55   A(21,23,27)      124.3327  124.2571  124.2399 calculate D2E/DX2 analyti!
 ! A56   A(21,23,47)      119.2437  119.3527  119.1724 calculate D2E/DX2 analyti!
 ! A57   A(27,23,47)      116.4235  116.3899  116.5878 calculate D2E/DX2 analyti!
 ! A58   A(22,25,28)      124.0813  124.1161  123.9364 calculate D2E/DX2 analyti!
 ! A59   A(22,25,47)      119.5308  119.5484  119.4805 calculate D2E/DX2 analyti!
 ! A60   A(28,25,47)      116.3866  116.3339  116.5825 calculate D2E/DX2 analyti!
 ! A61   A(1,29,5)        119.8307  119.7956  119.8622 calculate D2E/DX2 analyti!
 ! A62   A(1,29,30)       120.0956  120.0977  120.0741 calculate D2E/DX2 analyti!
 ! A63   A(5,29,30)       120.0677  120.1037  120.0554 calculate D2E/DX2 analyti!
 ! A64   A(10,31,41)      123.4796  123.8752  122.902  calculate D2E/DX2 analyti!
 ! A65   A(10,32,33)      122.8987  121.9112  123.5578 calculate D2E/DX2 analyti!
 ! A66   A(10,32,34)      117.7179  118.8163  117.0443 calculate D2E/DX2 analyti!
 ! A67   A(33,32,34)      119.3826  119.2724  119.3944 calculate D2E/DX2 analyti!
 ! A68   A(32,33,35)      120.136   120.2765  120.1034 calculate D2E/DX2 analyti!
 ! A69   A(32,33,36)      121.2057  121.004   121.3882 calculate D2E/DX2 analyti!
 ! A70   A(35,33,36)      118.6574  118.7178  118.5059 calculate D2E/DX2 analyti!
 ! A71   A(32,34,37)      120.1165  120.1569  120.1031 calculate D2E/DX2 analyti!
 ! A72   A(32,34,38)      120.4724  120.3667  120.5552 calculate D2E/DX2 analyti!
 ! A73   A(37,34,38)      119.4108  119.4763  119.3417 calculate D2E/DX2 analyti!
 ! A74   A(33,35,39)      119.3764  119.4243  119.3459 calculate D2E/DX2 analyti!
 ! A75   A(33,35,45)      120.2704  120.2115  120.289  calculate D2E/DX2 analyti!
 ! A76   A(39,35,45)      120.3523  120.3614  120.3645 calculate D2E/DX2 analyti!
 ! A77   A(34,37,40)      119.3793  119.4019  119.376  calculate D2E/DX2 analyti!
 ! A78   A(34,37,45)      120.2266  120.2585  120.2242 calculate D2E/DX2 analyti!
 ! A79   A(40,37,45)      120.3935  120.3382  120.3991 calculate D2E/DX2 analyti!
 ! A80   A(31,41,42)      110.0998  110.3075  109.7754 calculate D2E/DX2 analyti!
 ! A81   A(31,41,43)      105.9474  106.3925  105.7643 calculate D2E/DX2 analyti!
 ! A82   A(31,41,44)      111.3341  111.7647  111.2044 calculate D2E/DX2 analyti!
 ! A83   A(42,41,43)      109.5742  109.3774  109.7914 calculate D2E/DX2 analyti!
 ! A84   A(42,41,44)      110.3853  109.852   110.545  calculate D2E/DX2 analyti!
 ! A85   A(43,41,44)      109.3943  109.0606  109.649  calculate D2E/DX2 analyti!
 ! A86   A(35,45,37)      119.8583  119.8033  119.8798 calculate D2E/DX2 analyti!
 ! A87   A(35,45,46)      120.0563  120.0768  120.0184 calculate D2E/DX2 analyti!
 ! A88   A(37,45,46)      120.0854  120.1199  120.1018 calculate D2E/DX2 analyti!
 ! A89   A(23,47,25)      122.6045  122.3835  123.0293 calculate D2E/DX2 analyti!
 ! A90   A(23,47,49)      118.7756  118.7441  118.5416 calculate D2E/DX2 analyti!
 ! A91   A(25,47,49)      118.6182  118.8711  118.4084 calculate D2E/DX2 analyti!
 ! A92   A(14,48,16)      121.2447  122.0705  120.1763 calculate D2E/DX2 analyti!
 ! A93   A(14,48,50)      119.3251  118.9904  119.5901 calculate D2E/DX2 analyti!
 ! A94   A(16,48,50)      119.2263  118.8747  119.6056 calculate D2E/DX2 analyti!
 ! D1    D(6,1,2,3)       179.8084 -179.9162  179.566  calculate D2E/DX2 analyti!
 ! D2    D(6,1,2,7)        -0.8588   -0.429    -1.286  calculate D2E/DX2 analyti!
 ! D3    D(29,1,2,3)       -0.4299    0.0469   -0.8247 calculate D2E/DX2 analyti!
 ! D4    D(29,1,2,7)      178.9029  179.5342  178.3233 calculate D2E/DX2 analyti!
 ! D5    D(2,1,29,5)       -1.1617   -0.9779   -1.2662 calculate D2E/DX2 analyti!
 ! D6    D(2,1,29,30)     179.7217  179.6489  179.7786 calculate D2E/DX2 analyti!
 ! D7    D(6,1,29,5)      178.5977  178.9848  178.3393 calculate D2E/DX2 analyti!
 ! D8    D(6,1,29,30)      -0.5189   -0.3883   -0.616  calculate D2E/DX2 analyti!
 ! D9    D(1,2,3,4)         2.1973    1.3188    2.8169 calculate D2E/DX2 analyti!
 ! D10   D(1,2,3,10)      177.2158  178.0713  176.11   calculate D2E/DX2 analyti!
 ! D11   D(7,2,3,4)      -177.1187 -178.1567 -176.3076 calculate D2E/DX2 analyti!
 ! D12   D(7,2,3,10)       -2.1002   -1.4043   -3.0145 calculate D2E/DX2 analyti!
 ! D13   D(2,3,4,5)        -2.3879   -1.7607   -2.7437 calculate D2E/DX2 analyti!
 ! D14   D(2,3,4,8)       176.6072  177.8005  175.9868 calculate D2E/DX2 analyti!
 ! D15   D(10,3,4,5)     -177.444  -178.5181 -176.1841 calculate D2E/DX2 analyti!
 ! D16   D(10,3,4,8)        1.5511    1.0431    2.5464 calculate D2E/DX2 analyti!
 ! D17   D(2,3,10,11)     135.9583  141.4712  135.7112 calculate D2E/DX2 analyti!
 ! D18   D(2,3,10,20)      83.6747   81.4657   87.6184 calculate D2E/DX2 analyti!
 ! D19   D(2,3,10,31)    -107.259  -107.9019 -104.7854 calculate D2E/DX2 analyti!
 ! D20   D(2,3,10,32)      -1.6429   -6.0081    2.2075 calculate D2E/DX2 analyti!
 ! D21   D(4,3,10,11)     -49.0382  -41.7958  -50.9722 calculate D2E/DX2 analyti!
 ! D22   D(4,3,10,20)    -101.3219 -101.8013  -99.0649 calculate D2E/DX2 analyti!
 ! D23   D(4,3,10,31)      67.7445   68.8311   68.5312 calculate D2E/DX2 analyti!
 ! D24   D(4,3,10,32)     173.3606  170.7249  175.5241 calculate D2E/DX2 analyti!
 ! D25   D(3,4,5,9)      -179.6545 -179.58   -179.7516 calculate D2E/DX2 analyti!
 ! D26   D(3,4,5,29)        0.812     0.8396    0.6749 calculate D2E/DX2 analyti!
 ! D27   D(8,4,5,9)         1.3189    0.8469    1.4753 calculate D2E/DX2 analyti!
 ! D28   D(8,4,5,29)     -178.2146 -178.7335 -178.0982 calculate D2E/DX2 analyti!
 ! D29   D(4,5,29,1)        0.9686    0.5327    1.3387 calculate D2E/DX2 analyti!
 ! D30   D(4,5,29,30)    -179.9146  179.9059 -179.7058 calculate D2E/DX2 analyti!
 ! D31   D(9,5,29,1)     -178.5604 -179.0434 -178.2304 calculate D2E/DX2 analyti!
 ! D32   D(9,5,29,30)       0.5565    0.3297    0.725  calculate D2E/DX2 analyti!
 ! D33   D(3,10,11,12)   -173.7868 -178.7175 -179.7692 calculate D2E/DX2 analyti!
 ! D34   D(3,10,11,13)     23.2165    7.0192   30.9673 calculate D2E/DX2 analyti!
 ! D35   D(3,10,11,20)    -69.378   -75.122   -71.5002 calculate D2E/DX2 analyti!
 ! D36   D(31,10,11,12)    70.5731   70.959    62.2565 calculate D2E/DX2 analyti!
 ! D37   D(31,10,11,13)   -92.4236 -103.3043  -87.007  calculate D2E/DX2 analyti!
 ! D38   D(31,10,11,20)   174.9819  174.5544  170.5255 calculate D2E/DX2 analyti!
 ! D39   D(32,10,11,12)   -35.2053  -30.7835  -45.6572 calculate D2E/DX2 analyti!
 ! D40   D(32,10,11,13)   161.798   154.9533  165.0793 calculate D2E/DX2 analyti!
 ! D41   D(32,10,11,20)    69.2034   72.812    62.6117 calculate D2E/DX2 analyti!
 ! D42   D(3,10,20,21)   -153.8673 -161.6955 -145.6683 calculate D2E/DX2 analyti!
 ! D43   D(3,10,20,22)     13.0488   14.74      6.2947 calculate D2E/DX2 analyti!
 ! D44   D(32,10,20,21)   -37.6395  -43.5057  -31.3123 calculate D2E/DX2 analyti!
 ! D45   D(32,10,20,22)   129.2766  132.9297  120.6507 calculate D2E/DX2 analyti!
 ! D46   D(3,10,31,41)    -65.8108  -65.7603  -67.0077 calculate D2E/DX2 analyti!
 ! D47   D(11,10,31,41)    57.5536   55.4653   56.796  calculate D2E/DX2 analyti!
 ! D48   D(32,10,31,41)   174.9003  174.1857  174.6189 calculate D2E/DX2 analyti!
 ! D49   D(3,10,32,33)     44.5168   46.4957   41.4838 calculate D2E/DX2 analyti!
 ! D50   D(3,10,32,34)   -135.1569 -133.4361 -137.8412 calculate D2E/DX2 analyti!
 ! D51   D(11,10,32,33)   -94.1191 -101.0006  -92.911  calculate D2E/DX2 analyti!
 ! D52   D(11,10,32,34)    86.2071   79.0676   87.764  calculate D2E/DX2 analyti!
 ! D53   D(20,10,32,33)   -41.8243  -42.0575  -48.5598 calculate D2E/DX2 analyti!
 ! D54   D(20,10,32,34)   138.502   138.0107  132.1152 calculate D2E/DX2 analyti!
 ! D55   D(31,10,32,33)   154.3935  152.6076  152.9451 calculate D2E/DX2 analyti!
 ! D56   D(31,10,32,34)   -25.2803  -27.3242  -26.38   calculate D2E/DX2 analyti!
 ! D57   D(10,11,12,14)  -176.2822  177.2634 -167.2313 calculate D2E/DX2 analyti!
 ! D58   D(10,11,12,15)     5.8735   -1.162    15.0863 calculate D2E/DX2 analyti!
 ! D59   D(13,11,12,14)   -11.5338   -7.9759  -14.4062 calculate D2E/DX2 analyti!
 ! D60   D(13,11,12,15)   170.6218  173.5988  167.9114 calculate D2E/DX2 analyti!
 ! D61   D(20,11,12,14)    98.6716  100.1877  101.6519 calculate D2E/DX2 analyti!
 ! D62   D(20,11,12,15)   -79.1728  -78.2376  -76.0305 calculate D2E/DX2 analyti!
 ! D63   D(10,11,13,16)   174.3652 -178.5047  164.0434 calculate D2E/DX2 analyti!
 ! D64   D(10,11,13,17)   -10.6529   -2.2885  -22.0721 calculate D2E/DX2 analyti!
 ! D65   D(12,11,13,16)    11.3794    7.2803   14.6844 calculate D2E/DX2 analyti!
 ! D66   D(12,11,13,17)  -173.6386 -176.5035 -171.4312 calculate D2E/DX2 analyti!
 ! D67   D(20,11,13,16)  -103.9845 -109.3464 -104.4439 calculate D2E/DX2 analyti!
 ! D68   D(20,11,13,17)    70.9974   66.8699   69.4406 calculate D2E/DX2 analyti!
 ! D69   D(10,11,20,21)  -119.5575 -122.1353 -112.4996 calculate D2E/DX2 analyti!
 ! D70   D(10,11,20,22)    96.6105  103.7407   89.349  calculate D2E/DX2 analyti!
 ! D71   D(12,11,20,21)    -5.9611  -10.413     0.7963 calculate D2E/DX2 analyti!
 ! D72   D(12,11,20,22)  -149.7932 -144.537  -157.3551 calculate D2E/DX2 analyti!
 ! D73   D(13,11,20,21)   115.3442  111.667   122.879  calculate D2E/DX2 analyti!
 ! D74   D(13,11,20,22)   -28.4879  -22.457   -35.2724 calculate D2E/DX2 analyti!
 ! D75   D(11,12,14,18)  -177.4613 -177.8883 -177.4413 calculate D2E/DX2 analyti!
 ! D76   D(11,12,14,48)     4.4399    3.6571    4.7355 calculate D2E/DX2 analyti!
 ! D77   D(15,12,14,18)     0.4512    0.5905    0.2984 calculate D2E/DX2 analyti!
 ! D78   D(15,12,14,48)  -177.6477 -177.8641 -177.5249 calculate D2E/DX2 analyti!
 ! D79   D(11,13,16,19)   176.9287  178.3049  176.0249 calculate D2E/DX2 analyti!
 ! D80   D(11,13,16,48)    -4.1731   -2.2788   -5.3859 calculate D2E/DX2 analyti!
 ! D81   D(17,13,16,19)     1.7556    1.9348    1.9604 calculate D2E/DX2 analyti!
 ! D82   D(17,13,16,48)  -179.3462 -178.6489 -179.4503 calculate D2E/DX2 analyti!
 ! D83   D(12,14,48,16)     3.4749    1.6836    5.8279 calculate D2E/DX2 analyti!
 ! D84   D(12,14,48,50)   178.2449  178.7328  176.71   calculate D2E/DX2 analyti!
 ! D85   D(18,14,48,16)  -174.7414 -176.8713 -172.1205 calculate D2E/DX2 analyti!
 ! D86   D(18,14,48,50)     0.0285    0.1779   -1.2384 calculate D2E/DX2 analyti!
 ! D87   D(13,16,48,14)    -3.6124   -2.3843   -5.4961 calculate D2E/DX2 analyti!
 ! D88   D(13,16,48,50)  -178.3874 -179.4368 -176.3768 calculate D2E/DX2 analyti!
 ! D89   D(19,16,48,14)   175.3536  177.0691  173.1739 calculate D2E/DX2 analyti!
 ! D90   D(19,16,48,50)     0.5786    0.0166    2.2932 calculate D2E/DX2 analyti!
 ! D91   D(10,20,21,23)   164.8867  177.2439  146.2787 calculate D2E/DX2 analyti!
 ! D92   D(10,20,21,24)   -14.9438   -3.1215  -33.2195 calculate D2E/DX2 analyti!
 ! D93   D(11,20,21,23)  -147.5094 -135.7345 -162.4158 calculate D2E/DX2 analyti!
 ! D94   D(11,20,21,24)    32.6601   43.9001   18.086  calculate D2E/DX2 analyti!
 ! D95   D(22,20,21,23)    -1.8943    0.6965   -3.6168 calculate D2E/DX2 analyti!
 ! D96   D(22,20,21,24)   178.2751 -179.6689  176.885  calculate D2E/DX2 analyti!
 ! D97   D(10,20,22,25)  -165.9696 -177.4278 -148.9882 calculate D2E/DX2 analyti!
 ! D98   D(10,20,22,26)    13.7973    2.7249   30.7022 calculate D2E/DX2 analyti!
 ! D99   D(11,20,22,25)   142.9659  128.0232  161.2484 calculate D2E/DX2 analyti!
 ! D100  D(11,20,22,26)   -37.2673  -51.8242  -19.0612 calculate D2E/DX2 analyti!
 ! D101  D(21,20,22,25)     1.8544   -0.779     4.0579 calculate D2E/DX2 analyti!
 ! D102  D(21,20,22,26)  -178.3788  179.3737 -176.2517 calculate D2E/DX2 analyti!
 ! D103  D(21,20,31,41)   129.1014  123.1807  133.5435 calculate D2E/DX2 analyti!
 ! D104  D(22,20,31,41)   -57.2633  -54.221   -67.1835 calculate D2E/DX2 analyti!
 ! D105  D(20,21,23,27)  -179.1716 -179.9448 -179.1326 calculate D2E/DX2 analyti!
 ! D106  D(20,21,23,47)     0.7235   -0.1342    0.881  calculate D2E/DX2 analyti!
 ! D107  D(24,21,23,27)     0.6642    0.4083    0.3787 calculate D2E/DX2 analyti!
 ! D108  D(24,21,23,47)  -179.4407 -179.7811 -179.6077 calculate D2E/DX2 analyti!
 ! D109  D(20,22,25,28)   178.9192  179.8207  178.5071 calculate D2E/DX2 analyti!
 ! D110  D(20,22,25,47)    -0.6529    0.3023   -1.7875 calculate D2E/DX2 analyti!
 ! D111  D(26,22,25,28)    -0.8574   -0.3257   -1.1958 calculate D2E/DX2 analyti!
 ! D112  D(26,22,25,47)   179.5705 -179.8441  178.5096 calculate D2E/DX2 analyti!
 ! D113  D(21,23,47,25)     0.5684   -0.3912    1.4922 calculate D2E/DX2 analyti!
 ! D114  D(21,23,47,49)  -179.9182 -179.9623  179.8104 calculate D2E/DX2 analyti!
 ! D115  D(27,23,47,25)  -179.5284  179.4341 -178.4952 calculate D2E/DX2 analyti!
 ! D116  D(27,23,47,49)    -0.0149   -0.1371   -0.177  calculate D2E/DX2 analyti!
 ! D117  D(22,25,47,23)    -0.6021    0.3072   -1.0303 calculate D2E/DX2 analyti!
 ! D118  D(22,25,47,49)   179.8837  179.8779 -179.3506 calculate D2E/DX2 analyti!
 ! D119  D(28,25,47,23)   179.7935 -179.2479  178.6964 calculate D2E/DX2 analyti!
 ! D120  D(28,25,47,49)     0.2793    0.3227    0.3761 calculate D2E/DX2 analyti!
 ! D121  D(10,31,41,42)    78.5984   81.4677   79.5915 calculate D2E/DX2 analyti!
 ! D122  D(10,31,41,43)  -163.003  -160.0016 -162.0247 calculate D2E/DX2 analyti!
 ! D123  D(10,31,41,44)   -44.1626  -41.0556  -43.0586 calculate D2E/DX2 analyti!
 ! D124  D(10,32,33,35)  -179.3257 -179.1331 -179.0403 calculate D2E/DX2 analyti!
 ! D125  D(10,32,33,36)     1.013     1.3596    1.5408 calculate D2E/DX2 analyti!
 ! D126  D(34,32,33,35)     0.3429    0.7985    0.2697 calculate D2E/DX2 analyti!
 ! D127  D(34,32,33,36)  -179.3184 -178.7089 -179.1492 calculate D2E/DX2 analyti!
 ! D128  D(10,32,34,37)  -179.742  -179.5106  179.8126 calculate D2E/DX2 analyti!
 ! D129  D(10,32,34,38)     0.0648    0.3458   -0.2051 calculate D2E/DX2 analyti!
 ! D130  D(33,32,34,37)     0.5723    0.5557    0.4582 calculate D2E/DX2 analyti!
 ! D131  D(33,32,34,38)  -179.6209 -179.5878 -179.5595 calculate D2E/DX2 analyti!
 ! D132  D(32,33,35,39)   179.4448  179.1765  179.5879 calculate D2E/DX2 analyti!
 ! D133  D(32,33,35,45)    -0.9054   -1.4381   -0.6986 calculate D2E/DX2 analyti!
 ! D134  D(36,33,35,39)    -0.8853   -1.305    -0.9766 calculate D2E/DX2 analyti!
 ! D135  D(36,33,35,45)   178.7645  178.0804  178.7369 calculate D2E/DX2 analyti!
 ! D136  D(32,34,37,40)   179.3466  179.1483  179.5335 calculate D2E/DX2 analyti!
 ! D137  D(32,34,37,45)    -0.9307   -1.2782   -0.7617 calculate D2E/DX2 analyti!
 ! D138  D(38,34,37,40)    -0.4622   -0.7095   -0.449  calculate D2E/DX2 analyti!
 ! D139  D(38,34,37,45)   179.2604  178.8641  179.2558 calculate D2E/DX2 analyti!
 ! D140  D(33,35,45,37)     0.5497    0.7154    0.3975 calculate D2E/DX2 analyti!
 ! D141  D(33,35,45,46)  -179.5214 -179.2196 -179.6742 calculate D2E/DX2 analyti!
 ! D142  D(39,35,45,37)  -179.8039 -179.905  -179.8919 calculate D2E/DX2 analyti!
 ! D143  D(39,35,45,46)     0.1249    0.16      0.0364 calculate D2E/DX2 analyti!
 ! D144  D(34,37,45,35)     0.37      0.6427    0.3344 calculate D2E/DX2 analyti!
 ! D145  D(34,37,45,46)  -179.5588 -179.4223 -179.5938 calculate D2E/DX2 analyti!
 ! D146  D(40,37,45,35)  -179.9102 -179.7878 -179.9639 calculate D2E/DX2 analyti!
 ! D147  D(40,37,45,46)     0.161     0.1472    0.1079 calculate D2E/DX2 analyti!
 --------------------------------------------------------------------------------
 Trust Radius=3.00D-01 FncErr=1.00D-07 GrdErr=1.00D-06 EigMax=2.50D+02 EigMin=1.00D-04
 Number of steps in this run=    300 maximum allowed number of steps=    300.
 Search for a saddle point of order  1.
 GradGradGradGradGradGradGradGradGradGradGradGradGradGradGradGradGradGrad

                          Input orientation:                          
 ---------------------------------------------------------------------
 Center     Atomic      Atomic             Coordinates (Angstroms)
 Number     Number       Type             X           Y           Z
 ---------------------------------------------------------------------
      1          6           0       -3.718063    1.109236    1.355042
      2          6           0       -2.424544    1.208215    0.852071
      3          6           0       -1.989163    0.323696   -0.142096
      4          6           0       -2.880245   -0.628895   -0.656908
      5          6           0       -4.171382   -0.723193   -0.144838
      6          1           0       -4.043242    1.798952    2.128201
      7          1           0       -1.774388    1.984584    1.236583
      8          1           0       -2.595750   -1.294256   -1.464873
      9          1           0       -4.851134   -1.468337   -0.547210
     10         15           0       -0.338586    0.487504   -0.857534
     11          6           0        0.585270   -1.031346   -1.067411
     12          6           0        1.942621   -0.883881   -1.504900
     13          6           0        0.029378   -2.349129   -1.176193
     14          6           0        2.701247   -1.988124   -1.765428
     15          1           0        2.403103    0.091712   -1.604317
     16          6           0        0.842573   -3.407050   -1.448350
     17          1           0       -1.012918   -2.548510   -0.970091
     18          1           0        3.742173   -1.929626   -2.059289
     19          1           0        0.480978   -4.426822   -1.492752
     20          6           0        0.546605   -0.818486    1.081485
     21          6           0        1.853654   -0.723004    1.568322
     22          6           0       -0.398399   -1.476906    1.877478
     23          6           0        2.179741   -1.227961    2.807833
     24          1           0        2.639759   -0.248256    0.985328
     25          6           0       -0.040369   -1.972752    3.114330
     26          1           0       -1.426710   -1.613765    1.556119
     27          1           0        3.168036   -1.175321    3.248303
     28          1           0       -0.723646   -2.476632    3.787390
     29          6           0       -4.589507    0.137348    0.867548
     30          1           0       -5.597138    0.060155    1.265798
     31          8           0       -0.603163    1.075233   -2.353043
     32          6           0        0.662237    1.870526   -0.243314
     33          6           0        0.760432    2.193967    1.116580
     34          6           0        1.355784    2.642858   -1.185991
     35          6           0        1.533761    3.275968    1.522796
     36          1           0        0.245804    1.610540    1.871096
     37          6           0        2.143011    3.712768   -0.769267
     38          1           0        1.287466    2.412156   -2.242969
     39          1           0        1.593900    3.521093    2.579007
     40          1           0        2.683469    4.296326   -1.508662
     41          6           0       -1.281903    0.342191   -3.382932
     42          1           0       -2.362506    0.377321   -3.219307
     43          1           0       -1.037540    0.845210   -4.319587
     44          1           0       -0.936462   -0.695502   -3.426769
     45          6           0        2.230735    4.033743    0.583015
     46          1           0        2.840035    4.873541    0.904980
     47          7           0        1.226578   -1.830665    3.544363
     48          7           0        2.162821   -3.226055   -1.702351
     49          1           0        1.474957   -2.199925    4.459314
     50          1           0        2.739206   -4.030755   -1.926247
 ---------------------------------------------------------------------
                    Distance matrix (angstroms):
                    1          2          3          4          5
     1  C    0.000000
     2  C    1.391391   0.000000
     3  C    2.418179   1.400107   0.000000
     4  C    2.787648   2.420672   1.402315   0.000000
     5  C    2.411003   2.788478   2.420344   1.392172   0.000000
     6  H    1.085921   2.144216   3.398510   3.873478   3.397697
     7  H    2.134980   1.083190   2.169201   3.411525   3.871170
     8  H    3.871470   3.414660   2.176110   1.084643   2.133359
     9  H    3.397984   3.874307   3.400938   2.145017   1.085912
    10  P    4.086919   2.791665   1.806402   2.783276   4.082162
    11  C    5.382290   4.214146   3.052876   3.512873   4.855084
    12  C    6.647942   5.385565   4.332944   4.903483   6.265511
    13  C    5.693044   4.773917   3.505404   3.419761   4.621011
    14  C    7.780650   6.583435   5.475369   5.850587   7.173520
    15  H    6.874724   5.530515   4.635074   5.415776   6.783657
    16  C    7.003945   6.104643   4.862458   4.712101   5.834550
    17  H    5.109125   4.407487   3.144550   2.696278   3.740150
    18  H    8.749141   7.506694   6.449907   6.893112   8.230732
    19  H    7.509315   6.759726   5.522073   5.140107   6.097392
    20  C    4.688106   3.603869   3.038396   3.847240   4.875690
    21  C    5.869124   4.748221   4.334553   5.231664   6.263863
    22  C    4.240429   3.516617   3.138690   3.647163   4.346636
    23  C    6.508240   5.564117   5.337554   6.161718   7.022095
    24  H    6.511634   5.271265   4.798451   5.771678   6.920584
    25  C    5.110692   4.573911   4.435739   4.908471   5.408220
    26  H    3.564473   3.074887   2.637052   2.824929   3.349567
    27  H    7.498133   6.534533   6.351264   7.220177   8.098449
    28  H    5.267001   5.008717   4.988410   5.274167   5.515782
    29  C    1.393424   2.415380   2.795692   2.415092   1.392941
    30  H    2.153940   3.399201   3.881894   3.398985   2.153209
    31  O    4.842897   3.688884   2.715528   3.311499   4.565380
    32  C    4.724546   3.341667   3.071295   4.355151   5.486433
    33  C    4.614155   3.344510   3.555623   4.936430   5.867179
    34  C    5.878160   4.527999   4.202011   5.378498   6.554683
    35  C    5.683707   4.515933   4.888637   6.283511   7.164004
    36  H    4.028630   2.886353   3.271695   4.601962   5.387191
    37  C    6.755979   5.455647   5.380893   6.640464   7.742042
    38  H    6.300683   4.980739   4.417197   5.397536   6.635630
    39  H    5.960880   4.947687   5.519610   6.907353   7.659750
    40  H    7.703113   6.418823   6.283533   7.479184   8.604915
    41  C    5.382530   4.471116   3.317164   3.305891   4.468712
    42  H    4.826790   4.155761   3.100240   2.801145   3.733031
    43  H    6.281427   5.366712   4.316132   4.357036   5.450631
    44  H    5.818943   4.913960   3.596668   3.384503   4.608313
    45  C    6.673602   5.452304   5.665490   7.028493   8.009077
    46  H    7.575038   6.415076   6.717039   8.089370   9.032470
    47  N    6.155129   5.460212   5.345301   5.996743   6.631340
    48  N    7.920050   6.872535   5.681030   5.768076   6.986579
    49  H    6.895978   6.311397   6.288224   6.900119   7.433714
    50  H    8.881593   7.863216   6.670975   6.690449   7.865724
                    6          7          8          9         10
     6  H    0.000000
     7  H    2.444819   0.000000
     8  H    4.957151   4.327042   0.000000
     9  H    4.299499   4.956909   2.441140   0.000000
    10  P    4.935482   2.947559   2.939102   4.927951   0.000000
    11  C    6.296479   4.469028   3.216518   5.478691   1.790102
    12  C    7.498505   5.436909   4.557063   6.885773   2.739285
    13  C    6.686690   5.277891   2.843834   4.999081   2.878094
    14  C    8.659701   6.695206   5.350697   7.667639   4.024126
    15  H    7.642102   5.394915   5.189305   7.495011   2.869006
    16  C    7.985322   6.567120   4.035621   6.081855   4.112390
    17  H    6.138624   5.098842   2.079259   4.009676   3.112037
    18  H    9.594272   7.524378   6.397366   8.737511   4.892783
    19  H    8.505300   7.324075   4.390900   6.170746   5.022528
    20  C    5.386399   3.642563   4.072431   5.675433   2.499794
    21  C    6.437943   4.539138   5.415145   7.070020   3.486549
    22  C    4.907035   3.779683   4.004126   5.070112   3.367904
    23  C    6.953389   5.331455   6.408255   7.794055   4.766519
    24  H    7.082353   4.953120   5.874364   7.742787   3.578830
    25  C    5.587593   4.710973   5.287668   6.066693   4.681613
    26  H    4.338220   3.629201   3.255017   4.021420   3.380099
    27  H    7.880575   6.201578   7.446436   8.876872   5.649715
    28  H    5.661558   5.245295   5.699917   6.069726   5.523558
    29  C    2.156056   3.387235   3.385963   2.155972   4.600961
    30  H    2.486312   4.279918   4.277771   2.485922   5.687138
    31  O    5.695565   3.883826   3.220827   5.270298   1.628488
    32  C    5.269795   2.853112   4.703459   6.452722   1.814294
    33  C    4.924906   2.546282   5.485942   6.904371   2.831428
    34  C    6.391051   4.012501   5.585093   7.472335   2.761218
    35  C    5.800953   3.562785   6.845873   8.219504   4.116696
    36  H    4.300874   2.150277   5.257467   6.427011   3.008013
    37  C    7.094205   4.728220   6.928926   8.706964   4.070435
    38  H    6.920953   4.654573   5.424232   7.457629   2.875371
    39  H    5.911545   3.938061   7.556039   8.729611   4.974633
    40  H    8.044395   5.723025   7.689387   9.535511   4.905498
    41  C    6.334014   4.927465   2.843080   4.904971   2.699740
    42  H    5.782884   4.773273   2.434463   4.091433   3.112292
    43  H    7.177593   5.719453   3.892907   5.841817   3.549972
    44  H    6.836086   5.443513   2.638329   4.920751   2.891008
    45  C    6.837008   4.546121   7.475050   9.038980   4.610033
    46  H    7.637334   5.454258   8.556032  10.073845   5.696263
    47  N    6.553674   5.374734   6.323794   7.335587   5.215395
    48  N    8.856582   7.161683   5.141230   7.322533   4.556454
    49  H    7.202474   6.201157   7.244783   8.100613   6.227366
    50  H    9.819655   8.158451   6.013572   8.129021   5.570423
                   11         12         13         14         15
    11  C    0.000000
    12  C    1.433717   0.000000
    13  C    1.434364   2.432180   0.000000
    14  C    2.424873   1.364823   2.759784   0.000000
    15  H    2.203190   1.083379   3.431554   2.107265   0.000000
    16  C    2.419770   2.753123   1.361820   2.359779   3.834177
    17  H    2.205779   3.433980   1.081023   3.839481   4.363739
    18  H    3.428814   2.153907   3.839360   1.083191   2.466965
    19  H    3.423602   3.832620   2.149642   3.309259   4.911635
    20  C    2.159759   2.939817   2.776239   3.757053   3.389480
    21  C    2.941252   3.078716   3.674864   3.665083   3.321339
    22  C    3.136638   4.156024   3.204477   4.810396   4.736230
    23  C    4.195058   4.332930   4.664069   4.665247   4.610694
    24  H    3.007971   2.662941   3.987472   3.255392   2.622565
    25  C    4.331816   5.143459   4.307564   5.597208   5.700719
    26  H    3.357110   4.610310   3.182213   5.311577   5.250188
    27  H    5.031580   4.917267   5.550240   5.100592   5.073304
    28  H    5.231750   6.136299   5.021997   6.542348   6.741176
    29  C    5.646966   7.024252   5.629702   8.037741   7.416791
    30  H    6.697567   8.088012   6.589814   9.069012   8.499554
    31  O    2.739142   3.322422   3.675777   4.544070   3.250468
    32  C    3.017602   3.289033   4.367638   4.622074   2.836745
    33  C    3.899121   4.212229   5.141106   5.437152   3.810659
    34  C    3.755999   3.589425   5.165209   4.857161   2.789305
    35  C    5.114857   5.161245   6.417899   6.315545   4.546876
    36  H    3.966059   4.527546   5.001179   5.674847   4.363402
    37  C    5.002206   4.659452   6.432700   5.814132   3.725185
    38  H    3.705769   3.440615   5.038912   4.646427   2.652731
    39  H    5.919324   6.016951   7.142042   7.102943   5.469521
    40  H    5.742929   5.232916   7.163575   6.289718   4.215037
    41  C    3.276366   3.927825   3.719188   4.890007   4.099449
    42  H    3.912082   4.802493   4.162806   5.775006   5.039920
    43  H    4.090431   4.448997   4.606847   5.341352   4.447300
    44  H    2.827548   3.466726   2.955067   4.202839   3.885065
    45  C    5.575535   5.350273   6.977237   6.480698   4.511512
    46  H    6.621328   6.305615   8.024839   7.364291   5.417875
    47  N    4.724261   5.186923   4.897524   5.513014   5.620378
    48  N    2.776430   2.360774   2.365887   1.351427   3.327901
    49  H    5.718550   6.125564   5.819871   6.347918   6.548334
    50  H    3.791239   3.273362   3.276220   2.049304   4.148655
                   16         17         18         19         20
    16  C    0.000000
    17  H    2.099683   0.000000
    18  H    3.311149   4.917343   0.000000
    19  H    1.082893   2.456208   4.146365   0.000000
    20  C    3.631573   3.103878   4.616357   4.432955   0.000000
    21  C    4.162535   4.241845   4.264036   4.997267   1.398036
    22  C    4.040619   3.103968   5.731267   4.564401   1.400055
    23  C    4.965032   5.119534   5.159690   5.622592   2.411448
    24  H    4.373859   4.738869   3.648563   5.316167   2.171567
    25  C    4.863625   4.237906   6.409042   5.245900   2.410255
    26  H    4.170414   2.725199   6.315718   4.565980   2.179844
    27  H    5.696222   6.095972   5.391581   6.345876   3.419698
    28  H    5.543617   4.766809   7.377426   5.756237   3.418319
    29  C    6.887208   4.835570   9.069490   7.218898   5.228674
    30  H    7.801153   5.728822  10.111289   8.042764   6.208990
    31  O    4.795778   3.900252   5.291258   5.673453   4.087067
    32  C    5.416405   4.781446   5.217751   6.422658   2.999875
    33  C    6.160926   5.476318   5.998412   7.121907   3.020236
    34  C    6.077302   5.710312   5.231167   7.130201   4.216292
    35  C    7.346304   6.828221   6.693775   8.338756   4.234830
    36  H    6.045748   5.191765   6.340765   6.915238   2.571796
    37  C    7.269395   7.014543   6.004839   8.338987   5.148403
    38  H    5.890035   5.614285   4.991032   6.927111   4.694456
    39  H    8.048805   7.498778   7.472563   8.999287   4.708646
    40  H    7.920514   7.797763   6.339284   8.996918   6.118525
    41  C    4.723644   3.774958   5.670496   5.424391   4.962019
    42  H    5.265955   3.929484   6.628329   5.843474   5.328198
    43  H    5.464480   4.768340   5.971124   6.171808   5.869325
    44  H    3.798895   3.078108   5.028189   4.435347   4.747522
    45  C    7.837017   7.500632   6.695370   8.885472   5.160319
    46  H    8.837206   8.570180   7.475548   9.889945   6.139230
    47  N    5.249727   5.090279   6.143202   5.715635   2.748206
    48  N    1.356588   3.328752   2.074243   2.077106   4.019737
    49  H    6.062801   5.982430   6.906918   6.432274   3.765626
    50  H    2.052952   4.146049   2.332035   2.333320   4.916566
                   21         22         23         24         25
    21  C    0.000000
    22  C    2.394930   0.000000
    23  C    1.377571   2.752152   0.000000
    24  H    1.087763   3.396456   2.119661   0.000000
    25  C    2.745785   1.379801   2.361682   3.832704   0.000000
    26  H    3.399175   1.086014   3.836942   4.327423   2.116326
    27  H    2.180488   3.832698   1.083287   2.501916   3.308732
    28  H    3.826480   2.180138   3.308832   4.912200   1.083408
    29  C    6.538013   4.603386   7.172970   7.240501   5.495017
    30  H    7.497944   5.455602   8.032245   8.247439   6.198989
    31  O    4.964545   4.944962   6.299516   4.838687   6.284832
    32  C    3.380517   4.102196   4.605751   3.147919   5.151525
    33  C    3.147686   3.923922   4.072391   3.084404   4.689758
    34  C    4.377573   5.425353   5.622524   3.836894   6.461104
    35  C    4.012005   5.142845   4.728000   3.732594   5.706131
    36  H    2.849962   3.153944   3.560151   3.157646   3.803618
    37  C    5.022362   6.355843   6.099819   4.360628   7.223200
    38  H    4.967468   5.911432   6.289452   4.396406   7.049200
    39  H    4.370505   5.425992   4.790520   4.223935   5.756712
    40  H    5.945595   7.368450   7.028771   5.184122   8.251829
    41  C    5.956616   5.635744   7.264567   5.899979   7.008194
    42  H    6.473647   5.768283   7.715916   6.564523   7.143537
    43  H    6.744314   6.648634   8.090059   6.546779   8.012389
    44  H    5.721577   5.388427   6.990314   5.697015   6.724606
    45  C    4.872336   6.241413   5.712963   4.320263   6.902424
    46  H    5.721388   7.194539   6.425353   5.126341   7.749173
    47  N    2.350505   2.354613   1.346940   3.324118   1.345463
    48  N    4.130151   4.736512   4.932994   4.039601   5.442906
    49  H    3.268416   3.270794   2.041770   4.151428   2.038824
    50  H    4.892589   5.552930   5.529934   4.774354   6.113005
                   26         27         28         29         30
    26  H    0.000000
    27  H    4.916036   0.000000
    28  H    2.493473   4.138745   0.000000
    29  C    3.680192   8.220132   5.504839   0.000000
    30  H    4.503195   9.071108   6.045216   1.086224   0.000000
    31  O    4.815650   7.117725   7.094729   5.209873   6.250294
    32  C    4.443191   5.267599   6.088106   5.640810   6.688396
    33  C    4.413118   4.657564   5.581237   5.737033   6.707765
    34  C    5.777567   6.125823   7.434227   6.770605   7.811834
    35  C    5.716204   5.046009   6.581541   6.911924   7.826699
    36  H    3.645910   4.265813   4.617033   5.153410   6.075364
    37  C    6.820724   6.409755   8.203019   7.796768   8.797328
    38  H    6.165052   6.823533   8.019355   7.027722   8.077198
    39  H    6.044597   4.998216   6.542470   7.253506   8.087870
    40  H    7.824042   7.266529   9.248219   8.708596   9.706247
    41  C    5.314222   8.128842   7.724696   5.389692   6.349133
    42  H    5.257835   8.650293   7.741105   4.660419   5.538917
    43  H    6.381374   8.890578   8.766769   6.326445   7.252777
    44  H    5.090454   7.850714   7.433828   5.699082   6.656809
    45  C    6.798396   5.925930   7.834626   7.859933   8.805180
    46  H    7.791934   6.495189   8.662168   8.810847   9.720327
    47  N    3.322664   2.070359   2.068746   6.698153   7.438424
    48  N    5.108996   5.452059   6.247446   7.969366   8.934542
    49  H    4.146299   2.320103   2.315578   7.425722   8.082143
    50  H    5.943364   5.925653   6.859467   8.881915   9.819334
                   31         32         33         34         35
    31  O    0.000000
    32  C    2.585476   0.000000
    33  C    3.892203   1.401274   0.000000
    34  C    2.767116   1.402193   2.420285   0.000000
    35  C    4.942854   2.419497   1.390603   2.787478   0.000000
    36  H    4.341733   2.170654   1.083754   3.412260   2.133963
    37  C    4.123883   2.421399   2.788315   1.392154   2.411542
    38  H    2.318180   2.164000   3.407630   1.084017   3.871410
    39  H    5.927431   3.399686   2.143508   3.873397   1.085949
    40  H    4.678714   3.401616   3.874259   2.144952   3.398926
    41  C    1.434821   3.996585   5.276913   4.132434   6.371905
    42  H    2.081534   4.498363   5.643834   4.805488   6.787532
    43  H    2.027040   4.533929   5.882496   4.333470   6.830345
    44  H    2.097493   4.390299   5.645396   4.628188   6.809755
    45  C    5.040258   2.796876   2.414800   2.414432   1.393981
    46  H    6.074329   3.883231   3.398476   3.398692   2.154133
    47  N    6.824338   5.325767   4.723249   6.511939   5.500799
    48  N    5.155109   5.509599   6.268150   5.946602   7.285163
    49  H    7.839225   6.272463   5.566929   7.438832   6.213855
    50  H    6.117573   6.478517   7.205658   6.855578   8.169284
                   36         37         38         39         40
    36  H    0.000000
    37  C    3.871727   0.000000
    38  H    4.318933   2.143676   0.000000
    39  H    2.443095   3.398412   4.957327   0.000000
    40  H    4.957663   1.085974   2.457260   4.300835   0.000000
    41  C    5.616708   5.470107   3.490835   7.343050   5.905273
    42  H    5.851180   6.117809   4.291397   7.691352   6.614134
    43  H    6.368458   5.562694   3.489028   7.853370   5.801501
    44  H    5.897708   5.998193   4.000597   7.762200   6.457661
    45  C    3.386889   1.392619   3.391974   2.156931   2.156161
    46  H    4.279088   2.153216   4.287012   2.486832   2.486636
    47  N    3.950143   7.083566   7.176242   5.450518   8.074380
    48  N    6.311666   7.001307   5.731312   8.011099   7.542865
    49  H    4.767529   7.921130   8.138000   6.023267   8.903848
    50  H    7.243002   7.852146   6.612032   8.867889   8.337731
                   41         42         43         44         45
    41  C    0.000000
    42  H    1.093485   0.000000
    43  H    1.090901   1.784677   0.000000
    44  H    1.094558   1.796550   1.783573   0.000000
    45  C    6.457160   6.994636   6.699543   6.962418   0.000000
    46  H    7.477279   8.018240   7.652394   8.002513   1.086356
    47  N    7.681224   7.968937   8.609776   7.386746   6.645991
    48  N    5.236684   5.980306   5.802364   4.356934   7.611319
    49  H    8.692724   8.962675   9.625725   8.382633   7.379398
    50  H    6.116691   6.865173   6.615657   5.185173   8.461150
                   46         47         48         49         50
    46  H    0.000000
    47  N    7.383493   0.000000
    48  N    8.535822   5.509235   0.000000
    49  H    8.033097   1.017438   6.284283   0.000000
    50  H    9.344116   6.087365   1.014836   6.762075   0.000000
 Stoichiometry    C23H23N2OP(2+)
 Framework group  C1[X(C23H23N2OP)]
 Deg. of freedom   144
 Full point group                 C1      NOp   1
 Largest Abelian subgroup         C1      NOp   1
 Largest concise Abelian subgroup C1      NOp   1
                         Standard orientation:                         
 ---------------------------------------------------------------------
 Center     Atomic      Atomic             Coordinates (Angstroms)
 Number     Number       Type             X           Y           Z
 ---------------------------------------------------------------------
      1          6           0       -3.718062    1.109238    1.355042
      2          6           0       -2.424543    1.208217    0.852071
      3          6           0       -1.989163    0.323697   -0.142096
      4          6           0       -2.880245   -0.628893   -0.656908
      5          6           0       -4.171382   -0.723190   -0.144838
      6          1           0       -4.043241    1.798955    2.128201
      7          1           0       -1.774387    1.984585    1.236583
      8          1           0       -2.595751   -1.294254   -1.464873
      9          1           0       -4.851135   -1.468334   -0.547210
     10         15           0       -0.338586    0.487504   -0.857534
     11          6           0        0.585269   -1.031346   -1.067411
     12          6           0        1.942620   -0.883882   -1.504900
     13          6           0        0.029376   -2.349129   -1.176193
     14          6           0        2.701246   -1.988126   -1.765428
     15          1           0        2.403103    0.091710   -1.604317
     16          6           0        0.842571   -3.407051   -1.448350
     17          1           0       -1.012920   -2.548509   -0.970091
     18          1           0        3.742172   -1.929628   -2.059289
     19          1           0        0.480975   -4.426822   -1.492752
     20          6           0        0.546604   -0.818486    1.081485
     21          6           0        1.853654   -0.723005    1.568322
     22          6           0       -0.398400   -1.476906    1.877478
     23          6           0        2.179740   -1.227962    2.807833
     24          1           0        2.639759   -0.248258    0.985328
     25          6           0       -0.040370   -1.972752    3.114330
     26          1           0       -1.426711   -1.613764    1.556119
     27          1           0        3.168035   -1.175323    3.248303
     28          1           0       -0.723648   -2.476632    3.787390
     29          6           0       -4.589507    0.137351    0.867548
     30          1           0       -5.597138    0.060159    1.265798
     31          8           0       -0.603162    1.075233   -2.353043
     32          6           0        0.662238    1.870526   -0.243314
     33          6           0        0.760433    2.193966    1.116580
     34          6           0        1.355786    2.642857   -1.185991
     35          6           0        1.533763    3.275967    1.522796
     36          1           0        0.245805    1.610540    1.871096
     37          6           0        2.143013    3.712767   -0.769267
     38          1           0        1.287468    2.412155   -2.242969
     39          1           0        1.593902    3.521092    2.579007
     40          1           0        2.683472    4.296324   -1.508662
     41          6           0       -1.281903    0.342192   -3.382932
     42          1           0       -2.362506    0.377323   -3.219307
     43          1           0       -1.037539    0.845211   -4.319587
     44          1           0       -0.936462   -0.695501   -3.426769
     45          6           0        2.230738    4.033742    0.583015
     46          1           0        2.840038    4.873539    0.904980
     47          7           0        1.226577   -1.830666    3.544363
     48          7           0        2.162819   -3.226056   -1.702351
     49          1           0        1.474956   -2.199926    4.459314
     50          1           0        2.739203   -4.030757   -1.926247
 ---------------------------------------------------------------------
 Rotational constants (GHZ):           0.1954882           0.1886207           0.1683103
 Standard basis: 6-31+G(d) (6D, 7F)
 There are   563 symmetry adapted cartesian basis functions of A   symmetry.
 There are   563 symmetry adapted basis functions of A   symmetry.
   563 basis functions,   980 primitive gaussians,   563 cartesian basis functions
    98 alpha electrons       98 beta electrons
       nuclear repulsion energy      2710.6187946919 Hartrees.
 NAtoms=   50 NActive=   50 NUniq=   50 SFac= 1.00D+00 NAtFMM=   60 NAOKFM=F Big=F
 Integral buffers will be    131072 words long.
 Raffenetti 2 integral format.
 Two-electron integral symmetry is turned on.
 Nuclear repulsion after empirical dispersion term =     2710.5700342756 Hartrees.
 Force inversion solution in PCM.
 ------------------------------------------------------------------------------
 Polarizable Continuum Model (PCM)
 =================================
 Model                : PCM.
 Atomic radii         : SMD-Coulomb.
 Polarization charges : Total charges.
 Charge compensation  : None.
 Solution method      : Matrix inversion.
 Cavity type          : VdW (van der Waals Surface) (Alpha=1.000).
 Cavity algorithm     : GePol (No added spheres)
                        Default sphere list used, NSphG=   50.
                        Lebedev-Laikov grids with approx.  5.0 points / Ang**2.
                        Smoothing algorithm: York/Karplus (Gamma=1.0000).
                        Polarization charges: spherical gaussians, with
                                              point-specific exponents (IZeta= 3).
                        Self-potential: point-specific (ISelfS= 7).
                        Self-field    : sphere-specific E.n sum rule (ISelfD= 2).
 1st derivatives      : Analytical E(r).r(x)/FMM algorithm (CHGder, D1EAlg=3).
                        Cavity 1st derivative terms included.
 2nd derivatives      : Analytical E(r).r(xy)/FMM algorithm (CHGder, D2EAlg=3).
                        Cavity 2nd derivative terms included.
 Solvent              : Ethanol, Eps=  24.852000 Eps(inf)=   1.852593
 ------------------------------------------------------------------------------
 ------------------------------------------------------------------------------
 Atomic radii for non-electrostatic terms: SMD-CDS.
 ------------------------------------------------------------------------------
 Nuclear repulsion after PCM non-electrostatic terms =     2710.5697461051 Hartrees.
 One-electron integrals computed using PRISM.
 NBasis=   563 RedAO= T EigKep=  1.17D-06  NBF=   563
 NBsUse=   561 1.00D-06 EigRej=  7.66D-07 NBFU=   561
 ExpMin= 3.48D-02 ExpMax= 1.94D+04 ExpMxC= 2.91D+03 IAcc=3 IRadAn=         5 AccDes= 0.00D+00
 Harris functional with IExCor= 4639 and IRadAn=       5 diagonalized for initial guess.
 HarFok:  IExCor= 4639 AccDes= 0.00D+00 IRadAn=         5 IDoV= 1 UseB2=F ITyADJ=14
 ICtDFT=  3500011 ScaDFX=  1.000000  1.000000  1.000000  1.000000
 FoFCou: FMM=F IPFlag=           0 FMFlag=      100000 FMFlg1=           0
         NFxFlg=           0 DoJE=T BraDBF=F KetDBF=T FulRan=T
         wScrn=  0.000000 ICntrl=       500 IOpCl=  0 I1Cent=   200000004 NGrid=           0
         NMat0=    1 NMatS0=      1 NMatT0=    0 NMatD0=    1 NMtDS0=    0 NMtDT0=    0
 Petite list used in FoFCou.
 Requested convergence on RMS density matrix=1.00D-08 within 128 cycles.
 Requested convergence on MAX density matrix=1.00D-06.
 Requested convergence on             energy=1.00D-06.
 No special actions if energy rises.
 Inv3:  Mode=1 IEnd=    38599707.
 Iteration    1 A*A^-1 deviation from unit magnitude is 1.38D-14 for   3569.
 Iteration    1 A*A^-1 deviation from orthogonality  is 3.62D-15 for   2649   2298.
 Iteration    1 A^-1*A deviation from unit magnitude is 1.38D-14 for   3569.
 Iteration    1 A^-1*A deviation from orthogonality  is 2.00D-14 for   1995   1986.
 Error on total polarization charges =  0.05597
 SCF Done:  E(RwB97XD) =  -1415.68213323     A.U. after   18 cycles
            NFock= 18  Conv=0.46D-08     -V/T= 2.0081
 SMD-CDS (non-electrostatic) energy       (kcal/mol) =      -0.18
 (included in total energy above)
 DoSCS=F DFT=T ScalE2(SS,OS)=  1.000000  1.000000
 Range of M.O.s used for correlation:     1   561
 NBasis=   563 NAE=    98 NBE=    98 NFC=     0 NFV=     0
 NROrb=    561 NOA=    98 NOB=    98 NVA=   463 NVB=   463

 **** Warning!!: The largest alpha MO coefficient is  0.13648394D+03

 Symmetrizing basis deriv contribution to polar:
 IMax=3 JMax=2 DiffMx= 0.00D+00
 G2DrvN: will do    51 centers at a time, making    1 passes.
 Calling FoFCou, ICntrl=  3107 FMM=F I1Cent=   0 AccDes= 0.00D+00.
 NEqPCM:  Using equilibrium solvation (IEInf=0, Eps=  24.8520, EpsInf=   1.8526)
 G2PCM: DoFxE=T DoFxN=T DoGrad=T DoDP/DQ/DG/TGxP=FFFF NFrqRd=   0 IEInf=0 SqF1=F DoCFld=F IF1Alg=4.
 End of G2Drv F.D. properties file   721 does not exist.
 End of G2Drv F.D. properties file   722 does not exist.
 End of G2Drv F.D. properties file   788 does not exist.
          IDoAtm=11111111111111111111111111111111111111111111111111
 NEqPCM:  Using equilibrium solvation (IEInf=0, Eps=  24.8520, EpsInf=   1.8526)
          Differentiating once with respect to nuclear coordinates.
 CalDSu exits because no D1Ps are significant.
          There are   153 degrees of freedom in the 1st order CPHF.  IDoFFX=6 NUNeed=     0.
    147 vectors produced by pass  0 Test12= 4.54D-14 1.00D-09 XBig12= 3.75D-01 1.03D-01.
 AX will form   147 AO Fock derivatives at one time.
    147 vectors produced by pass  1 Test12= 4.54D-14 1.00D-09 XBig12= 1.68D-02 2.59D-02.
    147 vectors produced by pass  2 Test12= 4.54D-14 1.00D-09 XBig12= 3.96D-04 2.85D-03.
    147 vectors produced by pass  3 Test12= 4.54D-14 1.00D-09 XBig12= 4.35D-06 2.60D-04.
    147 vectors produced by pass  4 Test12= 4.54D-14 1.00D-09 XBig12= 3.63D-08 1.53D-05.
    147 vectors produced by pass  5 Test12= 4.54D-14 1.00D-09 XBig12= 2.61D-10 1.18D-06.
    147 vectors produced by pass  6 Test12= 4.54D-14 1.00D-09 XBig12= 1.71D-12 1.25D-07.
     70 vectors produced by pass  7 Test12= 4.54D-14 1.00D-09 XBig12= 3.44D-14 1.48D-08.
     34 vectors produced by pass  8 Test12= 4.54D-14 1.00D-09 XBig12= 4.52D-15 4.95D-09.
     14 vectors produced by pass  9 Test12= 4.54D-14 1.00D-09 XBig12= 2.63D-15 2.69D-09.
     14 vectors produced by pass 10 Test12= 4.54D-14 1.00D-09 XBig12= 8.22D-14 1.39D-08.
     14 vectors produced by pass 11 Test12= 4.54D-14 1.00D-09 XBig12= 1.25D-14 4.70D-09.
     14 vectors produced by pass 12 Test12= 4.54D-14 1.00D-09 XBig12= 5.88D-14 1.53D-08.
     14 vectors produced by pass 13 Test12= 4.54D-14 1.00D-09 XBig12= 2.08D-14 8.12D-09.
     14 vectors produced by pass 14 Test12= 4.54D-14 1.00D-09 XBig12= 2.15D-14 7.90D-09.
     14 vectors produced by pass 15 Test12= 4.54D-14 1.00D-09 XBig12= 2.52D-14 7.46D-09.
     14 vectors produced by pass 16 Test12= 4.54D-14 1.00D-09 XBig12= 4.73D-14 1.27D-08.
     14 vectors produced by pass 17 Test12= 4.54D-14 1.00D-09 XBig12= 2.86D-14 8.37D-09.
     14 vectors produced by pass 18 Test12= 4.54D-14 1.00D-09 XBig12= 3.58D-14 9.75D-09.
     14 vectors produced by pass 19 Test12= 4.54D-14 1.00D-09 XBig12= 3.82D-14 1.03D-08.
     14 vectors produced by pass 20 Test12= 4.54D-14 1.00D-09 XBig12= 3.35D-14 9.12D-09.
      9 vectors produced by pass 21 Test12= 4.54D-14 1.00D-09 XBig12= 1.05D-14 7.64D-09.
      9 vectors produced by pass 22 Test12= 4.54D-14 1.00D-09 XBig12= 2.30D-14 6.88D-09.
      9 vectors produced by pass 23 Test12= 4.54D-14 1.00D-09 XBig12= 1.47D-14 5.71D-09.
      9 vectors produced by pass 24 Test12= 4.54D-14 1.00D-09 XBig12= 3.86D-14 8.61D-09.
      9 vectors produced by pass 25 Test12= 4.54D-14 1.00D-09 XBig12= 1.03D-14 5.12D-09.
      9 vectors produced by pass 26 Test12= 4.54D-14 1.00D-09 XBig12= 3.27D-14 8.88D-09.
      9 vectors produced by pass 27 Test12= 4.54D-14 1.00D-09 XBig12= 1.06D-14 5.00D-09.
      9 vectors produced by pass 28 Test12= 4.54D-14 1.00D-09 XBig12= 4.71D-14 9.45D-09.
      9 vectors produced by pass 29 Test12= 4.54D-14 1.00D-09 XBig12= 3.62D-14 1.13D-08.
      7 vectors produced by pass 30 Test12= 4.54D-14 1.00D-09 XBig12= 1.23D-14 7.17D-09.
      7 vectors produced by pass 31 Test12= 4.54D-14 1.00D-09 XBig12= 4.45D-14 8.50D-09.
      7 vectors produced by pass 32 Test12= 4.54D-14 1.00D-09 XBig12= 1.77D-14 6.13D-09.
      7 vectors produced by pass 33 Test12= 4.54D-14 1.00D-09 XBig12= 2.16D-14 6.84D-09.
      7 vectors produced by pass 34 Test12= 4.54D-14 1.00D-09 XBig12= 2.07D-14 6.41D-09.
      7 vectors produced by pass 35 Test12= 4.54D-14 1.00D-09 XBig12= 2.32D-14 6.58D-09.
      6 vectors produced by pass 36 Test12= 4.54D-14 1.00D-09 XBig12= 1.05D-14 4.67D-09.
      6 vectors produced by pass 37 Test12= 4.54D-14 1.00D-09 XBig12= 1.90D-14 6.99D-09.
      6 vectors produced by pass 38 Test12= 4.54D-14 1.00D-09 XBig12= 4.97D-14 1.26D-08.
      6 vectors produced by pass 39 Test12= 4.54D-14 1.00D-09 XBig12= 2.15D-14 6.20D-09.
      6 vectors produced by pass 40 Test12= 4.54D-14 1.00D-09 XBig12= 2.15D-14 9.93D-09.
      6 vectors produced by pass 41 Test12= 4.54D-14 1.00D-09 XBig12= 1.61D-14 5.75D-09.
      6 vectors produced by pass 42 Test12= 4.54D-14 1.00D-09 XBig12= 2.58D-14 8.08D-09.
      6 vectors produced by pass 43 Test12= 4.54D-14 1.00D-09 XBig12= 4.00D-14 7.84D-09.
      6 vectors produced by pass 44 Test12= 4.54D-14 1.00D-09 XBig12= 2.34D-14 8.01D-09.
      6 vectors produced by pass 45 Test12= 4.54D-14 1.00D-09 XBig12= 1.59D-14 6.18D-09.
      6 vectors produced by pass 46 Test12= 4.54D-14 1.00D-09 XBig12= 2.28D-14 6.83D-09.
      6 vectors produced by pass 47 Test12= 4.54D-14 1.00D-09 XBig12= 1.59D-14 5.85D-09.
      6 vectors produced by pass 48 Test12= 4.54D-14 1.00D-09 XBig12= 2.92D-14 9.20D-09.
      6 vectors produced by pass 49 Test12= 4.54D-14 1.00D-09 XBig12= 4.43D-14 1.07D-08.
      6 vectors produced by pass 50 Test12= 4.54D-14 1.00D-09 XBig12= 3.11D-14 8.11D-09.
      6 vectors produced by pass 51 Test12= 4.54D-14 1.00D-09 XBig12= 1.08D-14 4.85D-09.
      6 vectors produced by pass 52 Test12= 4.54D-14 1.00D-09 XBig12= 3.64D-14 9.74D-09.
      5 vectors produced by pass 53 Test12= 4.54D-14 1.00D-09 XBig12= 9.70D-15 4.19D-09.
      5 vectors produced by pass 54 Test12= 4.54D-14 1.00D-09 XBig12= 4.20D-14 9.76D-09.
      5 vectors produced by pass 55 Test12= 4.54D-14 1.00D-09 XBig12= 2.40D-14 6.50D-09.
      5 vectors produced by pass 56 Test12= 4.54D-14 1.00D-09 XBig12= 2.79D-14 7.03D-09.
      5 vectors produced by pass 57 Test12= 4.54D-14 1.00D-09 XBig12= 4.15D-14 8.91D-09.
      5 vectors produced by pass 58 Test12= 4.54D-14 1.00D-09 XBig12= 1.65D-14 5.52D-09.
      5 vectors produced by pass 59 Test12= 4.54D-14 1.00D-09 XBig12= 2.78D-14 7.75D-09.
      5 vectors produced by pass 60 Test12= 4.54D-14 1.00D-09 XBig12= 3.88D-14 7.56D-09.
      5 vectors produced by pass 61 Test12= 4.54D-14 1.00D-09 XBig12= 1.44D-14 5.51D-09.
      5 vectors produced by pass 62 Test12= 4.54D-14 1.00D-09 XBig12= 3.35D-14 9.06D-09.
      5 vectors produced by pass 63 Test12= 4.54D-14 1.00D-09 XBig12= 1.43D-14 5.56D-09.
      5 vectors produced by pass 64 Test12= 4.54D-14 1.00D-09 XBig12= 1.93D-14 7.09D-09.
      5 vectors produced by pass 65 Test12= 4.54D-14 1.00D-09 XBig12= 1.77D-14 5.79D-09.
      5 vectors produced by pass 66 Test12= 4.54D-14 1.00D-09 XBig12= 2.30D-14 6.90D-09.
      5 vectors produced by pass 67 Test12= 4.54D-14 1.00D-09 XBig12= 2.47D-14 8.15D-09.
      5 vectors produced by pass 68 Test12= 4.54D-14 1.00D-09 XBig12= 3.49D-14 8.76D-09.
      5 vectors produced by pass 69 Test12= 4.54D-14 1.00D-09 XBig12= 1.36D-14 5.40D-09.
      5 vectors produced by pass 70 Test12= 4.54D-14 1.00D-09 XBig12= 2.54D-14 6.71D-09.
      5 vectors produced by pass 71 Test12= 4.54D-14 1.00D-09 XBig12= 2.35D-14 6.26D-09.
      5 vectors produced by pass 72 Test12= 4.54D-14 1.00D-09 XBig12= 3.87D-14 9.07D-09.
      5 vectors produced by pass 73 Test12= 4.54D-14 1.00D-09 XBig12= 1.60D-14 6.04D-09.
      5 vectors produced by pass 74 Test12= 4.54D-14 1.00D-09 XBig12= 3.87D-14 8.12D-09.
      5 vectors produced by pass 75 Test12= 4.54D-14 1.00D-09 XBig12= 1.41D-14 4.94D-09.
      5 vectors produced by pass 76 Test12= 4.54D-14 1.00D-09 XBig12= 3.84D-14 9.03D-09.
      5 vectors produced by pass 77 Test12= 4.54D-14 1.00D-09 XBig12= 2.49D-14 8.51D-09.
      5 vectors produced by pass 78 Test12= 4.54D-14 1.00D-09 XBig12= 1.59D-14 6.55D-09.
      5 vectors produced by pass 79 Test12= 4.54D-14 1.00D-09 XBig12= 2.34D-14 7.24D-09.
      5 vectors produced by pass 80 Test12= 4.54D-14 1.00D-09 XBig12= 4.94D-14 1.09D-08.
      5 vectors produced by pass 81 Test12= 4.54D-14 1.00D-09 XBig12= 9.03D-15 3.79D-09.
      5 vectors produced by pass 82 Test12= 4.54D-14 1.00D-09 XBig12= 2.77D-14 7.49D-09.
      5 vectors produced by pass 83 Test12= 4.54D-14 1.00D-09 XBig12= 1.77D-14 5.16D-09.
      5 vectors produced by pass 84 Test12= 4.54D-14 1.00D-09 XBig12= 1.77D-14 5.88D-09.
      5 vectors produced by pass 85 Test12= 4.54D-14 1.00D-09 XBig12= 2.38D-14 7.02D-09.
      5 vectors produced by pass 86 Test12= 4.54D-14 1.00D-09 XBig12= 1.29D-14 4.48D-09.
      5 vectors produced by pass 87 Test12= 4.54D-14 1.00D-09 XBig12= 2.65D-14 6.60D-09.
      5 vectors produced by pass 88 Test12= 4.54D-14 1.00D-09 XBig12= 1.44D-14 5.16D-09.
      5 vectors produced by pass 89 Test12= 4.54D-14 1.00D-09 XBig12= 2.61D-14 6.51D-09.
      5 vectors produced by pass 90 Test12= 4.54D-14 1.00D-09 XBig12= 3.01D-14 7.50D-09.
      5 vectors produced by pass 91 Test12= 4.54D-14 1.00D-09 XBig12= 1.97D-14 6.67D-09.
      5 vectors produced by pass 92 Test12= 4.54D-14 1.00D-09 XBig12= 2.15D-14 6.67D-09.
      5 vectors produced by pass 93 Test12= 4.54D-14 1.00D-09 XBig12= 1.00D-14 4.45D-09.
      5 vectors produced by pass 94 Test12= 4.54D-14 1.00D-09 XBig12= 1.55D-14 5.16D-09.
      5 vectors produced by pass 95 Test12= 4.54D-14 1.00D-09 XBig12= 3.32D-14 7.85D-09.
      5 vectors produced by pass 96 Test12= 4.54D-14 1.00D-09 XBig12= 1.46D-14 4.95D-09.
      3 vectors produced by pass 97 Test12= 4.54D-14 1.00D-09 XBig12= 1.02D-14 5.15D-09.
      3 vectors produced by pass 98 Test12= 4.54D-14 1.00D-09 XBig12= 3.91D-15 2.84D-09.
      2 vectors produced by pass 99 Test12= 4.54D-14 1.00D-09 XBig12= 3.16D-15 2.30D-09.
 InvSVY:  IOpt=1 It=  1 EMax= 1.89D-15
 Solved reduced A of dimension  1754 with   153 vectors.
 End of Minotr F.D. properties file   721 does not exist.
 End of Minotr F.D. properties file   722 does not exist.
[...]
 ,-0.00011922,-0.00006859,0.00000671,0.00000466,0.00000276,0.00001047,-
 0.00002586,-0.00001618,-0.00002369,-0.00001064,0.00000051,-0.00011723,
 -0.00011349,-0.00015048,0.00002428,0.00001377,0.00001609,0.00001408,0.
 00001179,0.00003012,0.00000473,0.00002252,-0.00002498,-0.00009618,-0.0
 0002428,0.00012728,-0.00001580,-0.00001189,0.00000219,0.12187721,0.295
 07891,-0.00001240,-0.00003599,0.00005526,-0.00002479,-0.00017081,-0.00
 026508,-0.00035842,0.00033202,-0.00038382,0.00010867,0.00028350,0.0000
 8134,-0.00001937,-0.00000241,0.00006791,-0.00003799,0.00001483,0.00002
 140,0.00003565,0.00000057,-0.00001436,0.00007436,0.00001424,0.00002733
 ,-0.00003407,-0.00001787,0.00000697,0.00178915,-0.00322899,0.00114039,
 -0.00198030,0.00293742,0.00629715,0.00276720,-0.00081483,-0.00195261,0
 .00011069,-0.00378675,-0.00235586,-0.00095760,0.00270753,0.00027227,-0
 .00002695,-0.00003233,0.00002528,-0.00334346,0.00189313,0.00052469,0.0
 0000769,0.00003593,0.00005228,0.00002206,0.00002044,-0.00005829,-0.000
 02606,-0.00002104,0.00003072,0.01490530,-0.00633424,0.00127591,0.01118
 548,0.03204765,-0.04725423,-0.04123043,0.00298767,-0.01668518,0.099103
 67,0.09189172,-0.19827959,-0.00354189,0.00463927,-0.00361088,-0.099967
 85,0.02022470,-0.16045829,-0.00143131,0.00529423,-0.00399207,-0.009031
 63,-0.00666354,0.01040274,0.02128339,0.00115296,0.01167290,-0.00007281
 ,-0.00004225,0.00003280,-0.00002727,0.00000828,-0.00000030,-0.00064121
 ,0.00095978,-0.00109990,-0.00009820,0.00053795,-0.00024830,-0.00020627
 ,0.00052333,0.00015850,-0.00022224,-0.00008542,0.00028312,-0.00018345,
 -0.00001434,-0.00018591,0.00031189,0.00017875,-0.00042932,0.00017719,0
 .00017990,0.00011020,-0.00001833,-0.00000866,0.00000012,-0.00000144,0.
 00005184,0.00003732,0.00003869,0.00002415,-0.00000184,0.00023113,0.000
 19065,0.00036330,-0.00004480,-0.00002810,-0.00003512,-0.00001761,-0.00
 002054,-0.00006117,0.00000766,-0.00004526,0.00004797,0.00017166,0.0000
 6729,-0.00014573,0.00003633,0.00002656,-0.00001109,0.09666572,-0.28778
 372,0.77244732,0.00005400,-0.00001193,0.00004088,-0.00007515,-0.000171
 42,-0.00012732,-0.00034938,-0.00012687,-0.00088685,0.00021006,0.000186
 86,0.00007488,-0.00016213,0.00011493,0.00018215,-0.00003100,0.00001227
 ,0.00004217,0.00004044,0.00000525,-0.00001707,0.00047812,-0.00007743,0
 .00023775,-0.00005311,-0.00003940,0.00002302,0.00328111,-0.00479718,0.
 01009938,-0.03649927,-0.04111481,-0.01143825,0.04534147,-0.00769813,-0
 .00866956,-0.05578060,0.06762179,0.01456682,-0.18065653,-0.05135342,0.
 03088997,-0.00084848,0.00386183,0.00254088,-0.32843080,-0.05784517,0.0
 4951893,0.00092723,0.00400217,0.00198250,-0.00806791,-0.03800120,0.000
 48640,-0.01298605,0.00104641,0.00419205,-0.00293760,0.01742374,0.00338
 741,0.00234492,-0.00228322,0.00347314,0.00160391,-0.00319863,0.0038506
 2,0.00113219,-0.00170400,-0.00168285,-0.00019262,0.00137802,0.00163321
 ,-0.00290806,-0.00071161,-0.00398282,-0.00053353,0.00023122,-0.0001057
 0,0.00004570,-0.00003416,0.00038816,-0.00006056,0.00048297,0.00053454,
 -0.00016819,-0.00010237,-0.00005554,-0.00003309,0.00000031,0.00002763,
 -0.00018523,-0.00028801,-0.00162131,-0.00027753,0.00052447,-0.00102883
 ,0.00014835,0.00005110,-0.00007393,0.00003684,0.00019051,0.00049414,-0
 .00005738,0.00003974,-0.00001056,0.00008779,-0.00017540,-0.00022250,0.
 00024627,0.00015739,-0.00001898,-0.00005956,0.00003674,-0.00002073,0.0
 0002142,0.00003396,0.00003620,0.00005916,0.00006403,0.00001022,0.00007
 570,0.00015218,-0.00037644,-0.00006591,-0.00000409,-0.00003116,-0.0001
 7352,0.00013161,-0.00013278,-0.00008851,0.00011460,0.00038257,0.000082
 33,0.00008919,-0.00008434,0.00001894,0.00002995,0.00000008,0.00252593,
 -0.00033903,0.00248159,0.76894102,0.00000586,0.00002880,-0.00008191,0.
 00025998,0.00034240,0.00017305,0.00023401,-0.00051216,0.00099272,0.000
 09584,-0.00040898,-0.00024561,0.00014949,0.00010837,-0.00020978,0.0000
 5966,-0.00001041,-0.00004664,-0.00005952,0.00001104,0.00004472,0.00007
 144,-0.00015573,0.00003534,0.00008323,0.00003129,-0.00002712,-0.004887
 83,0.00645705,-0.00960549,-0.04018967,-0.01153030,0.02937444,0.0388427
 5,-0.07939031,-0.01124298,0.02291202,0.02730286,-0.00690354,-0.1067522
 0,-0.31903501,0.01252068,0.00482002,-0.00197838,-0.00123989,-0.0027387
 7,-0.15298830,-0.00995823,0.00330926,-0.00385647,-0.00137928,-0.000798
 16,-0.00221705,-0.00183782,-0.03695535,0.00263090,0.00749942,0.0118956
 5,-0.00963900,-0.00757517,0.00090870,0.00312166,-0.00302425,-0.0034035
 5,0.00207768,-0.00443040,-0.00154233,-0.00129176,0.00339257,-0.0005659
 4,-0.00019218,0.00189016,0.00115466,0.00198185,0.00049697,0.00046573,-
 0.00076933,-0.00025447,0.00006122,-0.00022376,-0.00055590,-0.00026057,
 0.00015045,-0.00056985,0.00016424,0.00007495,0.00000688,0.00004503,-0.
 00001687,0.00000979,0.00095537,-0.00080592,0.00204801,-0.00001618,-0.0
 0031773,0.00060044,0.00009431,-0.00003476,0.00036492,0.00016151,-0.000
 05113,-0.00052266,-0.00012859,-0.00015008,0.00005087,-0.00007029,0.000
 11226,0.00025739,-0.00005081,-0.00005977,0.00008524,-0.00000936,0.0000
 6622,-0.00004763,-0.00004146,-0.00003606,-0.00005208,-0.00007115,-0.00
 006100,0.00000008,-0.00054151,-0.00061276,-0.00090692,0.00007259,0.000
 08634,0.00005948,0.00001595,0.00007953,0.00014472,-0.00004582,0.000120
 45,0.00006149,-0.00007617,-0.00008301,-0.00010034,-0.00003021,-0.00004
 095,-0.00000763,0.00091604,0.00121796,-0.00230133,-0.05901875,0.855799
 27,0.00002240,-0.00003364,0.00002427,-0.00000930,0.00004564,0.00003800
 ,0.00005452,0.00003804,0.00004848,0.00002721,-0.00002679,0.00008338,0.
 00001683,-0.00006262,-0.00002122,0.00000406,-0.00000027,-0.00000867,-0
 .00001323,0.00000143,-0.00000428,-0.00013911,-0.00000323,-0.00013262,0
 .00000908,0.00000527,-0.00000203,-0.00057384,0.00067559,-0.00153737,0.
 00399658,0.00784071,-0.00862364,-0.00889255,-0.00242339,0.01398287,0.0
 1640474,-0.01015075,0.00787824,0.02538847,-0.00763069,-0.06628099,0.00
 324535,-0.00144787,0.00766458,0.05983234,0.00128032,-0.06993889,0.0020
 6591,-0.00243417,0.00836661,0.00287613,0.00978804,0.00295628,-0.000421
 60,-0.00022860,0.00248629,-0.00025605,-0.00214038,0.00020347,-0.000516
 73,0.00055861,0.00027617,-0.00028864,0.00100314,-0.00053644,-0.0000621
 5,0.00065101,-0.00054589,0.00008978,-0.00021199,-0.00029085,0.00066717
 ,-0.00004359,0.00063261,0.00005274,0.00004691,0.00004803,-0.00001346,0
 .00010554,-0.00000749,0.00001149,-0.00011982,-0.00009350,0.00001558,0.
 00003313,-0.00002721,0.00000508,0.00000085,-0.00001166,-0.00002838,0.0
 0013276,0.00015734,0.00009974,-0.00007124,0.00013307,-0.00005442,-0.00
 002868,-0.00003841,0.00003077,-0.00003951,-0.00004347,0.00003484,-0.00
 000288,0.00001942,-0.00001527,0.00000028,0.00005051,-0.00007119,-0.000
 02137,-0.00001505,0.00001836,-0.00001183,-0.00000841,-0.00000542,-0.00
 000404,-0.00000618,-0.00000788,-0.00001040,-0.00000227,-0.00000027,0.0
 0002692,0.00009708,0.00001732,-0.00000815,0.00000977,0.00003611,-0.000
 05134,0.00002346,0.00006696,-0.00007892,-0.00010035,-0.00002035,-0.000
 01919,0.00001787,-0.00000377,-0.00000488,0.00000100,-0.00076086,-0.000
 33102,-0.00013338,-0.16324535,0.07682568,0.14325153,0.00000229,-0.0000
 0529,0.00000313,0.00001814,-0.00000859,-0.00001767,-0.00002214,-0.0000
 0954,-0.00000181,0.00000750,0.00002279,0.00000169,0.00000980,0.0000007
 4,-0.00000715,-0.00000108,0.00000209,-0.00000107,-0.00000372,0.0000067
 5,-0.00000792,-0.00000125,-0.00000225,0.00000128,0.00000010,0.,0.00000
 032,-0.00009556,0.00017803,0.00007711,0.00016828,-0.00018845,-0.000565
 05,-0.00024185,0.00002797,0.00010413,0.00000451,0.00028665,0.00014107,
 0.00007379,-0.00019446,-0.00001141,0.00000887,0.00000657,0.00000393,0.
 00023936,-0.00010806,-0.00004738,0.00001034,0.00000821,0.00000839,-0.0
 0000140,-0.00000214,0.00000462,0.00000449,0.00000020,-0.00000234,-0.00
 243907,-0.00011154,0.00066198,-0.00232320,-0.00410887,0.00333711,-0.00
 499511,-0.00231732,-0.00211455,0.01236064,-0.00888992,0.02550179,0.000
 43769,-0.00050721,0.00107440,-0.00390151,0.01415776,-0.03137956,-0.000
 01607,0.00045103,-0.00125483,0.00017189,0.00077538,0.00059288,0.000274
 20,0.00090188,0.00049928,-0.00000103,-0.00000042,0.00000017,-0.0000013
 4,0.00000080,-0.00000080,0.00003280,-0.00006737,0.00005228,0.00001594,
 -0.00002677,-0.00001632,0.00002475,-0.00002984,-0.00000833,0.00002167,
 0.00001647,-0.00001583,0.00002318,0.00000483,0.00000953,-0.00002920,-0
 .00001574,0.00001620,-0.00001437,-0.00001085,-0.00000655,-0.00000043,0
 .00000056,0.00000038,0.00000222,-0.00000152,-0.00000228,-0.00000103,-0
 .00000139,0.00000122,-0.00001303,-0.00000897,-0.00002219,0.00000253,0.
 00000108,0.00000219,0.00000088,0.00000061,0.00000288,0.00000034,0.0000
 0299,-0.00000298,-0.00000935,0.00000077,0.00001099,-0.00000159,-0.0000
 0299,0.00000076,-0.09406076,0.02369900,-0.08767730,-0.00017276,0.00014
 961,-0.00000264,0.09440873,-0.00000695,0.00000277,-0.00000517,0.000001
 54,0.00000030,-0.00005032,-0.00005692,0.00006588,-0.00000033,0.0000339
 3,0.00002609,-0.00000753,0.00001168,-0.00000007,0.00000135,0.00000118,
 -0.00000085,0.00000208,0.00000758,-0.00001443,0.00002029,0.00000843,-0
 .00000209,0.00000303,-0.00000301,-0.00000007,-0.00000254,-0.00000794,-
 0.00022208,-0.00048111,-0.00030369,0.00047829,0.00170645,0.00061162,-0
 .00002396,-0.00017493,-0.00005181,-0.00088580,-0.00043217,-0.00012388,
 0.00028310,0.00004826,-0.00000566,0.00001072,-0.00003528,-0.00070427,0
 .00035427,0.00011332,-0.00000803,0.00000823,-0.00000901,0.00000309,0.0
 0001111,-0.00000866,-0.00000886,0.00000133,-0.00000200,0.00014388,-0.0
 0225307,-0.00108895,-0.00374584,0.00461754,0.00275623,-0.00275954,0.00
 591867,0.00083681,0.00492078,-0.00506825,0.01245538,0.00022557,0.00031
 458,0.00048570,0.00028212,0.00310245,-0.00682983,-0.00025555,0.0005283
 2,-0.00013060,0.00092702,-0.00268836,-0.00175843,0.00068869,-0.0028070
 7,-0.00177784,0.00000187,-0.00000070,0.00001469,-0.00000142,0.00000027
 ,0.00000148,-0.00005101,0.00012755,-0.00005719,-0.00001822,0.00001868,
 0.00005592,-0.00003911,0.00000882,0.00003950,-0.00001113,-0.00002201,-
 0.00000648,-0.00002159,0.00001111,-0.00001519,0.00003694,-0.00000116,0
 .00001072,0.00000092,0.00000189,0.00000357,0.00000059,-0.00000165,0.00
 000024,-0.00000500,-0.00000402,-0.00000172,-0.00000113,0.00000068,-0.0
 0000226,0.00001794,0.00000272,0.00003539,-0.00000225,-0.00000190,-0.00
 000335,0.00000051,0.00000142,-0.00000152,-0.00000104,-0.00000519,0.000
 00735,0.00000706,-0.00000746,-0.00000012,0.00000132,0.00000007,0.00000
 075,0.02381030,-0.08838974,0.14181003,0.00054624,-0.00028588,-0.000036
 92,-0.02405613,0.08671873,-0.00001707,-0.00000495,-0.00000266,0.000034
 78,0.00003114,0.00001930,0.00004976,-0.00002796,0.00008553,-0.00000827
 ,-0.00003715,-0.00002844,0.00002784,-0.00000320,-0.00002135,0.00000684
 ,-0.00000229,-0.00000534,-0.00000706,0.00000168,0.00000655,-0.00001353
 ,-0.00000511,-0.00000442,0.00000620,0.00000533,-0.00000348,-0.00048456
 ,0.00075885,-0.00063211,0.00042004,-0.00062391,-0.00068772,-0.00038302
 ,0.00019582,0.00029764,-0.00006135,0.00047518,0.00027867,0.00012219,-0
 .00041381,-0.00003896,-0.00000351,0.00000169,-0.00001136,0.00042171,-0
 .00024854,-0.00007347,-0.00001837,-0.00000955,-0.00001850,-0.00000262,
 -0.00000046,0.00000744,0.00000079,0.00000309,-0.00001127,0.00043204,-0
 .00027240,-0.00015092,0.00272248,0.00240490,0.00308427,-0.00134123,0.0
 0060125,0.00458824,-0.00288835,0.00489155,-0.01252144,-0.00037265,0.00
 027035,-0.00015001,-0.00309655,0.00113464,-0.00456912,0.00015684,0.000
 27099,0.00012231,0.00028234,-0.00182490,0.00030691,0.00083690,-0.00170
 841,0.00024433,0.00001697,0.00002200,0.00000862,0.00000558,-0.00000070
 ,-0.00000003,0.00015572,-0.00020237,0.00028478,0.00001011,-0.00010028,
 0.00011387,0.00001506,-0.00004183,-0.00002603,0.00002178,-0.00002453,-
 0.00006387,0.00000627,-0.00001278,0.00003711,-0.00003979,0.00001193,0.
 00006742,-0.00003491,-0.00002134,-0.00000215,0.00000541,0.00000113,-0.
 00000069,-0.00000088,-0.00000639,-0.00000623,-0.00000990,-0.00000632,-
 0.00000034,-0.00005695,-0.00005767,-0.00008285,0.00001129,0.00000784,0
 .00000790,0.00000582,0.00000751,0.00001685,-0.00000293,0.00001158,-0.0
 0000918,-0.00001823,-0.00001759,0.00001084,-0.00000651,-0.00000566,0.0
 0000185,-0.08768653,0.14176674,-0.36779915,-0.00031529,0.00034282,0.00
 004205,0.09105285,-0.14747869,0.37730039,-0.00000012,0.00000628,-0.000
 01280,0.00004420,0.00004021,0.00002995,0.00004318,-0.00010589,0.000072
 47,-0.00002948,-0.00006050,-0.00006943,0.00001878,0.00001716,-0.000014
 84,0.00000799,0.00000006,-0.00000701,-0.00000665,0.00000126,0.00000657
 ,0.00001244,0.00000705,0.00003347,0.00000693,0.00000481,-0.00000380,-0
 .00056351,0.00081541,-0.00101231,-0.00177207,-0.00020204,0.00215213,0.
 00123443,-0.00523095,0.00112401,-0.00421469,-0.00387985,0.00153594,0.0
 1522469,-0.01273071,-0.00605257,0.00070508,-0.00077506,0.00011993,-0.0
 1630280,0.02854015,0.00627109,-0.00035846,0.00111783,0.00035020,0.0001
 8452,-0.00020443,-0.00100505,0.00067019,-0.00008193,-0.00084402,0.0010
 1031,-0.00125753,-0.00065932,-0.00006295,0.00031626,-0.00035918,-0.000
 32682,0.00027767,-0.00050026,-0.00015374,-0.00005065,0.00033047,-0.000
 00779,-0.00005347,0.00008525,0.00018626,0.00018690,0.00015643,0.000053
 02,-0.00006862,-0.00002333,0.00000570,-0.00001911,-0.00006208,-0.00001
 988,-0.00000053,-0.00006190,0.00002038,0.00000164,0.00000577,0.0000041
 9,0.00000016,0.00000121,0.00011041,-0.00010945,0.00023372,0.00002202,-
 0.00003648,0.00006484,-0.00000294,-0.00000720,0.00004508,0.00001212,0.
 00000230,-0.00005689,-0.00001424,-0.00002324,0.00000067,-0.00000891,0.
 00001347,0.00002898,-0.00000087,-0.00000920,0.00000748,0.00000154,0.00
 000719,-0.00000801,-0.00000472,-0.00000536,-0.00000687,-0.00000764,-0.
 00000846,0.00000027,-0.00005754,-0.00004990,-0.00006937,0.00001245,0.0
 0000594,0.00000718,0.00000735,0.00000246,0.00001806,0.00000034,0.00000
 264,-0.00000654,-0.00001266,-0.00000846,-0.00001169,-0.00000336,-0.000
 00567,-0.00000121,-0.00000129,0.00011666,-0.00027966,-0.19584842,0.170
 35002,0.06031289,0.00002189,-0.00004082,0.00004247,0.20016116,-0.00000
 331,0.00000328,0.00001186,-0.00003393,-0.00005722,-0.00003614,-0.00004
 677,0.00006614,-0.00011718,0.00001219,0.00004350,0.00000945,-0.0000206
 8,0.00000952,0.00003390,-0.00000959,0.00000211,0.00000874,0.00001028,0
 .00000051,-0.00000462,0.00005364,0.00000299,0.00002898,-0.00001262,-0.
 00000582,0.00000333,0.00072838,-0.00108320,0.00149922,-0.00014437,-0.0
 0172948,-0.00260944,-0.00553323,-0.00175140,0.00083377,-0.00382327,0.0
 0358508,0.00039262,0.01845178,-0.02238772,-0.00661391,0.00078197,-0.00
 051930,-0.00030609,-0.00271246,0.01161822,0.00238374,-0.00048048,0.000
 53213,0.00003104,0.00005119,0.00094363,0.00042907,-0.00027773,0.000555
 16,0.00049403,-0.00112798,0.00209087,0.00070720,0.00019713,-0.00041009
 ,0.00048937,0.00038048,-0.00046153,0.00069387,0.00019787,-0.00006413,-
 0.00037954,-0.00000046,0.00012938,0.00002042,-0.00036421,-0.00019020,-
 0.00039221,-0.00007140,0.00007778,0.00000957,-0.00000126,0.00001432,0.
 00007188,0.00001466,0.00003083,0.00008867,-0.00003022,-0.00001425,0.00
 000195,-0.00000760,0.00000184,0.00000251,-0.00015437,0.00011782,-0.000
 35742,-0.00005862,0.00007759,-0.00012300,0.00002575,0.00002428,-0.0000
 1821,-0.00000240,0.00001882,0.00008162,-0.00000301,0.00000333,-0.00000
 405,0.00001090,-0.00002025,-0.00004219,0.00004021,0.00002780,0.0000045
 3,-0.00001043,0.00000023,-0.00000590,0.00000638,0.00000677,0.00000778,
 0.00001164,0.00000981,0.00000126,0.00007000,0.00005927,0.00005618,-0.0
 0001695,-0.00000530,-0.00000733,-0.00001744,0.00000596,-0.00002426,-0.
 00000479,0.00000125,0.00003731,0.00001618,0.00001919,-0.00001389,0.000
 00349,0.00000646,-0.00000015,0.00017390,-0.00012274,0.00040206,0.17056
 674,-0.31504630,-0.07138171,-0.00002713,0.00007024,-0.00005919,-0.1768
 0805,0.32371283,0.00002349,0.00001535,-0.00000010,-0.00002516,-0.00000
 760,0.00001085,0.00002378,0.00003775,-0.00008025,-0.00000228,-0.000002
 04,0.00001698,-0.00002831,-0.00000872,0.00002187,-0.00000183,0.0000000
 9,0.00000152,0.00000273,-0.00000014,-0.00000219,-0.00000803,0.00001760
 ,-0.00001925,-0.00000194,-0.00000335,0.00000526,0.00006664,-0.00018836
 ,0.00006936,0.00024568,-0.00021432,-0.00102938,0.00053764,0.00126055,0
 .00532995,0.00146000,0.00066958,0.00473586,-0.00344827,0.00242520,-0.0
 0169167,0.00026893,0.00010792,0.00107021,0.00188932,-0.00457508,-0.003
 82709,0.00027772,-0.00025606,0.00097137,-0.00107717,0.00036622,-0.0028
 5779,-0.00076146,0.00050583,-0.00265539,-0.00004553,0.00019671,-0.0001
 2559,-0.00003315,0.00002337,-0.00003998,0.00002962,0.00001013,-0.00000
 663,-0.00002852,-0.00000903,0.00000104,0.00000098,0.00000773,-0.000029
 36,-0.00001850,0.00002442,-0.00006458,-0.00000944,-0.00002020,-0.00002
 961,-0.00000104,-0.00000498,-0.00001004,-0.00000040,0.00000432,-0.0000
 0347,-0.00000268,-0.00002761,-0.00001396,-0.00000218,0.00000212,-0.000
 00280,-0.00005830,0.00005080,-0.00011502,-0.00000201,0.00003695,-0.000
 04378,-0.00001633,-0.00000404,-0.00001932,0.00000007,0.00001806,0.0000
 3805,-0.00000337,-0.00000186,-0.00000196,-0.00000243,-0.00000179,-0.00
 000290,0.00001209,0.00000507,-0.00000534,-0.00000435,-0.00000158,0.000
 00326,0.00000194,-0.00000062,0.00000109,0.00000542,0.00000136,0.000001
 01,0.00003664,0.00004108,0.00005427,-0.00000176,-0.00000312,-0.0000040
 5,-0.00000298,0.00000119,-0.00000410,0.00000484,-0.00001361,0.00001936
 ,0.00000271,-0.00000098,-0.00000002,0.00000010,0.00000116,0.00000056,0
 .00003118,0.00001533,0.00002629,0.06257087,-0.07415094,-0.04008208,0.0
 0000342,-0.00001040,-0.00001182,-0.06190836,0.07366053,0.04040138\\0.0
 0000604,0.00000571,0.00001149,0.00000652,0.00000449,0.00000730,0.00000
 151,0.00000433,0.00001136,-0.00000505,0.00000261,0.00001272,-0.0000016
 8,0.00000401,0.00001671,0.00000944,0.00000824,0.00001142,0.00000565,0.
 00000332,0.00000362,-0.00000559,0.00000107,0.00001492,-0.00000336,0.00
 000346,0.00002070,0.00000342,-0.00000412,-0.00000585,-0.00000513,-0.00
 000328,0.00000084,-0.00000262,-0.00000561,-0.00000317,-0.00000883,-0.0
 0000319,0.00000477,-0.00000878,-0.00000628,-0.00000662,-0.00000515,-0.
 00000310,-0.00000782,-0.00000856,-0.00000328,0.00000215,-0.00000671,-0
 .00000076,0.00000964,-0.00000920,-0.00000748,-0.00001019,-0.00001020,-
 0.00000333,0.00000669,0.00000149,0.00000118,-0.00000147,0.00000443,0.0
 0000315,-0.00000637,0.00000511,0.00000218,0.00000031,0.00000867,0.0000
 0279,-0.00000582,0.00000316,-0.00000054,-0.00000984,0.00001005,0.00000
 520,0.00000322,0.00000436,0.00000572,0.00001026,0.00001084,0.00000296,
 -0.00000976,0.00001186,0.00000722,0.00000737,0.00000335,0.00000548,0.0
 0001613,0.00000470,0.00000803,0.00002063,-0.00001554,-0.00000136,0.000
 00235,-0.00000213,0.00000109,-0.00000832,0.00000500,-0.00000019,-0.000
 00810,-0.00000174,-0.00000837,-0.00001018,0.00000906,0.00000100,-0.000
 01191,0.00001072,0.00000470,-0.00000362,0.00000073,-0.00000409,-0.0000
 1500,-0.00000662,-0.00000543,-0.00000914,0.00001267,0.00000330,-0.0000
 1270,-0.00000150,-0.00000536,-0.00001799,-0.00000857,-0.00000568,0.000
 00128,-0.00001124,-0.00000308,0.00000703,-0.00001467,-0.00000762,0.000
 00195,-0.00001412,-0.00000615,0.00000480,0.00000609,-0.00000094,-0.000
 01555,0.00000830,-0.00000143,-0.00001964,0.00001109,0.00000298,-0.0000
 0260,-0.00000979,-0.00000459,-0.00000492,0.00001460,0.00000807,-0.0000
 0095,-0.00001209,-0.00000702,-0.00000213\\\@


 WISDOM IS KNOWING WHAT TO DO,
 SKILL IS KNOWING HOW TO DO IT,
 AND VIRTUE IS NOT DOING IT.
 Job cpu time:       1 days  8 hours 32 minutes 18.5 seconds.
 Elapsed time:       0 days  1 hours 21 minutes 31.6 seconds.
 File lengths (MBytes):  RWF=   3888 Int=      0 D2E=      0 Chk=     64 Scr=     16
 Normal termination of Gaussian 16 at Wed Mar 21 01:00:38 2018.
