Job Start Time: Thu Mar 29 00:27:32 MDT 2018
SLURM Job ID: 737657
SLURM Job Name: TS2_Int3_1Ph1Pyrax_SMD_BER
 Entering Gaussian System, Link 0=/projects/user/g16/g16
 Initial command:
 /projects/user/g16/l1.exe "/gpfs/summit/scratch/user/737657/Gau-39697.inp" -scrdir="/gpfs/summit/scratch/user/737657/"
 Entering Link 1 = /projects/user/g16/l1.exe PID=     39698.
  
 Copyright (c) 1988,1990,1992,1993,1995,1998,2003,2009,2016,
            Gaussian, Inc.  All Rights Reserved.
  
 This is part of the Gaussian(R) 16 program.  It is based on
 the Gaussian(R) 09 system (copyright 2009, Gaussian, Inc.),
 the Gaussian(R) 03 system (copyright 2003, Gaussian, Inc.),
 the Gaussian(R) 98 system (copyright 1998, Gaussian, Inc.),
 the Gaussian(R) 94 system (copyright 1995, Gaussian, Inc.),
 the Gaussian 92(TM) system (copyright 1992, Gaussian, Inc.),
 the Gaussian 90(TM) system (copyright 1990, Gaussian, Inc.),
 the Gaussian 88(TM) system (copyright 1988, Gaussian, Inc.),
 the Gaussian 86(TM) system (copyright 1986, Carnegie Mellon
 University), and the Gaussian 82(TM) system (copyright 1983,
 Carnegie Mellon University). Gaussian is a federally registered
 trademark of Gaussian, Inc.
  
 This software contains proprietary and confidential information,
 including trade secrets, belonging to Gaussian, Inc.
  
 This software is provided under written license and may be
 used, copied, transmitted, or stored only in accord with that
 written license.
  
 The following legend is applicable only to US Government
 contracts under FAR:
  
                    RESTRICTED RIGHTS LEGEND
  
 Use, reproduction and disclosure by the US Government is
 subject to restrictions as set forth in subparagraphs (a)
 and (c) of the Commercial Computer Software - Restricted
 Rights clause in FAR 52.227-19.
  
 Gaussian, Inc.
 340 Quinnipiac St., Bldg. 40, Wallingford CT 06492
  
  
 ---------------------------------------------------------------
 Warning -- This program may not be used in any manner that
 competes with the business of Gaussian, Inc. or will provide
 assistance to any competitor of Gaussian, Inc.  The licensee
 of this program is prohibited from giving any competitor of
 Gaussian, Inc. access to this program.  By using this program,
 the user acknowledges that Gaussian, Inc. is engaged in the
 business of creating and licensing software in the field of
 computational chemistry and represents and warrants to the
 licensee that it is not a competitor of Gaussian, Inc. and that
 it will not use this program in any manner prohibited above.
 ---------------------------------------------------------------
  

 Cite this work as:
 Gaussian 16, Revision A.03,
 M. J. Frisch, G. W. Trucks, H. B. Schlegel, G. E. Scuseria, 
 M. A. Robb, J. R. Cheeseman, G. Scalmani, V. Barone, 
 G. A. Petersson, H. Nakatsuji, X. Li, M. Caricato, A. V. Marenich, 
 J. Bloino, B. G. Janesko, R. Gomperts, B. Mennucci, H. P. Hratchian, 
 J. V. Ortiz, A. F. Izmaylov, J. L. Sonnenberg, D. Williams-Young, 
 F. Ding, F. Lipparini, F. Egidi, J. Goings, B. Peng, A. Petrone, 
 T. Henderson, D. Ranasinghe, V. G. Zakrzewski, J. Gao, N. Rega, 
 G. Zheng, W. Liang, M. Hada, M. Ehara, K. Toyota, R. Fukuda, 
 J. Hasegawa, M. Ishida, T. Nakajima, Y. Honda, O. Kitao, H. Nakai, 
 T. Vreven, K. Throssell, J. A. Montgomery, Jr., J. E. Peralta, 
 F. Ogliaro, M. J. Bearpark, J. J. Heyd, E. N. Brothers, K. N. Kudin, 
 V. N. Staroverov, T. A. Keith, R. Kobayashi, J. Normand, 
 K. Raghavachari, A. P. Rendell, J. C. Burant, S. S. Iyengar, 
 J. Tomasi, M. Cossi, J. M. Millam, M. Klene, C. Adamo, R. Cammi, 
 J. W. Ochterski, R. L. Martin, K. Morokuma, O. Farkas, 
 J. B. Foresman, and D. J. Fox, Gaussian, Inc., Wallingford CT, 2016.
 
 ******************************************
 Gaussian 16:  ES64L-G16RevA.03 25-Dec-2016
                29-Mar-2018 
 ******************************************
 %chk=T443teqeeSazng.chk
 %nprocshared=24
 Will use up to   24 processors via shared memory.
 %mem=98GB
 ----------------------------------------------------------------------
 # opt=(calcfc,ts,noeigentest,maxcycle=600) scrf=(solvent=ethanol,smd) 
 freq=noraman wb97xd/6-31+g(d) geom=connectivity
 ----------------------------------------------------------------------
 1/5=1,6=600,10=4,11=1,18=20,26=3,38=1,57=2/1,3;
 2/9=110,12=2,17=6,18=5,40=1/2;
 3/5=1,6=6,7=11,11=2,25=1,30=1,70=32201,71=2,72=4,74=-58,140=1/1,2,3;
 4//1;
 5/5=2,38=5,53=4/2;
 8/6=4,10=90,11=11/1;
 11/6=1,8=1,9=11,15=111,16=1/1,2,10;
 10/6=1,13=1/2;
 6/7=2,8=2,9=2,10=2,28=1/1;
 7/10=1,18=20,25=1/1,2,3,16;
 1/5=1,6=600,10=4,11=1,18=20,26=3/3(2);
 2/9=110/2;
 99//99;
 2/9=110/2;
 3/5=1,6=6,7=11,11=2,25=1,30=1,70=32205,71=1,72=4,74=-58/1,2,3;
 4/5=5,16=3,69=1/1;
 5/5=2,38=5,53=4/2;
 7//1,2,3,16;
 1/5=1,6=600,11=1,18=20,26=3/3(-5);
 2/9=110/2;
 6/7=2,8=2,9=2,10=2,19=2,28=1/1;
 99/9=1/99;
 -------------------
 Title Card Required
 -------------------
 Symbolic Z-matrix:
 Charge =  2 Multiplicity = 1
 C                    -1.69302   2.77358  -1.81561 
 C                    -0.67756   1.99932  -1.26199 
 C                    -0.79016   1.54072   0.05797 
 C                    -1.92579   1.85886   0.81406 
 C                    -2.93544   2.63507   0.25212 
 H                    -1.5994    3.13066  -2.83706 
 H                     0.19702   1.75558  -1.85919 
 H                    -2.02557   1.49973   1.83345 
 H                    -3.8126    2.88353   0.84279 
 P                     0.39406   0.33754   0.68048 
 C                    -1.57464  -1.45914  -0.18008 
 C                    -2.14083  -1.61537   1.09359 
 C                    -2.41513  -1.09258  -1.23767 
 C                    -3.48488  -1.38374   1.28069 
 H                    -1.54689  -1.88476   1.95954 
 C                    -3.75406  -0.86245  -1.00152 
 H                    -2.05198  -0.97902  -2.25104 
 H                    -3.98177  -1.47639   2.23783 
 H                    -4.45439  -0.56309  -1.77074 
 C                     2.07304   0.89787   0.31475 
 C                     3.10165  -0.05157   0.25732 
 C                     2.36547   2.25748   0.1381 
 C                     4.41054   0.35473   0.01505 
 H                     2.88863  -1.10503   0.41056 
 C                     3.67642   2.65612  -0.10518 
 H                     1.57892   3.00472   0.19145 
 C                     4.69649   1.70658  -0.17051 
 H                     5.20512  -0.38444  -0.02906 
 H                     3.90095   3.70984  -0.24303 
 H                     5.71802   2.02243  -0.36324 
 C                    -2.82345   3.08806  -1.06214 
 H                    -3.61613   3.68936  -1.49849 
 O                     0.14628   0.40856   2.2835 
 C                    -0.08938  -1.63783  -0.38642 
 C                     0.50833  -2.79156   0.28688 
 C                     0.45977  -1.40673  -1.71904 
 C                     1.60024  -3.41471  -0.21541 
 H                     0.08719  -3.16333   1.21286 
 C                     1.57036  -2.05709  -2.1461 
 H                     0.03755  -0.6473   -2.36632 
 H                     2.06281  -4.26204   0.27644 
 H                     2.02441  -1.85665  -3.10936 
 N                     2.16322  -3.02471  -1.39519 
 C                     0.85725  -0.49234   3.15624 
 H                     0.56371  -0.21346   4.16843 
 H                     0.56885  -1.52751   2.95764 
 H                     1.93795  -0.36761   3.03817 
 N                    -4.24614  -1.0115    0.23802 
 H                    -5.23751  -0.8371    0.39396 
 H                     2.96318  -3.52578  -1.76126 
 
 Add virtual bond connecting atoms H15        and H46        Dist= 4.47D+00.
 Add virtual bond connecting atoms C34        and P10        Dist= 4.34D+00.
 Add virtual bond connecting atoms H38        and H46        Dist= 4.61D+00.

 GradGradGradGradGradGradGradGradGradGradGradGradGradGradGradGradGradGrad
 Berny optimization.
 Initialization pass.
                           ----------------------------
                           !    Initial Parameters    !
                           ! (Angstroms and Degrees)  !
 --------------------------                            --------------------------
 ! Name  Definition              Value          Derivative Info.                !
 --------------------------------------------------------------------------------
 ! R1    R(1,2)                  1.3918         calculate D2E/DX2 analytically  !
 ! R2    R(1,6)                  1.0861         calculate D2E/DX2 analytically  !
 ! R3    R(1,31)                 1.3944         calculate D2E/DX2 analytically  !
 ! R4    R(2,3)                  1.4019         calculate D2E/DX2 analytically  !
 ! R5    R(2,7)                  1.0867         calculate D2E/DX2 analytically  !
 ! R6    R(3,4)                  1.4009         calculate D2E/DX2 analytically  !
 ! R7    R(3,10)                 1.7993         calculate D2E/DX2 analytically  !
 ! R8    R(4,5)                  1.392          calculate D2E/DX2 analytically  !
 ! R9    R(4,8)                  1.0854         calculate D2E/DX2 analytically  !
 ! R10   R(5,9)                  1.0863         calculate D2E/DX2 analytically  !
 ! R11   R(5,31)                 1.3946         calculate D2E/DX2 analytically  !
 ! R12   R(10,20)                1.8074         calculate D2E/DX2 analytically  !
 ! R13   R(10,33)                1.6236         calculate D2E/DX2 analytically  !
 ! R14   R(10,34)                2.2965         calculate D2E/DX2 analytically  !
 ! R15   R(11,12)                1.4026         calculate D2E/DX2 analytically  !
 ! R16   R(11,13)                1.3997         calculate D2E/DX2 analytically  !
 ! R17   R(11,34)                1.5101         calculate D2E/DX2 analytically  !
 ! R18   R(12,14)                1.3766         calculate D2E/DX2 analytically  !
 ! R19   R(12,15)                1.0841         calculate D2E/DX2 analytically  !
 ! R20   R(13,16)                1.3789         calculate D2E/DX2 analytically  !
 ! R21   R(13,17)                1.0825         calculate D2E/DX2 analytically  !
 ! R22   R(14,18)                1.0824         calculate D2E/DX2 analytically  !
 ! R23   R(14,48)                1.3436         calculate D2E/DX2 analytically  !
 ! R24   R(15,46)                2.3665         calculate D2E/DX2 analytically  !
 ! R25   R(16,19)                1.0825         calculate D2E/DX2 analytically  !
 ! R26   R(16,48)                1.3419         calculate D2E/DX2 analytically  !
 ! R27   R(20,21)                1.401          calculate D2E/DX2 analytically  !
 ! R28   R(20,22)                1.4019         calculate D2E/DX2 analytically  !
 ! R29   R(21,23)                1.3918         calculate D2E/DX2 analytically  !
 ! R30   R(21,24)                1.0857         calculate D2E/DX2 analytically  !
 ! R31   R(22,25)                1.3917         calculate D2E/DX2 analytically  !
 ! R32   R(22,26)                1.0862         calculate D2E/DX2 analytically  !
 ! R33   R(23,27)                1.3942         calculate D2E/DX2 analytically  !
 ! R34   R(23,28)                1.0861         calculate D2E/DX2 analytically  !
 ! R35   R(25,27)                1.3951         calculate D2E/DX2 analytically  !
 ! R36   R(25,29)                1.0862         calculate D2E/DX2 analytically  !
 ! R37   R(27,30)                1.0865         calculate D2E/DX2 analytically  !
 ! R38   R(31,32)                1.0864         calculate D2E/DX2 analytically  !
 ! R39   R(33,44)                1.4418         calculate D2E/DX2 analytically  !
 ! R40   R(34,35)                1.4635         calculate D2E/DX2 analytically  !
 ! R41   R(34,36)                1.4597         calculate D2E/DX2 analytically  !
 ! R42   R(35,37)                1.3538         calculate D2E/DX2 analytically  !
 ! R43   R(35,38)                1.0831         calculate D2E/DX2 analytically  !
 ! R44   R(36,39)                1.356          calculate D2E/DX2 analytically  !
 ! R45   R(36,40)                1.0835         calculate D2E/DX2 analytically  !
 ! R46   R(37,41)                1.0834         calculate D2E/DX2 analytically  !
 ! R47   R(37,43)                1.3642         calculate D2E/DX2 analytically  !
 ! R48   R(38,46)                2.4397         calculate D2E/DX2 analytically  !
 ! R49   R(39,42)                1.0836         calculate D2E/DX2 analytically  !
 ! R50   R(39,43)                1.3607         calculate D2E/DX2 analytically  !
 ! R51   R(43,50)                1.0124         calculate D2E/DX2 analytically  !
 ! R52   R(44,45)                1.0902         calculate D2E/DX2 analytically  !
 ! R53   R(44,46)                1.0928         calculate D2E/DX2 analytically  !
 ! R54   R(44,47)                1.0943         calculate D2E/DX2 analytically  !
 ! R55   R(48,49)                1.0186         calculate D2E/DX2 analytically  !
 ! A1    A(2,1,6)              119.6102         calculate D2E/DX2 analytically  !
 ! A2    A(2,1,31)             120.1311         calculate D2E/DX2 analytically  !
 ! A3    A(6,1,31)             120.2587         calculate D2E/DX2 analytically  !
 ! A4    A(1,2,3)              119.862          calculate D2E/DX2 analytically  !
 ! A5    A(1,2,7)              119.5609         calculate D2E/DX2 analytically  !
 ! A6    A(3,2,7)              120.5771         calculate D2E/DX2 analytically  !
 ! A7    A(2,3,4)              119.9331         calculate D2E/DX2 analytically  !
 ! A8    A(2,3,10)             119.4485         calculate D2E/DX2 analytically  !
 ! A9    A(4,3,10)             119.911          calculate D2E/DX2 analytically  !
 ! A10   A(3,4,5)              119.7839         calculate D2E/DX2 analytically  !
 ! A11   A(3,4,8)              120.416          calculate D2E/DX2 analytically  !
 ! A12   A(5,4,8)              119.7994         calculate D2E/DX2 analytically  !
 ! A13   A(4,5,9)              119.5849         calculate D2E/DX2 analytically  !
 ! A14   A(4,5,31)             120.2188         calculate D2E/DX2 analytically  !
 ! A15   A(9,5,31)             120.1961         calculate D2E/DX2 analytically  !
 ! A16   A(3,10,20)            109.516          calculate D2E/DX2 analytically  !
 ! A17   A(3,10,33)            102.2332         calculate D2E/DX2 analytically  !
 ! A18   A(3,10,34)            106.0158         calculate D2E/DX2 analytically  !
 ! A19   A(20,10,33)           109.1467         calculate D2E/DX2 analytically  !
 ! A20   A(20,10,34)           111.6052         calculate D2E/DX2 analytically  !
 ! A21   A(33,10,34)           117.6572         calculate D2E/DX2 analytically  !
 ! A22   A(12,11,13)           118.222          calculate D2E/DX2 analytically  !
 ! A23   A(12,11,34)           120.5263         calculate D2E/DX2 analytically  !
 ! A24   A(13,11,34)           121.2197         calculate D2E/DX2 analytically  !
 ! A25   A(11,12,14)           119.9212         calculate D2E/DX2 analytically  !
 ! A26   A(11,12,15)           122.1333         calculate D2E/DX2 analytically  !
 ! A27   A(14,12,15)           117.9146         calculate D2E/DX2 analytically  !
 ! A28   A(11,13,16)           119.825          calculate D2E/DX2 analytically  !
 ! A29   A(11,13,17)           122.2329         calculate D2E/DX2 analytically  !
 ! A30   A(16,13,17)           117.942          calculate D2E/DX2 analytically  !
 ! A31   A(12,14,18)           123.6406         calculate D2E/DX2 analytically  !
 ! A32   A(12,14,48)           119.6241         calculate D2E/DX2 analytically  !
 ! A33   A(18,14,48)           116.7336         calculate D2E/DX2 analytically  !
 ! A34   A(12,15,46)           142.1129         calculate D2E/DX2 analytically  !
 ! A35   A(13,16,19)           123.5492         calculate D2E/DX2 analytically  !
 ! A36   A(13,16,48)           119.7163         calculate D2E/DX2 analytically  !
 ! A37   A(19,16,48)           116.7344         calculate D2E/DX2 analytically  !
 ! A38   A(10,20,21)           118.7006         calculate D2E/DX2 analytically  !
 ! A39   A(10,20,22)           121.3286         calculate D2E/DX2 analytically  !
 ! A40   A(21,20,22)           119.93           calculate D2E/DX2 analytically  !
 ! A41   A(20,21,23)           119.986          calculate D2E/DX2 analytically  !
 ! A42   A(20,21,24)           120.5145         calculate D2E/DX2 analytically  !
 ! A43   A(23,21,24)           119.4967         calculate D2E/DX2 analytically  !
 ! A44   A(20,22,25)           119.7583         calculate D2E/DX2 analytically  !
 ! A45   A(20,22,26)           120.6604         calculate D2E/DX2 analytically  !
 ! A46   A(25,22,26)           119.5811         calculate D2E/DX2 analytically  !
 ! A47   A(21,23,27)           119.9426         calculate D2E/DX2 analytically  !
 ! A48   A(21,23,28)           119.7627         calculate D2E/DX2 analytically  !
 ! A49   A(27,23,28)           120.2948         calculate D2E/DX2 analytically  !
 ! A50   A(22,25,27)           120.1314         calculate D2E/DX2 analytically  !
 ! A51   A(22,25,29)           119.6575         calculate D2E/DX2 analytically  !
 ! A52   A(27,25,29)           120.2111         calculate D2E/DX2 analytically  !
 ! A53   A(23,27,25)           120.2484         calculate D2E/DX2 analytically  !
 ! A54   A(23,27,30)           119.8899         calculate D2E/DX2 analytically  !
 ! A55   A(25,27,30)           119.8613         calculate D2E/DX2 analytically  !
 ! A56   A(1,31,5)             120.0689         calculate D2E/DX2 analytically  !
 ! A57   A(1,31,32)            119.9521         calculate D2E/DX2 analytically  !
 ! A58   A(5,31,32)            119.9788         calculate D2E/DX2 analytically  !
 ! A59   A(10,33,44)           119.6731         calculate D2E/DX2 analytically  !
 ! A60   A(10,34,11)            92.3946         calculate D2E/DX2 analytically  !
 ! A61   A(10,34,35)           112.2343         calculate D2E/DX2 analytically  !
 ! A62   A(10,34,36)           102.0488         calculate D2E/DX2 analytically  !
 ! A63   A(11,34,35)           115.6022         calculate D2E/DX2 analytically  !
 ! A64   A(11,34,36)           118.4249         calculate D2E/DX2 analytically  !
 ! A65   A(35,34,36)           113.0275         calculate D2E/DX2 analytically  !
 ! A66   A(34,35,37)           121.4383         calculate D2E/DX2 analytically  !
 ! A67   A(34,35,38)           120.3413         calculate D2E/DX2 analytically  !
 ! A68   A(37,35,38)           118.218          calculate D2E/DX2 analytically  !
 ! A69   A(34,36,39)           121.3112         calculate D2E/DX2 analytically  !
 ! A70   A(34,36,40)           120.646          calculate D2E/DX2 analytically  !
 ! A71   A(39,36,40)           117.8519         calculate D2E/DX2 analytically  !
 ! A72   A(35,37,41)           122.4041         calculate D2E/DX2 analytically  !
 ! A73   A(35,37,43)           121.4754         calculate D2E/DX2 analytically  !
 ! A74   A(41,37,43)           116.1035         calculate D2E/DX2 analytically  !
 ! A75   A(35,38,46)           107.7287         calculate D2E/DX2 analytically  !
 ! A76   A(36,39,42)           122.3048         calculate D2E/DX2 analytically  !
 ! A77   A(36,39,43)           121.6072         calculate D2E/DX2 analytically  !
 ! A78   A(42,39,43)           116.0733         calculate D2E/DX2 analytically  !
 ! A79   A(37,43,39)           120.0489         calculate D2E/DX2 analytically  !
 ! A80   A(37,43,50)           119.8217         calculate D2E/DX2 analytically  !
 ! A81   A(39,43,50)           119.7788         calculate D2E/DX2 analytically  !
 ! A82   A(33,44,45)           105.6283         calculate D2E/DX2 analytically  !
 ! A83   A(33,44,46)           110.5948         calculate D2E/DX2 analytically  !
 ! A84   A(33,44,47)           110.5156         calculate D2E/DX2 analytically  !
 ! A85   A(45,44,46)           109.877          calculate D2E/DX2 analytically  !
 ! A86   A(45,44,47)           109.6906         calculate D2E/DX2 analytically  !
 ! A87   A(46,44,47)           110.4268         calculate D2E/DX2 analytically  !
 ! A88   A(15,46,38)            54.5944         calculate D2E/DX2 analytically  !
 ! A89   A(15,46,44)           117.1039         calculate D2E/DX2 analytically  !
 ! A90   A(38,46,44)           144.8074         calculate D2E/DX2 analytically  !
 ! A91   A(14,48,16)           122.6718         calculate D2E/DX2 analytically  !
 ! A92   A(14,48,49)           118.6894         calculate D2E/DX2 analytically  !
 ! A93   A(16,48,49)           118.6387         calculate D2E/DX2 analytically  !
 ! D1    D(6,1,2,3)            179.7104         calculate D2E/DX2 analytically  !
 ! D2    D(6,1,2,7)             -0.3001         calculate D2E/DX2 analytically  !
 ! D3    D(31,1,2,3)            -0.2976         calculate D2E/DX2 analytically  !
 ! D4    D(31,1,2,7)           179.6919         calculate D2E/DX2 analytically  !
 ! D5    D(2,1,31,5)             0.4435         calculate D2E/DX2 analytically  !
 ! D6    D(2,1,31,32)         -179.7594         calculate D2E/DX2 analytically  !
 ! D7    D(6,1,31,5)          -179.5645         calculate D2E/DX2 analytically  !
 ! D8    D(6,1,31,32)            0.2326         calculate D2E/DX2 analytically  !
 ! D9    D(1,2,3,4)              0.2236         calculate D2E/DX2 analytically  !
 ! D10   D(1,2,3,10)           170.5797         calculate D2E/DX2 analytically  !
 ! D11   D(7,2,3,4)           -179.7658         calculate D2E/DX2 analytically  !
 ! D12   D(7,2,3,10)            -9.4097         calculate D2E/DX2 analytically  !
 ! D13   D(2,3,4,5)             -0.295          calculate D2E/DX2 analytically  !
 ! D14   D(2,3,4,8)            179.3934         calculate D2E/DX2 analytically  !
 ! D15   D(10,3,4,5)          -170.6063         calculate D2E/DX2 analytically  !
 ! D16   D(10,3,4,8)             9.0822         calculate D2E/DX2 analytically  !
 ! D17   D(2,3,10,20)           49.7068         calculate D2E/DX2 analytically  !
 ! D18   D(2,3,10,33)          165.3593         calculate D2E/DX2 analytically  !
 ! D19   D(2,3,10,34)          -70.8349         calculate D2E/DX2 analytically  !
 ! D20   D(4,3,10,20)         -139.9349         calculate D2E/DX2 analytically  !
 ! D21   D(4,3,10,33)          -24.2824         calculate D2E/DX2 analytically  !
 ! D22   D(4,3,10,34)           99.5234         calculate D2E/DX2 analytically  !
 ! D23   D(3,4,5,9)           -179.7287         calculate D2E/DX2 analytically  !
 ! D24   D(3,4,5,31)             0.4414         calculate D2E/DX2 analytically  !
 ! D25   D(8,4,5,9)              0.5809         calculate D2E/DX2 analytically  !
 ! D26   D(8,4,5,31)          -179.249          calculate D2E/DX2 analytically  !
 ! D27   D(4,5,31,1)            -0.5162         calculate D2E/DX2 analytically  !
 ! D28   D(4,5,31,32)          179.6868         calculate D2E/DX2 analytically  !
 ! D29   D(9,5,31,1)           179.6549         calculate D2E/DX2 analytically  !
 ! D30   D(9,5,31,32)           -0.1421         calculate D2E/DX2 analytically  !
 ! D31   D(3,10,20,21)        -157.1317         calculate D2E/DX2 analytically  !
 ! D32   D(3,10,20,22)          25.1934         calculate D2E/DX2 analytically  !
 ! D33   D(33,10,20,21)         91.7051         calculate D2E/DX2 analytically  !
 ! D34   D(33,10,20,22)        -85.9699         calculate D2E/DX2 analytically  !
 ! D35   D(34,10,20,21)        -40.0535         calculate D2E/DX2 analytically  !
 ! D36   D(34,10,20,22)        142.2715         calculate D2E/DX2 analytically  !
 ! D37   D(3,10,33,44)         175.8361         calculate D2E/DX2 analytically  !
 ! D38   D(20,10,33,44)        -68.2434         calculate D2E/DX2 analytically  !
 ! D39   D(34,10,33,44)         60.2191         calculate D2E/DX2 analytically  !
 ! D40   D(3,10,34,11)         -44.0111         calculate D2E/DX2 analytically  !
 ! D41   D(3,10,34,35)        -162.98           calculate D2E/DX2 analytically  !
 ! D42   D(3,10,34,36)          75.7299         calculate D2E/DX2 analytically  !
 ! D43   D(20,10,34,11)       -163.1876         calculate D2E/DX2 analytically  !
 ! D44   D(20,10,34,35)         77.8434         calculate D2E/DX2 analytically  !
 ! D45   D(20,10,34,36)        -43.4466         calculate D2E/DX2 analytically  !
 ! D46   D(33,10,34,11)         69.5241         calculate D2E/DX2 analytically  !
 ! D47   D(33,10,34,35)        -49.4448         calculate D2E/DX2 analytically  !
 ! D48   D(33,10,34,36)       -170.7349         calculate D2E/DX2 analytically  !
 ! D49   D(13,11,12,14)         -1.2387         calculate D2E/DX2 analytically  !
 ! D50   D(13,11,12,15)       -179.1743         calculate D2E/DX2 analytically  !
 ! D51   D(34,11,12,14)        176.7287         calculate D2E/DX2 analytically  !
 ! D52   D(34,11,12,15)         -1.2069         calculate D2E/DX2 analytically  !
 ! D53   D(12,11,13,16)          1.6695         calculate D2E/DX2 analytically  !
 ! D54   D(12,11,13,17)       -178.3983         calculate D2E/DX2 analytically  !
 ! D55   D(34,11,13,16)       -176.2832         calculate D2E/DX2 analytically  !
 ! D56   D(34,11,13,17)          3.649          calculate D2E/DX2 analytically  !
 ! D57   D(12,11,34,10)        -72.255          calculate D2E/DX2 analytically  !
 ! D58   D(12,11,34,35)         43.8487         calculate D2E/DX2 analytically  !
 ! D59   D(12,11,34,36)       -177.3371         calculate D2E/DX2 analytically  !
 ! D60   D(13,11,34,10)        105.6507         calculate D2E/DX2 analytically  !
 ! D61   D(13,11,34,35)       -138.2455         calculate D2E/DX2 analytically  !
 ! D62   D(13,11,34,36)          0.5687         calculate D2E/DX2 analytically  !
 ! D63   D(11,12,14,18)       -179.3693         calculate D2E/DX2 analytically  !
 ! D64   D(11,12,14,48)          0.138          calculate D2E/DX2 analytically  !
 ! D65   D(15,12,14,18)         -1.3476         calculate D2E/DX2 analytically  !
 ! D66   D(15,12,14,48)        178.1597         calculate D2E/DX2 analytically  !
 ! D67   D(11,12,15,46)         37.1494         calculate D2E/DX2 analytically  !
 ! D68   D(14,12,15,46)       -140.8258         calculate D2E/DX2 analytically  !
 ! D69   D(11,13,16,19)        179.1086         calculate D2E/DX2 analytically  !
 ! D70   D(11,13,16,48)         -1.0099         calculate D2E/DX2 analytically  !
 ! D71   D(17,13,16,19)         -0.8264         calculate D2E/DX2 analytically  !
 ! D72   D(17,13,16,48)        179.0551         calculate D2E/DX2 analytically  !
 ! D73   D(12,14,48,16)          0.5798         calculate D2E/DX2 analytically  !
 ! D74   D(12,14,48,49)       -179.549          calculate D2E/DX2 analytically  !
 ! D75   D(18,14,48,16)       -179.8795         calculate D2E/DX2 analytically  !
 ! D76   D(18,14,48,49)         -0.0082         calculate D2E/DX2 analytically  !
 ! D77   D(12,15,46,38)        -83.6269         calculate D2E/DX2 analytically  !
 ! D78   D(12,15,46,44)         56.0605         calculate D2E/DX2 analytically  !
 ! D79   D(13,16,48,14)         -0.1398         calculate D2E/DX2 analytically  !
 ! D80   D(13,16,48,49)        179.9889         calculate D2E/DX2 analytically  !
 ! D81   D(19,16,48,14)        179.7496         calculate D2E/DX2 analytically  !
 ! D82   D(19,16,48,49)         -0.1217         calculate D2E/DX2 analytically  !
 ! D83   D(10,20,21,23)       -178.1928         calculate D2E/DX2 analytically  !
 ! D84   D(10,20,21,24)          1.1849         calculate D2E/DX2 analytically  !
 ! D85   D(22,20,21,23)         -0.4845         calculate D2E/DX2 analytically  !
 ! D86   D(22,20,21,24)        178.8932         calculate D2E/DX2 analytically  !
 ! D87   D(10,20,22,25)        178.198          calculate D2E/DX2 analytically  !
 ! D88   D(10,20,22,26)         -1.6574         calculate D2E/DX2 analytically  !
 ! D89   D(21,20,22,25)          0.5512         calculate D2E/DX2 analytically  !
 ! D90   D(21,20,22,26)       -179.3042         calculate D2E/DX2 analytically  !
 ! D91   D(20,21,23,27)         -0.0119         calculate D2E/DX2 analytically  !
 ! D92   D(20,21,23,28)       -179.9794         calculate D2E/DX2 analytically  !
 ! D93   D(24,21,23,27)       -179.396          calculate D2E/DX2 analytically  !
 ! D94   D(24,21,23,28)          0.6366         calculate D2E/DX2 analytically  !
 ! D95   D(20,22,25,27)         -0.1229         calculate D2E/DX2 analytically  !
 ! D96   D(20,22,25,29)        179.9247         calculate D2E/DX2 analytically  !
 ! D97   D(26,22,25,27)        179.7341         calculate D2E/DX2 analytically  !
 ! D98   D(26,22,25,29)         -0.2183         calculate D2E/DX2 analytically  !
 ! D99   D(21,23,27,25)          0.4427         calculate D2E/DX2 analytically  !
 ! D100  D(21,23,27,30)       -179.7743         calculate D2E/DX2 analytically  !
 ! D101  D(28,23,27,25)       -179.5901         calculate D2E/DX2 analytically  !
 ! D102  D(28,23,27,30)          0.193          calculate D2E/DX2 analytically  !
 ! D103  D(22,25,27,23)         -0.3752         calculate D2E/DX2 analytically  !
 ! D104  D(22,25,27,30)        179.8417         calculate D2E/DX2 analytically  !
 ! D105  D(29,25,27,23)        179.5769         calculate D2E/DX2 analytically  !
 ! D106  D(29,25,27,30)         -0.2061         calculate D2E/DX2 analytically  !
 ! D107  D(10,33,44,45)        177.0239         calculate D2E/DX2 analytically  !
 ! D108  D(10,33,44,46)        -64.142          calculate D2E/DX2 analytically  !
 ! D109  D(10,33,44,47)         58.453          calculate D2E/DX2 analytically  !
 ! D110  D(10,34,35,37)       -104.7542         calculate D2E/DX2 analytically  !
 ! D111  D(10,34,35,38)         74.6681         calculate D2E/DX2 analytically  !
 ! D112  D(11,34,35,37)        151.0089         calculate D2E/DX2 analytically  !
 ! D113  D(11,34,35,38)        -29.5688         calculate D2E/DX2 analytically  !
 ! D114  D(36,34,35,37)         10.0041         calculate D2E/DX2 analytically  !
 ! D115  D(36,34,35,38)       -170.5735         calculate D2E/DX2 analytically  !
 ! D116  D(10,34,36,39)        109.4315         calculate D2E/DX2 analytically  !
 ! D117  D(10,34,36,40)        -65.4394         calculate D2E/DX2 analytically  !
 ! D118  D(11,34,36,39)       -151.123          calculate D2E/DX2 analytically  !
 ! D119  D(11,34,36,40)         34.0061         calculate D2E/DX2 analytically  !
 ! D120  D(35,34,36,39)        -11.3086         calculate D2E/DX2 analytically  !
 ! D121  D(35,34,36,40)        173.8205         calculate D2E/DX2 analytically  !
 ! D122  D(34,35,37,41)        179.2131         calculate D2E/DX2 analytically  !
 ! D123  D(34,35,37,43)         -2.3475         calculate D2E/DX2 analytically  !
 ! D124  D(38,35,37,41)         -0.2212         calculate D2E/DX2 analytically  !
 ! D125  D(38,35,37,43)        178.2183         calculate D2E/DX2 analytically  !
 ! D126  D(34,35,38,46)        -70.6215         calculate D2E/DX2 analytically  !
 ! D127  D(37,35,38,46)        108.8192         calculate D2E/DX2 analytically  !
 ! D128  D(34,36,39,42)       -176.4194         calculate D2E/DX2 analytically  !
 ! D129  D(34,36,39,43)          5.0315         calculate D2E/DX2 analytically  !
 ! D130  D(40,36,39,42)         -1.4099         calculate D2E/DX2 analytically  !
 ! D131  D(40,36,39,43)       -179.959          calculate D2E/DX2 analytically  !
 ! D132  D(35,37,43,39)         -5.0195         calculate D2E/DX2 analytically  !
 ! D133  D(35,37,43,50)       -178.2073         calculate D2E/DX2 analytically  !
 ! D134  D(41,37,43,39)        173.5134         calculate D2E/DX2 analytically  !
 ! D135  D(41,37,43,50)          0.3255         calculate D2E/DX2 analytically  !
 ! D136  D(35,38,46,15)        106.0996         calculate D2E/DX2 analytically  !
 ! D137  D(35,38,46,44)         18.2785         calculate D2E/DX2 analytically  !
 ! D138  D(36,39,43,37)          3.6656         calculate D2E/DX2 analytically  !
 ! D139  D(36,39,43,50)        176.8564         calculate D2E/DX2 analytically  !
 ! D140  D(42,39,43,37)       -174.9691         calculate D2E/DX2 analytically  !
 ! D141  D(42,39,43,50)         -1.7784         calculate D2E/DX2 analytically  !
 ! D142  D(33,44,46,15)        -23.8561         calculate D2E/DX2 analytically  !
 ! D143  D(33,44,46,38)         42.3442         calculate D2E/DX2 analytically  !
 ! D144  D(45,44,46,15)         92.3675         calculate D2E/DX2 analytically  !
 ! D145  D(45,44,46,38)        158.5678         calculate D2E/DX2 analytically  !
 ! D146  D(47,44,46,15)       -146.5029         calculate D2E/DX2 analytically  !
 ! D147  D(47,44,46,38)        -80.3027         calculate D2E/DX2 analytically  !
 --------------------------------------------------------------------------------
 Trust Radius=3.00D-01 FncErr=1.00D-07 GrdErr=1.00D-06 EigMax=2.50D+02 EigMin=1.00D-04
 Number of steps in this run=    300 maximum allowed number of steps=    300.
 Search for a saddle point of order  1.
 GradGradGradGradGradGradGradGradGradGradGradGradGradGradGradGradGradGrad

                          Input orientation:                          
 ---------------------------------------------------------------------
 Center     Atomic      Atomic             Coordinates (Angstroms)
 Number     Number       Type             X           Y           Z
 ---------------------------------------------------------------------
      1          6           0       -1.693023    2.773578   -1.815614
      2          6           0       -0.677564    1.999316   -1.261986
      3          6           0       -0.790155    1.540721    0.057973
      4          6           0       -1.925788    1.858863    0.814061
      5          6           0       -2.935439    2.635069    0.252117
      6          1           0       -1.599398    3.130661   -2.837060
      7          1           0        0.197022    1.755575   -1.859191
      8          1           0       -2.025575    1.499728    1.833446
      9          1           0       -3.812598    2.883533    0.842794
     10         15           0        0.394059    0.337537    0.680482
     11          6           0       -1.574635   -1.459137   -0.180076
     12          6           0       -2.140827   -1.615365    1.093588
     13          6           0       -2.415132   -1.092579   -1.237666
     14          6           0       -3.484883   -1.383744    1.280694
     15          1           0       -1.546887   -1.884760    1.959535
     16          6           0       -3.754058   -0.862452   -1.001516
     17          1           0       -2.051976   -0.979018   -2.251044
     18          1           0       -3.981774   -1.476393    2.237827
     19          1           0       -4.454395   -0.563093   -1.770743
     20          6           0        2.073040    0.897868    0.314754
     21          6           0        3.101648   -0.051568    0.257323
     22          6           0        2.365465    2.257479    0.138097
     23          6           0        4.410539    0.354728    0.015047
     24          1           0        2.888634   -1.105033    0.410558
     25          6           0        3.676419    2.656119   -0.105181
     26          1           0        1.578916    3.004718    0.191446
     27          6           0        4.696486    1.706583   -0.170512
     28          1           0        5.205117   -0.384442   -0.029060
     29          1           0        3.900951    3.709843   -0.243026
     30          1           0        5.718015    2.022428   -0.363240
     31          6           0       -2.823450    3.088058   -1.062140
     32          1           0       -3.616127    3.689358   -1.498494
     33          8           0        0.146281    0.408562    2.283496
     34          6           0       -0.089380   -1.637829   -0.386419
     35          6           0        0.508334   -2.791562    0.286884
     36          6           0        0.459772   -1.406727   -1.719044
     37          6           0        1.600238   -3.414707   -0.215410
     38          1           0        0.087188   -3.163334    1.212864
     39          6           0        1.570357   -2.057095   -2.146099
     40          1           0        0.037546   -0.647301   -2.366315
     41          1           0        2.062814   -4.262036    0.276441
     42          1           0        2.024415   -1.856652   -3.109357
     43          7           0        2.163217   -3.024714   -1.395186
     44          6           0        0.857245   -0.492344    3.156236
     45          1           0        0.563706   -0.213460    4.168428
     46          1           0        0.568846   -1.527505    2.957639
     47          1           0        1.937947   -0.367612    3.038169
     48          7           0       -4.246137   -1.011501    0.238017
     49          1           0       -5.237513   -0.837096    0.393962
     50          1           0        2.963180   -3.525784   -1.761258
 ---------------------------------------------------------------------
                    Distance matrix (angstroms):
                    1          2          3          4          5
     1  C    0.000000
     2  C    1.391813   0.000000
     3  C    2.417733   1.401884   0.000000
     4  C    2.793935   2.426471   1.400909   0.000000
     5  C    2.416256   2.791897   2.416099   1.392003   0.000000
     6  H    1.086106   2.147226   3.400588   3.880037   3.402004
     7  H    2.147207   1.086722   2.167071   3.415153   3.878588
     8  H    3.879294   3.412978   2.163388   1.085394   2.148826
     9  H    3.401738   3.878192   3.399154   2.147283   1.086297
    10  P    4.064567   2.771835   1.799314   2.777403   4.067887
    11  C    4.539259   3.733117   3.109859   3.481485   4.336024
    12  C    5.284582   4.555852   3.585762   3.492082   4.405187
    13  C    3.975253   3.546766   3.354624   3.627678   4.047905
    14  C    5.484634   5.078519   4.160421   3.628088   4.184581
    15  H    5.997768   5.120544   3.990301   3.933242   5.027147
    16  C    4.258091   4.209795   3.960111   3.747592   3.804522
    17  H    3.794789   3.426035   3.643190   4.179038   4.484189
    18  H    6.303255   5.936922   4.903180   4.168707   4.684227
    19  H    4.331346   4.592301   4.604008   4.352119   4.077675
    20  C    4.715929   3.356355   2.945689   4.142879   5.301571
    21  C    5.938635   4.560358   4.209662   5.406923   6.607909
    22  C    4.533726   3.359599   3.236989   4.362416   5.315558
    23  C    6.815836   5.497661   5.334383   6.561241   7.695424
    24  H    6.402425   5.015192   4.545087   5.667994   6.923387
    25  C    5.636514   4.552665   4.606627   5.732831   6.621538
    26  H    3.845426   2.866182   2.788118   3.739463   4.529870
    27  C    6.683612   5.491577   5.493901   6.696797   7.699804
    28  H    7.794177   6.465937   6.297389   7.522837   8.687069
    29  H    5.885760   4.992693   5.177081   6.204389   6.938050
    30  H    7.589275   6.458460   6.539552   7.735665   8.696911
    31  C    1.394448   2.414565   2.789838   2.415957   1.394637
    32  H    2.153496   3.398136   3.876254   3.399392   2.153950
    33  O    5.077307   3.972362   2.666768   2.925078   4.310549
    34  C    4.906606   3.787004   3.285080   4.128002   5.173532
    35  C    6.343284   5.172800   4.528482   5.275350   6.427216
    36  C    4.703063   3.619885   3.661633   4.771959   5.634629
    37  C    7.190347   5.966184   5.508628   6.426757   7.575667
    38  H    6.898388   5.776044   4.922564   5.425272   6.609144
    39  C    5.839030   4.721152   4.834690   6.026633   6.933256
    40  H    3.873055   2.955589   3.368932   4.500037   5.144782
    41  H    8.245173   7.005780   6.469865   7.325530   8.517816
    42  H    6.077182   5.057861   5.431015   6.693457   7.488339
    43  N    6.976212   5.773098   5.628257   6.741666   7.793782
    44  C    6.472203   5.299499   4.055430   4.331193   5.709560
    45  H    7.058610   5.993874   4.669682   4.663033   5.974582
    46  H    6.811704   5.638904   4.434970   4.720764   6.076750
    47  H    6.827168   5.561886   4.468316   4.983201   6.366166
    48  N    5.006258   4.904054   4.300008   3.735617   3.874997
    49  H    5.521105   5.619656   5.054295   4.290944   4.168404
    50  H    7.833591   6.635587   6.562515   7.715484   8.763760
                    6          7          8          9         10
     6  H    0.000000
     7  H    2.464592   0.000000
     8  H    4.965400   4.317518   0.000000
     9  H    4.301238   4.964883   2.467744   0.000000
    10  P    4.914114   2.915406   2.921411   4.919797   0.000000
    11  C    5.303435   4.036405   3.607284   4.991345   2.800777
    12  C    6.186106   5.054471   3.203822   4.806017   3.226473
    13  C    4.589035   3.914284   4.037764   4.700074   3.689997
    14  C    6.394592   5.768070   3.278647   4.302186   4.285937
    15  H    6.940067   5.556611   3.420497   5.396033   3.215875
    16  C    4.894562   4.816711   4.074869   4.175801   4.634217
    17  H    4.175848   3.562238   4.777859   5.252706   4.038595
    18  H    7.256386   6.685320   3.584346   4.580796   4.986339
    19  H    4.788722   5.198050   4.810881   4.372838   5.507009
    20  C    5.329737   2.996855   4.412177   6.233974   1.807403
    21  C    6.465417   4.022717   5.583825   7.534215   2.767942
    22  C    5.033304   2.990520   4.767560   6.249560   2.804782
    23  C    7.208305   4.819633   6.785364   8.642916   4.071266
    24  H    6.973561   4.536476   5.740979   7.810378   2.894265
    25  C    5.960084   3.999217   6.132557   7.552202   4.094750
    26  H    4.391969   2.770397   4.237159   5.432068   2.959205
    27  C    6.984027   4.806164   7.017460   8.649654   4.594492
    28  H    8.157343   5.745439   7.700775   9.631146   4.916399
    29  H    6.108871   4.488902   6.657331   7.833303   4.952131
    30  H    7.803365   5.726294   8.066091   9.645134   5.680908
    31  C    2.156492   3.396182   3.397619   2.156158   4.577604
    32  H    2.484169   4.290655   4.292570   2.483865   5.662529
    33  O    6.056180   4.356475   2.471871   4.886085   1.623605
    34  C    5.569945   3.710293   4.303593   5.984650   2.296533
    35  C    7.019564   5.037758   5.218019   7.154453   3.155826
    36  C    5.106665   3.176292   5.219637   6.574381   2.967238
    37  C    7.742904   5.603824   6.441739   8.371763   4.041884
    38  H    7.672081   5.800453   5.156844   7.204851   3.554391
    39  C    6.118626   4.062612   6.435720   7.894269   3.886837
    40  H    4.144175   2.460980   5.148222   6.130969   3.221798
    41  H    8.818030   6.652349   7.234439   9.268246   4.909589
    42  H    6.170855   4.236799   7.217964   8.494679   4.672837
    43  N    7.356964   5.189642   6.959929   8.696338   4.329324
    44  C    7.421648   5.535661   3.745501   6.209347   2.651905
    45  H    8.058475   6.351673   3.884782   6.308981   3.535272
    46  H    7.744568   5.841123   4.142339   6.567106   2.948623
    47  H    7.698639   5.614524   4.543988   6.961206   2.905084
    48  N    5.798175   5.638852   3.712487   3.965476   4.852535
    49  H    6.278414   6.429060   4.224856   4.009353   5.759901
    50  H    8.141421   5.962715   7.941369   9.683574   5.242874
                   11         12         13         14         15
    11  C    0.000000
    12  C    1.402569   0.000000
    13  C    1.399749   2.404848   0.000000
    14  C    2.405947   1.376642   2.751596   0.000000
    15  H    2.181710   1.084068   3.406390   2.113687   0.000000
    16  C    2.404305   2.749337   1.378930   2.356413   3.832041
    17  H    2.178825   3.405788   1.082457   3.832780   4.336411
    18  H    3.411872   2.172023   3.831544   1.082399   2.484529
    19  H    3.409712   3.829395   2.173274   3.305252   4.910741
    20  C    4.371025   4.967856   5.149328   6.085171   4.853060
    21  C    4.903080   5.534288   5.809781   6.797380   5.278920
    22  C    5.425759   6.018185   5.997476   6.985027   5.981829
    23  C    6.257035   6.925671   7.088989   8.183021   6.654868
    24  H    4.516083   5.101220   5.553983   6.438675   4.762473
    25  C    6.671919   7.315940   7.241702   8.338189   7.222573
    26  H    5.478039   5.999626   5.897679   6.788750   6.066612
    27  C    7.024872   7.705981   7.716815   8.865152   7.510962
    28  H    6.866062   7.532490   7.747928   8.844782   7.196876
    29  H    7.530230   8.163789   7.996591   9.100379   8.113556
    30  H    8.083167   8.781645   8.753055   9.949767   8.569726
    31  C    4.797349   5.218747   4.204195   5.091501   5.957269
    32  H    5.693234   6.085679   4.937342   5.785972   6.878264
    33  O    3.538225   3.277655   4.605740   4.171729   2.868988
    34  C    1.510129   2.529696   2.535950   3.791209   2.772869
    35  C    2.516380   3.008698   3.709104   4.349183   2.800711
    36  C    2.551466   3.836345   2.931806   4.955730   4.217480
    37  C    3.728984   4.352778   4.749788   5.676407   4.120136
    38  H    2.757939   2.715600   4.068750   3.991395   2.205101
    39  C    3.756830   4.946068   4.199960   6.144246   5.157823
    40  H    2.835110   4.201593   2.736375   5.123527   4.770190
    41  H    4.614725   5.034202   5.691219   6.330089   4.638339
    42  H    4.657453   5.922179   4.878177   7.060351   6.200698
    43  N    4.230728   5.167693   4.971845   6.461745   5.130158
    44  C    4.240248   3.808429   5.511362   4.813141   3.025023
    45  H    5.003369   4.328334   6.234756   5.108781   3.482392
    46  H    3.800584   3.290096   5.166611   4.389252   2.366468
    47  H    4.887408   4.687716   6.144724   5.790365   3.950855
    48  N    2.740822   2.351379   2.353039   1.343595   3.318457
    49  H    3.759406   3.268737   3.270064   2.038830   4.143590
    50  H    5.230959   6.152295   5.926287   7.444416   6.072723
                   16         17         18         19         20
    16  C    0.000000
    17  H    2.114708   0.000000
    18  H    3.304863   4.911361   0.000000
    19  H    1.082496   2.485015   4.138372   0.000000
    20  C    6.227870   5.207857   6.782042   7.006505   0.000000
    21  C    7.017329   5.806196   7.491822   7.840185   1.400986
    22  C    6.962848   5.974671   7.657552   7.622978   1.401878
    23  C    8.317185   6.976973   8.872693   9.089472   2.418414
    24  H    6.795451   5.613344   7.118941   7.679313   2.164713
    25  C    8.270172   7.115719   9.011951   8.902110   2.416323
    26  H    6.694683   5.917710   7.428950   7.278757   2.167529
    27  C    8.871426   7.555316   9.552153   9.562991   2.787826
    28  H    9.024466   7.612893   9.525235   9.816901   3.401828
    29  H    8.948763   7.839317   9.756487   9.508086   3.399938
    30  H    9.922202   8.540799  10.634529  10.589802   3.874294
    31  C    4.059093   4.306945   5.750279   4.061158   5.537904
    32  H    4.580937   4.980626   6.385826   4.342828   6.591427
    33  O    5.255419   5.226831   4.538279   6.208638   2.797814
    34  C    3.795974   2.786152   4.697176   4.703697   3.405505
    35  C    4.852775   4.035044   5.069213   5.816234   4.007615
    36  C    4.308996   2.602852   5.948866   4.986324   3.471329
    37  C    5.983348   4.838910   6.397991   6.870906   4.370689
    38  H    4.995269   4.620164   4.522474   6.024047   4.609075
    39  C    5.575539   3.780815   7.098041   6.218567   3.878182
    40  H    4.035496   2.118827   6.167694   4.532034   3.703905
    41  H    6.857576   5.839339   6.938580   7.768343   5.160056
    42  H    6.230745   4.257218   8.050545   6.740932   4.394802
    43  N    6.312250   4.762900   7.304587   7.070602   4.280032
    44  C    6.219968   6.159472   5.022742   7.245250   3.388933
    45  H    6.767023   6.974059   5.097412   7.783144   4.285317
    46  H    5.899551   5.856614   4.607481   6.965676   3.889714
    47  H    6.997345   6.653501   6.075610   8.001618   3.006107
    48  N    1.341939   3.318256   2.070085   2.068709   6.601786
    49  H    2.036821   4.142927   2.320651   2.318253   7.514024
    50  H    7.265799   5.646034   8.271945   7.987368   4.966978
                   21         22         23         24         25
    21  C    0.000000
    22  C    2.426495   0.000000
    23  C    1.391751   2.796056   0.000000
    24  H    1.085654   3.413858   2.145583   0.000000
    25  C    2.791655   1.391653   2.418633   3.877223   0.000000
    26  H    3.415251   1.086219   3.882223   4.318961   2.146865
    27  C    2.411980   2.415033   1.394170   3.392809   1.395143
    28  H    2.148814   3.882179   1.086127   2.465483   3.404074
    29  H    3.877815   2.147634   3.403392   4.963365   1.086163
    30  H    3.395870   3.397967   2.152630   4.287793   2.153201
    31  C    6.834107   5.390294   7.807818   7.237317   6.584120
    32  H    7.887073   6.364601   8.822581   8.303167   7.496008
    33  O    3.612657   3.598056   4.830389   3.649571   4.818627
    34  C    3.621227   4.634092   4.937685   3.128516   5.718245
    35  C    3.772760   5.381811   5.019984   2.919846   6.314088
    36  C    3.566790   4.528470   4.660296   3.244317   5.427531
    37  C    3.713275   5.734478   4.707392   2.717792   6.416978
    38  H    4.436566   5.977532   5.701131   3.567688   6.963179
    39  C    3.484742   4.946241   4.307444   3.029979   5.551147
    40  H    4.077634   4.486539   5.079175   4.006151   5.409871
    41  H    4.336771   6.528002   5.186005   3.265981   7.114086
    42  H    3.969042   5.252461   4.510620   3.701568   5.667389
    43  N    3.528603   5.503946   4.296492   2.733517   6.018784
    44  C    3.692604   4.352633   4.817727   3.469968   5.338296
    45  H    4.665201   5.059194   5.689599   4.507968   6.015580
    46  H    3.985622   5.050125   5.192326   3.470954   6.044881
    47  H    3.031037   3.935009   3.971744   2.889971   4.695304
    48  N    7.410249   7.376279   8.766661   7.137470   8.737054
    49  H    8.377191   8.212621   9.728768   8.130580   9.586964
    50  H    4.020450   6.116449   4.506493   3.253057   6.439505
                   26         27         28         29         30
    26  H    0.000000
    27  C    3.396382   0.000000
    28  H    4.968336   2.156641   0.000000
    29  H    2.465322   2.156661   4.302302   0.000000
    30  H    4.290071   1.086473   2.483498   2.482648   0.000000
    31  C    4.578127   7.697591   8.808144   6.802583   8.636009
    32  H    5.505733   8.648379   9.826975   7.621226   9.549537
    33  O    3.628931   5.330233   5.618593   5.601724   6.376049
    34  C    4.966929   5.842621   5.452557   6.673897   6.864682
    35  C    5.895093   6.163046   5.287137   7.352477   7.123057
    36  C    4.935920   5.480912   5.139982   6.340318   6.422338
    37  C    6.432340   5.984679   4.713002   7.486872   6.822051
    38  H    6.427551   6.846565   5.954646   7.994058   7.815526
    39  C    5.575495   5.276448   4.526710   6.504685   6.084748
    40  H    4.717542   5.662865   5.677644   6.198303   6.588436
    41  H    7.283344   6.539144   5.000313   8.197527   7.298231
    42  H    5.892935   5.336049   4.666101   6.536292   6.019228
    43  N    6.262017   5.504766   4.253292   7.049926   6.259005
    44  C    4.641145   5.535549   5.390895   6.203024   6.506756
    45  H    5.215717   6.292284   6.260258   6.781625   7.218179
    46  H    5.404915   6.105904   5.632226   6.984053   7.081257
    47  H    4.427792   4.712479   4.481359   5.589746   5.618789
    48  N    7.075551   9.355500   9.475797   9.428549  10.433147
    49  H    7.827148  10.270018  10.460993  10.227020  11.347856
    50  H    6.955336   5.736941   4.230227   7.452432   6.350293
                   31         32         33         34         35
    31  C    0.000000
    32  H    1.086418   0.000000
    33  O    5.214622   6.262810   0.000000
    34  C    5.501431   6.484873   3.372195   0.000000
    35  C    6.891341   7.886766   3.789239   1.463454   0.000000
    36  C    5.604834   6.529294   4.406118   1.459748   2.438006
    37  C    7.910241   8.906431   4.793319   2.457915   1.353833
    38  H    7.261361   8.247751   3.729368   2.217216   1.083059
    39  C    6.852234   7.767930   5.265811   2.454992   2.754404
    40  H    4.882528   5.736641   4.769425   2.217486   3.443684
    41  H    8.926996   9.931034   5.432850   3.458003   2.139816
    42  H    7.221014   8.072721   6.143407   3.454042   3.834972
    43  N    7.895806   8.859472   5.421081   2.831122   2.371151
    44  C    6.645411   7.691827   1.441796   3.841697   3.693416
    45  H    7.052070   8.050900   2.028330   4.816843   4.660049
    46  H    6.997837   8.036590   2.093176   3.410008   2.955408
    47  H    7.171129   8.239421   2.093333   4.177476   3.935593
    48  N    4.529992   5.050788   5.049148   4.249804   5.077007
    49  H    4.832677   5.167114   5.840140   5.268153   6.070104
    50  H    8.815711   9.768040   6.306666   3.843524   3.280280
                   36         37         38         39         40
    36  C    0.000000
    37  C    2.755642   0.000000
    38  H    3.438106   2.095823   0.000000
    39  C    1.356006   2.360416   3.834865   0.000000
    40  H    1.083495   3.837569   4.375318   2.094164   0.000000
    41  H    3.834644   1.083448   2.446862   3.312549   4.914487
    42  H    2.140913   3.313969   4.913437   1.083611   2.441780
    43  N    2.371601   1.364152   3.336321   1.360750   3.333716
    44  C    4.976187   4.523300   3.391736   5.574202   5.585203
    45  H    6.008079   5.526338   4.202878   6.654742   6.570230
    46  H    4.679514   3.833215   2.439707   5.227966   5.422317
    47  H    5.088795   4.470415   3.817474   5.464989   5.735695
    48  N    5.111934   6.337278   4.935425   6.372510   5.026443
    49  H    6.103141   7.332820   5.868085   7.367998   5.956626
    50  H    3.280127   2.063879   4.153083   2.060365   4.148625
                   41         42         43         44         45
    41  H    0.000000
    42  H    4.153429   0.000000
    43  N    2.082158   2.078946   0.000000
    44  C    4.894609   6.517766   5.369721   0.000000
    45  H    5.812560   7.602625   6.435479   1.090172   0.000000
    46  H    4.110769   6.247836   4.871421   1.092782   1.786827
    47  H    4.775905   6.325883   5.173546   1.094264   1.785997
    48  N    7.097205   7.158143   6.913769   5.901698   6.262555
    49  H    8.064664   8.127013   7.921965   6.700380   6.949076
    50  H    2.346262   2.341933   1.012433   6.149672   7.203481
                   46         47         48         49         50
    46  H    0.000000
    47  H    1.796183   0.000000
    48  N    5.553977   6.818969   0.000000
    49  H    6.384584   7.661558   1.018608   0.000000
    50  H    5.656319   5.836065   7.892590   8.895245   0.000000
 Stoichiometry    C23H23N2OP(2+)
 Framework group  C1[X(C23H23N2OP)]
 Deg. of freedom   144
 Full point group                 C1      NOp   1
 Largest Abelian subgroup         C1      NOp   1
 Largest concise Abelian subgroup C1      NOp   1
                         Standard orientation:                         
 ---------------------------------------------------------------------
 Center     Atomic      Atomic             Coordinates (Angstroms)
 Number     Number       Type             X           Y           Z
 ---------------------------------------------------------------------
      1          6           0       -1.693023    2.773578   -1.815614
      2          6           0       -0.677564    1.999316   -1.261986
      3          6           0       -0.790155    1.540721    0.057973
      4          6           0       -1.925788    1.858863    0.814061
      5          6           0       -2.935439    2.635069    0.252117
      6          1           0       -1.599398    3.130661   -2.837060
      7          1           0        0.197022    1.755575   -1.859191
      8          1           0       -2.025575    1.499728    1.833446
      9          1           0       -3.812598    2.883533    0.842794
     10         15           0        0.394059    0.337537    0.680482
     11          6           0       -1.574635   -1.459137   -0.180076
     12          6           0       -2.140827   -1.615365    1.093588
     13          6           0       -2.415132   -1.092579   -1.237666
     14          6           0       -3.484883   -1.383744    1.280694
     15          1           0       -1.546887   -1.884760    1.959535
     16          6           0       -3.754058   -0.862452   -1.001516
     17          1           0       -2.051976   -0.979018   -2.251044
     18          1           0       -3.981774   -1.476393    2.237827
     19          1           0       -4.454395   -0.563093   -1.770743
     20          6           0        2.073040    0.897868    0.314754
     21          6           0        3.101648   -0.051568    0.257323
     22          6           0        2.365465    2.257479    0.138097
     23          6           0        4.410539    0.354728    0.015047
     24          1           0        2.888634   -1.105033    0.410558
     25          6           0        3.676419    2.656119   -0.105181
     26          1           0        1.578916    3.004718    0.191446
     27          6           0        4.696486    1.706583   -0.170512
     28          1           0        5.205117   -0.384442   -0.029060
     29          1           0        3.900951    3.709843   -0.243026
     30          1           0        5.718015    2.022428   -0.363240
     31          6           0       -2.823450    3.088058   -1.062140
     32          1           0       -3.616127    3.689358   -1.498494
     33          8           0        0.146281    0.408562    2.283496
     34          6           0       -0.089380   -1.637829   -0.386419
     35          6           0        0.508334   -2.791562    0.286884
     36          6           0        0.459772   -1.406727   -1.719044
     37          6           0        1.600238   -3.414707   -0.215410
     38          1           0        0.087188   -3.163334    1.212864
     39          6           0        1.570357   -2.057095   -2.146099
     40          1           0        0.037546   -0.647301   -2.366315
     41          1           0        2.062814   -4.262036    0.276441
     42          1           0        2.024415   -1.856652   -3.109357
     43          7           0        2.163217   -3.024714   -1.395186
     44          6           0        0.857245   -0.492344    3.156236
     45          1           0        0.563706   -0.213460    4.168428
     46          1           0        0.568846   -1.527505    2.957639
     47          1           0        1.937947   -0.367612    3.038169
     48          7           0       -4.246137   -1.011501    0.238017
     49          1           0       -5.237513   -0.837096    0.393962
     50          1           0        2.963180   -3.525784   -1.761258
 ---------------------------------------------------------------------
 Rotational constants (GHZ):           0.2667195           0.1776201           0.1410815
 Standard basis: 6-31+G(d) (6D, 7F)
 There are   563 symmetry adapted cartesian basis functions of A   symmetry.
 There are   563 symmetry adapted basis functions of A   symmetry.
   563 basis functions,   980 primitive gaussians,   563 cartesian basis functions
    98 alpha electrons       98 beta electrons
       nuclear repulsion energy      2716.3526302674 Hartrees.
 NAtoms=   50 NActive=   50 NUniq=   50 SFac= 1.00D+00 NAtFMM=   60 NAOKFM=F Big=F
 Integral buffers will be    131072 words long.
 Raffenetti 2 integral format.
 Two-electron integral symmetry is turned on.
 Nuclear repulsion after empirical dispersion term =     2716.3024382033 Hartrees.
 Force inversion solution in PCM.
 ------------------------------------------------------------------------------
 Polarizable Continuum Model (PCM)
 =================================
 Model                : PCM.
 Atomic radii         : SMD-Coulomb.
 Polarization charges : Total charges.
 Charge compensation  : None.
 Solution method      : Matrix inversion.
 Cavity type          : VdW (van der Waals Surface) (Alpha=1.000).
 Cavity algorithm     : GePol (No added spheres)
                        Default sphere list used, NSphG=   50.
                        Lebedev-Laikov grids with approx.  5.0 points / Ang**2.
                        Smoothing algorithm: York/Karplus (Gamma=1.0000).
                        Polarization charges: spherical gaussians, with
                                              point-specific exponents (IZeta= 3).
                        Self-potential: point-specific (ISelfS= 7).
                        Self-field    : sphere-specific E.n sum rule (ISelfD= 2).
 1st derivatives      : Analytical E(r).r(x)/FMM algorithm (CHGder, D1EAlg=3).
                        Cavity 1st derivative terms included.
 2nd derivatives      : Analytical E(r).r(xy)/FMM algorithm (CHGder, D2EAlg=3).
                        Cavity 2nd derivative terms included.
 Solvent              : Ethanol, Eps=  24.852000 Eps(inf)=   1.852593
 ------------------------------------------------------------------------------
 ------------------------------------------------------------------------------
 Atomic radii for non-electrostatic terms: SMD-CDS.
 ------------------------------------------------------------------------------
 Nuclear repulsion after PCM non-electrostatic terms =     2716.3015568554 Hartrees.
 One-electron integrals computed using PRISM.
 NBasis=   563 RedAO= T EigKep=  1.13D-06  NBF=   563
 NBsUse=   561 1.00D-06 EigRej=  9.96D-07 NBFU=   561
 ExpMin= 3.48D-02 ExpMax= 1.94D+04 ExpMxC= 2.91D+03 IAcc=3 IRadAn=         5 AccDes= 0.00D+00
 Harris functional with IExCor= 4639 and IRadAn=       5 diagonalized for initial guess.
 HarFok:  IExCor= 4639 AccDes= 0.00D+00 IRadAn=         5 IDoV= 1 UseB2=F ITyADJ=14
 ICtDFT=  3500011 ScaDFX=  1.000000  1.000000  1.000000  1.000000
 FoFCou: FMM=F IPFlag=           0 FMFlag=      100000 FMFlg1=           0
         NFxFlg=           0 DoJE=T BraDBF=F KetDBF=T FulRan=T
         wScrn=  0.000000 ICntrl=       500 IOpCl=  0 I1Cent=   200000004 NGrid=           0
         NMat0=    1 NMatS0=      1 NMatT0=    0 NMatD0=    1 NMtDS0=    0 NMtDT0=    0
 Petite list used in FoFCou.
 Requested convergence on RMS density matrix=1.00D-08 within 128 cycles.
 Requested convergence on MAX density matrix=1.00D-06.
 Requested convergence on             energy=1.00D-06.
 No special actions if energy rises.
 Inv3:  Mode=1 IEnd=    41470572.
 Iteration    1 A*A^-1 deviation from unit magnitude is 7.33D-15 for    307.
 Iteration    1 A*A^-1 deviation from orthogonality  is 3.82D-15 for   3508   3335.
 Iteration    1 A^-1*A deviation from unit magnitude is 7.55D-15 for   2790.
 Iteration    1 A^-1*A deviation from orthogonality  is 2.41D-14 for   3165   3089.
 Error on total polarization charges =  0.05778
 SCF Done:  E(RwB97XD) =  -1415.73182095     A.U. after   18 cycles
            NFock= 18  Conv=0.71D-08     -V/T= 2.0081
 SMD-CDS (non-electrostatic) energy       (kcal/mol) =      -0.55
 (included in total energy above)
 DoSCS=F DFT=T ScalE2(SS,OS)=  1.000000  1.000000
 Range of M.O.s used for correlation:     1   561
 NBasis=   563 NAE=    98 NBE=    98 NFC=     0 NFV=     0
 NROrb=    561 NOA=    98 NOB=    98 NVA=   463 NVB=   463

 **** Warning!!: The largest alpha MO coefficient is  0.13292564D+03

 Symmetrizing basis deriv contribution to polar:
 IMax=3 JMax=2 DiffMx= 0.00D+00
 G2DrvN: will do    51 centers at a time, making    1 passes.
 Calling FoFCou, ICntrl=  3107 FMM=F I1Cent=   0 AccDes= 0.00D+00.
 NEqPCM:  Using equilibrium solvation (IEInf=0, Eps=  24.8520, EpsInf=   1.8526)
 G2PCM: DoFxE=T DoFxN=T DoGrad=T DoDP/DQ/DG/TGxP=FFFF NFrqRd=   0 IEInf=0 SqF1=F DoCFld=F IF1Alg=4.
 End of G2Drv F.D. properties file   721 does not exist.
 End of G2Drv F.D. properties file   722 does not exist.
 End of G2Drv F.D. properties file   788 does not exist.
          IDoAtm=11111111111111111111111111111111111111111111111111
 NEqPCM:  Using equilibrium solvation (IEInf=0, Eps=  24.8520, EpsInf=   1.8526)
          Differentiating once with respect to nuclear coordinates.
 CalDSu exits because no D1Ps are significant.
          There are   153 degrees of freedom in the 1st order CPHF.  IDoFFX=6 NUNeed=     0.
    147 vectors produced by pass  0 Test12= 4.54D-14 1.00D-09 XBig12= 2.60D-01 9.64D-02.
 AX will form   147 AO Fock derivatives at one time.
    147 vectors produced by pass  1 Test12= 4.54D-14 1.00D-09 XBig12= 1.23D-02 3.65D-02.
    147 vectors produced by pass  2 Test12= 4.54D-14 1.00D-09 XBig12= 3.87D-04 2.33D-03.
    147 vectors produced by pass  3 Test12= 4.54D-14 1.00D-09 XBig12= 3.90D-06 3.20D-04.
    147 vectors produced by pass  4 Test12= 4.54D-14 1.00D-09 XBig12= 3.65D-08 2.26D-05.
    147 vectors produced by pass  5 Test12= 4.54D-14 1.00D-09 XBig12= 2.90D-10 1.64D-06.
    146 vectors produced by pass  6 Test12= 4.54D-14 1.00D-09 XBig12= 1.94D-12 1.17D-07.
     75 vectors produced by pass  7 Test12= 4.54D-14 1.00D-09 XBig12= 3.12D-14 1.25D-08.
     39 vectors produced by pass  8 Test12= 4.54D-14 1.00D-09 XBig12= 7.04D-15 5.13D-09.
     20 vectors produced by pass  9 Test12= 4.54D-14 1.00D-09 XBig12= 3.44D-15 3.00D-09.
     20 vectors produced by pass 10 Test12= 4.54D-14 1.00D-09 XBig12= 3.04D-14 1.08D-08.
     18 vectors produced by pass 11 Test12= 4.54D-14 1.00D-09 XBig12= 1.46D-14 5.77D-09.
     18 vectors produced by pass 12 Test12= 4.54D-14 1.00D-09 XBig12= 3.07D-14 8.04D-09.
     13 vectors produced by pass 13 Test12= 4.54D-14 1.00D-09 XBig12= 1.33D-14 5.67D-09.
     13 vectors produced by pass 14 Test12= 4.54D-14 1.00D-09 XBig12= 1.87D-14 6.58D-09.
     13 vectors produced by pass 15 Test12= 4.54D-14 1.00D-09 XBig12= 2.23D-14 8.46D-09.
     13 vectors produced by pass 16 Test12= 4.54D-14 1.00D-09 XBig12= 4.17D-14 1.03D-08.
     13 vectors produced by pass 17 Test12= 4.54D-14 1.00D-09 XBig12= 2.19D-14 7.71D-09.
      9 vectors produced by pass 18 Test12= 4.54D-14 1.00D-09 XBig12= 1.14D-14 5.30D-09.
      9 vectors produced by pass 19 Test12= 4.54D-14 1.00D-09 XBig12= 1.97D-14 6.34D-09.
      9 vectors produced by pass 20 Test12= 4.54D-14 1.00D-09 XBig12= 3.37D-14 9.84D-09.
      9 vectors produced by pass 21 Test12= 4.54D-14 1.00D-09 XBig12= 2.45D-14 7.10D-09.
      9 vectors produced by pass 22 Test12= 4.54D-14 1.00D-09 XBig12= 2.64D-14 6.70D-09.
      7 vectors produced by pass 23 Test12= 4.54D-14 1.00D-09 XBig12= 9.29D-15 4.44D-09.
      7 vectors produced by pass 24 Test12= 4.54D-14 1.00D-09 XBig12= 5.10D-14 1.34D-08.
      7 vectors produced by pass 25 Test12= 4.54D-14 1.00D-09 XBig12= 2.51D-14 6.98D-09.
      7 vectors produced by pass 26 Test12= 4.54D-14 1.00D-09 XBig12= 2.17D-14 6.66D-09.
      7 vectors produced by pass 27 Test12= 4.54D-14 1.00D-09 XBig12= 1.82D-14 7.22D-09.
      7 vectors produced by pass 28 Test12= 4.54D-14 1.00D-09 XBig12= 2.45D-14 7.28D-09.
      7 vectors produced by pass 29 Test12= 4.54D-14 1.00D-09 XBig12= 1.18D-14 5.51D-09.
      7 vectors produced by pass 30 Test12= 4.54D-14 1.00D-09 XBig12= 1.12D-14 5.74D-09.
      7 vectors produced by pass 31 Test12= 4.54D-14 1.00D-09 XBig12= 2.14D-14 8.30D-09.
      7 vectors produced by pass 32 Test12= 4.54D-14 1.00D-09 XBig12= 1.37D-14 5.05D-09.
      7 vectors produced by pass 33 Test12= 4.54D-14 1.00D-09 XBig12= 3.04D-14 7.67D-09.
      7 vectors produced by pass 34 Test12= 4.54D-14 1.00D-09 XBig12= 2.34D-14 7.36D-09.
      7 vectors produced by pass 35 Test12= 4.54D-14 1.00D-09 XBig12= 3.06D-14 8.36D-09.
      7 vectors produced by pass 36 Test12= 4.54D-14 1.00D-09 XBig12= 1.71D-14 5.95D-09.
      7 vectors produced by pass 37 Test12= 4.54D-14 1.00D-09 XBig12= 1.73D-14 5.82D-09.
      7 vectors produced by pass 38 Test12= 4.54D-14 1.00D-09 XBig12= 1.68D-14 6.98D-09.
      7 vectors produced by pass 39 Test12= 4.54D-14 1.00D-09 XBig12= 1.52D-14 6.05D-09.
      7 vectors produced by pass 40 Test12= 4.54D-14 1.00D-09 XBig12= 1.69D-14 8.43D-09.
      7 vectors produced by pass 41 Test12= 4.54D-14 1.00D-09 XBig12= 1.55D-14 5.43D-09.
      7 vectors produced by pass 42 Test12= 4.54D-14 1.00D-09 XBig12= 1.47D-14 5.47D-09.
      7 vectors produced by pass 43 Test12= 4.54D-14 1.00D-09 XBig12= 1.65D-14 5.89D-09.
      7 vectors produced by pass 44 Test12= 4.54D-14 1.00D-09 XBig12= 4.14D-14 8.62D-09.
      7 vectors produced by pass 45 Test12= 4.54D-14 1.00D-09 XBig12= 1.54D-14 5.25D-09.
      7 vectors produced by pass 46 Test12= 4.54D-14 1.00D-09 XBig12= 2.05D-14 9.27D-09.
      7 vectors produced by pass 47 Test12= 4.54D-14 1.00D-09 XBig12= 4.60D-14 9.67D-09.
      7 vectors produced by pass 48 Test12= 4.54D-14 1.00D-09 XBig12= 2.08D-14 5.61D-09.
      7 vectors produced by pass 49 Test12= 4.54D-14 1.00D-09 XBig12= 3.61D-14 9.33D-09.
      6 vectors produced by pass 50 Test12= 4.54D-14 1.00D-09 XBig12= 1.70D-14 6.01D-09.
      6 vectors produced by pass 51 Test12= 4.54D-14 1.00D-09 XBig12= 9.50D-15 4.51D-09.
      6 vectors produced by pass 52 Test12= 4.54D-14 1.00D-09 XBig12= 1.59D-14 6.57D-09.
      6 vectors produced by pass 53 Test12= 4.54D-14 1.00D-09 XBig12= 2.82D-14 7.18D-09.
      6 vectors produced by pass 54 Test12= 4.54D-14 1.00D-09 XBig12= 1.26D-14 5.15D-09.
      6 vectors produced by pass 55 Test12= 4.54D-14 1.00D-09 XBig12= 1.03D-14 4.65D-09.
      6 vectors produced by pass 56 Test12= 4.54D-14 1.00D-09 XBig12= 2.92D-14 8.45D-09.
      6 vectors produced by pass 57 Test12= 4.54D-14 1.00D-09 XBig12= 6.21D-15 3.45D-09.
      6 vectors produced by pass 58 Test12= 4.54D-14 1.00D-09 XBig12= 2.02D-14 7.70D-09.
      6 vectors produced by pass 59 Test12= 4.54D-14 1.00D-09 XBig12= 2.43D-14 6.51D-09.
      6 vectors produced by pass 60 Test12= 4.54D-14 1.00D-09 XBig12= 8.86D-15 4.97D-09.
      6 vectors produced by pass 61 Test12= 4.54D-14 1.00D-09 XBig12= 1.03D-14 4.71D-09.
      6 vectors produced by pass 62 Test12= 4.54D-14 1.00D-09 XBig12= 3.01D-14 7.88D-09.
      6 vectors produced by pass 63 Test12= 4.54D-14 1.00D-09 XBig12= 1.01D-14 4.09D-09.
      6 vectors produced by pass 64 Test12= 4.54D-14 1.00D-09 XBig12= 9.88D-15 4.07D-09.
      6 vectors produced by pass 65 Test12= 4.54D-14 1.00D-09 XBig12= 2.35D-14 6.49D-09.
      6 vectors produced by pass 66 Test12= 4.54D-14 1.00D-09 XBig12= 2.77D-14 6.39D-09.
      6 vectors produced by pass 67 Test12= 4.54D-14 1.00D-09 XBig12= 1.53D-14 5.20D-09.
      6 vectors produced by pass 68 Test12= 4.54D-14 1.00D-09 XBig12= 2.56D-14 8.29D-09.
      6 vectors produced by pass 69 Test12= 4.54D-14 1.00D-09 XBig12= 1.18D-14 4.68D-09.
      6 vectors produced by pass 70 Test12= 4.54D-14 1.00D-09 XBig12= 2.08D-14 6.78D-09.
      6 vectors produced by pass 71 Test12= 4.54D-14 1.00D-09 XBig12= 1.66D-14 6.07D-09.
      6 vectors produced by pass 72 Test12= 4.54D-14 1.00D-09 XBig12= 1.86D-14 5.54D-09.
      6 vectors produced by pass 73 Test12= 4.54D-14 1.00D-09 XBig12= 1.13D-14 4.10D-09.
      6 vectors produced by pass 74 Test12= 4.54D-14 1.00D-09 XBig12= 2.70D-14 8.27D-09.
      6 vectors produced by pass 75 Test12= 4.54D-14 1.00D-09 XBig12= 9.90D-15 5.51D-09.
      6 vectors produced by pass 76 Test12= 4.54D-14 1.00D-09 XBig12= 1.80D-14 6.38D-09.
      6 vectors produced by pass 77 Test12= 4.54D-14 1.00D-09 XBig12= 1.26D-14 4.73D-09.
      6 vectors produced by pass 78 Test12= 4.54D-14 1.00D-09 XBig12= 1.53D-14 5.10D-09.
      5 vectors produced by pass 79 Test12= 4.54D-14 1.00D-09 XBig12= 5.69D-15 3.23D-09.
      5 vectors produced by pass 80 Test12= 4.54D-14 1.00D-09 XBig12= 2.90D-14 7.83D-09.
      5 vectors produced by pass 81 Test12= 4.54D-14 1.00D-09 XBig12= 8.99D-15 3.82D-09.
      5 vectors produced by pass 82 Test12= 4.54D-14 1.00D-09 XBig12= 1.92D-14 6.30D-09.
      5 vectors produced by pass 83 Test12= 4.54D-14 1.00D-09 XBig12= 1.52D-14 5.93D-09.
      5 vectors produced by pass 84 Test12= 4.54D-14 1.00D-09 XBig12= 2.22D-14 5.97D-09.
      5 vectors produced by pass 85 Test12= 4.54D-14 1.00D-09 XBig12= 1.97D-14 5.86D-09.
      5 vectors produced by pass 86 Test12= 4.54D-14 1.00D-09 XBig12= 1.59D-14 6.42D-09.
      5 vectors produced by pass 87 Test12= 4.54D-14 1.00D-09 XBig12= 1.89D-14 5.38D-09.
      5 vectors produced by pass 88 Test12= 4.54D-14 1.00D-09 XBig12= 2.16D-14 6.26D-09.
      5 vectors produced by pass 89 Test12= 4.54D-14 1.00D-09 XBig12= 9.24D-15 4.07D-09.
      5 vectors produced by pass 90 Test12= 4.54D-14 1.00D-09 XBig12= 1.95D-14 6.42D-09.
      5 vectors produced by pass 91 Test12= 4.54D-14 1.00D-09 XBig12= 7.32D-15 4.12D-09.
      5 vectors produced by pass 92 Test12= 4.54D-14 1.00D-09 XBig12= 2.11D-14 7.56D-09.
      5 vectors produced by pass 93 Test12= 4.54D-14 1.00D-09 XBig12= 1.99D-14 5.70D-09.
      5 vectors produced by pass 94 Test12= 4.54D-14 1.00D-09 XBig12= 3.19D-14 7.90D-09.
      5 vectors produced by pass 95 Test12= 4.54D-14 1.00D-09 XBig12= 1.90D-14 6.20D-09.
      5 vectors produced by pass 96 Test12= 4.54D-14 1.00D-09 XBig12= 1.35D-14 4.55D-09.
      5 vectors produced by pass 97 Test12= 4.54D-14 1.00D-09 XBig12= 2.46D-14 6.54D-09.
      5 vectors produced by pass 98 Test12= 4.54D-14 1.00D-09 XBig12= 1.23D-14 4.63D-09.
      5 vectors produced by pass 99 Test12= 4.54D-14 1.00D-09 XBig12= 3.21D-14 7.44D-09.
      5 vectors produced by pass100 Test12= 4.54D-14 1.00D-09 XBig12= 1.29D-14 4.99D-09.
      5 vectors produced by pass101 Test12= 4.54D-14 1.00D-09 XBig12= 1.98D-14 6.01D-09.
      5 vectors produced by pass102 Test12= 4.54D-14 1.00D-09 XBig12= 1.71D-14 5.94D-09.
      5 vectors produced by pass103 Test12= 4.54D-14 1.00D-09 XBig12= 1.63D-14 5.74D-09.
      5 vectors produced by pass104 Test12= 4.54D-14 1.00D-09 XBig12= 1.36D-14 5.87D-09.
      5 vectors produced by pass105 Test12= 4.54D-14 1.00D-09 XBig12= 2.35D-14 6.50D-09.
      5 vectors produced by pass106 Test12= 4.54D-14 1.00D-09 XBig12= 1.49D-14 5.10D-09.
      5 vectors produced by pass107 Test12= 4.54D-14 1.00D-09 XBig12= 2.00D-14 5.96D-09.
      5 vectors produced by pass108 Test12= 4.54D-14 1.00D-09 XBig12= 1.53D-14 5.95D-09.
      5 vectors produced by pass109 Test12= 4.54D-14 1.00D-09 XBig12= 1.57D-14 5.09D-09.
      5 vectors produced by pass110 Test12= 4.54D-14 1.00D-09 XBig12= 2.25D-14 6.63D-09.
      4 vectors produced by pass111 Test12= 4.54D-14 1.00D-09 XBig12= 9.16D-15 3.82D-09.
      4 vectors produced by pass112 Test12= 4.54D-14 1.00D-09 XBig12= 1.39D-14 4.73D-09.
      4 vectors produced by pass113 Test12= 4.54D-14 1.00D-09 XBig12= 2.56D-14 6.67D-09.
      3 vectors produced by pass114 Test12= 4.54D-14 1.00D-09 XBig12= 8.90D-15 3.81D-09.
      2 vectors produced by pass115 Test12= 4.54D-14 1.00D-09 XBig12= 4.23D-15 2.75D-09.
 InvSVY:  IOpt=1 It=  1 EMax= 2.00D-15
 Solved reduced A of dimension  1868 with   153 vectors.
 End of Minotr F.D. properties file   721 does not exist.
 End of Minotr F.D. properties file   722 does not exist.
 End of Minotr F.D. properties file   788 does not exist.

 **********************************************************************

            Population analysis using the SCF density.

 **********************************************************************

 Orbital symmetries:
       Occupied  (A) (A) (A) (A) (A) (A) (A) (A) (A) (A) (A) (A)
                 (A) (A) (A) (A) (A) (A) (A) (A) (A) (A) (A) (A)
                 (A) (A) (A) (A) (A) (A) (A) (A) (A) (A) (A) (A)
                 (A) (A) (A) (A) (A) (A) (A) (A) (A) (A) (A) (A)
                 (A) (A) (A) (A) (A) (A) (A) (A) (A) (A) (A) (A)
                 (A) (A) (A) (A) (A) (A) (A) (A) (A) (A) (A) (A)
                 (A) (A) (A) (A) (A) (A) (A) (A) (A) (A) (A) (A)
                 (A) (A) (A) (A) (A) (A) (A) (A) (A) (A) (A) (A)
                 (A) (A)
       Virtual   (A) (A) (A) (A) (A) (A) (A) (A) (A) (A) (A) (A)
                 (A) (A) (A) (A) (A) (A) (A) (A) (A) (A) (A) (A)
                 (A) (A) (A) (A) (A) (A) (A) (A) (A) (A) (A) (A)
                 (A) (A) (A) (A) (A) (A) (A) (A) (A) (A) (A) (A)
                 (A) (A) (A) (A) (A) (A) (A) (A) (A) (A) (A) (A)
                 (A) (A) (A) (A) (A) (A) (A) (A) (A) (A) (A) (A)
                 (A) (A) (A) (A) (A) (A) (A) (A) (A) (A) (A) (A)
                 (A) (A) (A) (A) (A) (A) (A) (A) (A) (A) (A) (A)
                 (A) (A) (A) (A) (A) (A) (A) (A) (A) (A) (A) (A)
                 (A) (A) (A) (A) (A) (A) (A) (A) (A) (A) (A) (A)
                 (A) (A) (A) (A) (A) (A) (A) (A) (A) (A) (A) (A)
                 (A) (A) (A) (A) (A) (A) (A) (A) (A) (A) (A) (A)
                 (A) (A) (A) (A) (A) (A) (A) (A) (A) (A) (A) (A)
                 (A) (A) (A) (A) (A) (A) (A) (A) (A) (A) (A) (A)
                 (A) (A) (A) (A) (A) (A) (A) (A) (A) (A) (A) (A)
                 (A) (A) (A) (A) (A) (A) (A) (A) (A) (A) (A) (A)
                 (A) (A) (A) (A) (A) (A) (A) (A) (A) (A) (A) (A)
                 (A) (A) (A) (A) (A) (A) (A) (A) (A) (A) (A) (A)
                 (A) (A) (A) (A) (A) (A) (A) (A) (A) (A) (A) (A)
                 (A) (A) (A) (A) (A) (A) (A) (A) (A) (A) (A) (A)
                 (A) (A) (A) (A) (A) (A) (A) (A) (A) (A) (A) (A)
                 (A) (A) (A) (A) (A) (A) (A) (A) (A) (A) (A) (A)
                 (A) (A) (A) (A) (A) (A) (A) (A) (A) (A) (A) (A)
                 (A) (A) (A) (A) (A) (A) (A) (A) (A) (A) (A) (A)
                 (A) (A) (A) (A) (A) (A) (A) (A) (A) (A) (A) (A)
                 (A) (A) (A) (A) (A) (A) (A) (A) (A) (A) (A) (A)
                 (A) (A) (A) (A) (A) (A) (A) (A) (A) (A) (A) (A)
                 (A) (A) (A) (A) (A) (A) (A) (A) (A) (A) (A) (A)
                 (A) (A) (A) (A) (A) (A) (A) (A) (A) (A) (A) (A)
                 (A) (A) (A) (A) (A) (A) (A) (A) (A) (A) (A) (A)
                 (A) (A) (A) (A) (A) (A) (A) (A) (A) (A) (A) (A)
                 (A) (A) (A) (A) (A) (A) (A) (A) (A) (A) (A) (A)
                 (A) (A) (A) (A) (A) (A) (A) (A) (A) (A) (A) (A)
                 (A) (A) (A) (A) (A) (A) (A) (A) (A) (A) (A) (A)
                 (A) (A) (A) (A) (A) (A) (A) (A) (A) (A) (A) (A)
                 (A) (A) (A) (A) (A) (A) (A) (A) (A) (A) (A) (A)
                 (A) (A) (A) (A) (A) (A) (A) (A) (A) (A) (A) (A)
                 (A) (A) (A) (A) (A) (A) (A) (A) (A) (A) (A) (A)
                 (A) (A) (A) (A) (A) (A) (A)
 The electronic state is 1-A.
 Alpha  occ. eigenvalues --  -77.34605 -19.33250 -14.58052 -14.52891 -10.40003
 Alpha  occ. eigenvalues --  -10.39963 -10.39931 -10.38505 -10.37186 -10.37027
 Alpha  occ. eigenvalues --  -10.35815 -10.35397 -10.35319 -10.34078 -10.34061
 Alpha  occ. eigenvalues --  -10.33131 -10.33090 -10.33019 -10.32868 -10.32537
 Alpha  occ. eigenvalues --  -10.32491 -10.32382 -10.32314 -10.32107 -10.32099
 Alpha  occ. eigenvalues --  -10.32089 -10.32073  -6.76746  -4.91737  -4.91434
 Alpha  occ. eigenvalues --   -4.91240  -1.17409  -1.14859  -1.10458  -0.99561
 Alpha  occ. eigenvalues --   -0.98407  -0.97896  -0.93022  -0.92714  -0.89856
 Alpha  occ. eigenvalues --   -0.89430  -0.86927  -0.86827  -0.86471  -0.82663
 Alpha  occ. eigenvalues --   -0.81957  -0.79554  -0.75897  -0.75257  -0.74379
 Alpha  occ. eigenvalues --   -0.72188  -0.71873  -0.71262  -0.71196  -0.68396
 Alpha  occ. eigenvalues --   -0.67858  -0.64247  -0.63292  -0.62840  -0.62316
 Alpha  occ. eigenvalues --   -0.59870  -0.59511  -0.58502  -0.58013  -0.57249
 Alpha  occ. eigenvalues --   -0.57075  -0.56551  -0.56170  -0.55905  -0.55495
 Alpha  occ. eigenvalues --   -0.55067  -0.54772  -0.54064  -0.53144  -0.52616
 Alpha  occ. eigenvalues --   -0.52155  -0.51739  -0.51238  -0.50136  -0.49340
 Alpha  occ. eigenvalues --   -0.48152  -0.48078  -0.47289  -0.46320  -0.45786
 Alpha  occ. eigenvalues --   -0.44688  -0.44304  -0.43932  -0.43397  -0.41642
 Alpha  occ. eigenvalues --   -0.39589  -0.38940  -0.37751  -0.35853  -0.35481
 Alpha  occ. eigenvalues --   -0.35072  -0.34797  -0.28505
 Alpha virt. eigenvalues --   -0.04042  -0.00260   0.00100   0.01502   0.03553
 Alpha virt. eigenvalues --    0.03669   0.04444   0.04539   0.05096   0.05582
 Alpha virt. eigenvalues --    0.06202   0.06583   0.07476   0.07799   0.08093
[...]
 0.00000598,0.00003016,-0.00001700,0.00001390,0.00000431,-0.00000620,0.
 00000982,0.02883533,-0.00067687,0.00814416,0.00010873,-0.00079036,-0.0
 0037773,-0.00013446,0.00018117,0.00003305,-0.00023127,0.00018695,0.000
 37363,0.00010893,-0.00002321,-0.00006780,0.00000477,0.00005911,0.00002
 939,0.00030188,-0.00024079,0.00006551,-0.00000973,-0.00001535,-0.00000
 659,-0.00000439,-0.00000551,-0.00000923,-0.00000528,-0.00000699,-0.000
 00116,-0.00021778,0.00019841,-0.00004233,-0.05340806,-0.06187066,0.003
 00046,0.00812044,0.00263851,-0.00102470,-0.02974150,-0.00165050,0.0034
 3640,0.04485156,0.06207019,0.00000696,0.00001766,-0.00003474,-0.000037
 81,0.00003232,0.00005072,0.00008640,0.00005318,-0.00025339,-0.00006792
 ,0.00003301,0.00003425,0.00004461,0.00000533,-0.00005495,-0.00000831,0
 .00000266,-0.00000755,0.00000578,-0.00000451,-0.00000830,0.00006531,0.
 00000260,-0.00012073,-0.00000758,0.00000358,0.00000066,-0.00408836,0.0
 0026727,0.00221920,0.00017016,-0.00005612,-0.00002637,-0.00000348,0.00
 005340,0.00003630,-0.00007355,0.00002813,-0.00000185,0.00001946,0.0000
 0555,-0.00000198,0.00008662,0.00000012,0.00002197,0.00005406,0.0000034
 4,-0.00004663,0.00000418,-0.00000276,-0.00000052,-0.00000613,0.0000009
 3,-0.00000336,-0.00000347,-0.00000392,0.00000096,0.00020805,0.00013472
 ,-0.00054020,0.00050260,0.00022015,-0.00112546,0.00002743,0.00012303,0
 .00008829,0.00011431,0.00002035,-0.00005966,0.00003366,0.00000898,-0.0
 0018614,-0.00013594,0.00000317,-0.00002559,0.00000409,-0.00000978,0.00
 003169,-0.00000669,-0.00011941,0.00001862,-0.00000259,0.00000932,0.000
 01913,-0.00001143,-0.00000981,-0.00001517,-0.00000501,-0.00000398,0.00
 000994,-0.00001798,0.00001415,-0.00001468,-0.00000229,0.00000466,-0.00
 000926,-0.02767146,0.00336303,-0.00680044,-0.00009136,0.00083333,0.000
 35636,0.00027315,-0.00020395,0.00015997,0.00023262,-0.00017622,-0.0003
 6890,-0.00018476,0.00001140,0.00012356,0.00000415,0.00002353,0.0000269
 8,-0.00030648,0.00020321,-0.00005979,0.00000639,0.00001373,0.00000629,
 -0.00000504,-0.00001019,0.00000084,0.00000502,0.00000784,-0.00000011,0
 .00029710,-0.00012625,-0.00000102,0.03122104,0.00256414,-0.05581523,0.
 02898598,0.00603081,0.00086811,-0.00845353,-0.00220863,0.00234942,-0.0
 2120549,-0.01117677,0.05912121,0.00005045,0.00004462,0.00005662,0.0000
 8728,0.00007809,-0.00021032,-0.00002527,-0.00017473,-0.00038771,-0.000
 57858,-0.00123423,0.00038416,-0.00010662,-0.00013454,-0.00010289,0.000
 01848,-0.00002451,0.00003051,-0.00001009,0.00000894,-0.00001956,0.0000
 0060,0.00014807,0.00000789,0.00005362,-0.00004337,0.00000418,-0.003026
 71,0.00438484,0.00282497,0.00783278,0.00070007,-0.01085380,-0.05161873
 ,0.01665444,-0.02318404,-0.01906624,-0.00224476,0.04339969,-0.22402293
 ,0.06062850,-0.12222524,-0.00575356,0.00233445,0.00319309,-0.18470862,
 0.00492129,0.10936973,-0.00618096,0.00305079,-0.00004537,0.01266574,-0
 .00444423,0.01117277,0.01379923,0.00178504,-0.02138083,0.00053321,-0.0
 0225500,-0.00092605,0.00027965,-0.00025416,0.00001357,-0.00097215,0.00
 037048,-0.00003404,-0.00008124,-0.00002163,0.00005341,0.00014329,0.000
 03430,-0.00000062,-0.00005768,-0.00027284,0.00018562,0.00003155,0.0000
 1708,-0.00005547,-0.00007099,-0.00005597,0.00000100,-0.00005954,0.0000
 0507,0.00001330,-0.00011266,-0.00004451,0.00003612,-0.00003569,-0.0000
 0807,-0.00000977,0.00009244,-0.00004639,-0.00003362,0.00001132,-0.0000
 2405,0.00001359,0.00017646,-0.00082149,-0.00194072,-0.00007383,-0.0014
 8460,-0.00162397,-0.00096667,-0.00023283,0.00078167,-0.00061649,0.0000
 2964,-0.00027935,0.00023251,0.00013591,-0.00075340,0.00017518,-0.00019
 184,0.00012704,0.00024401,-0.00051952,0.00022205,0.00015515,0.00015745
 ,-0.00005931,-0.00010004,0.00009539,0.00010658,-0.00008527,0.00005617,
 0.00002966,-0.00062868,0.00029943,0.00027426,0.00039483,-0.00038156,0.
 00063545,-0.00003641,0.00003441,-0.00008482,-0.00004025,0.00006058,0.0
 0004620,-0.00005010,0.00003759,-0.00004299,0.88713570,-0.00035795,0.00
 019712,0.00005737,-0.00001604,-0.00023941,0.00033890,0.00042930,0.0000
 2439,-0.00006852,-0.00107850,-0.00147235,0.00027167,-0.00057725,-0.000
 66907,0.00007864,-0.00001819,0.00000028,0.00000473,0.00001308,0.000014
 23,0.00001164,0.00010238,0.00007881,0.00013127,0.00001216,0.00012977,0
 .00004307,0.00047900,-0.00085103,-0.00067832,-0.00146642,-0.01244754,0
 .01739066,0.02856945,0.00378492,-0.00383769,-0.01320626,0.01402621,-0.
 00896440,0.04525332,-0.09065896,0.07187440,0.00254275,0.00809818,0.000
 54556,0.01886758,-0.07655700,0.03220475,0.00302616,0.00762229,0.001070
 01,0.00335887,0.00125406,0.00271241,-0.00576704,0.00184337,0.01013182,
 -0.00008741,0.00053587,0.00020932,-0.00007620,0.00005628,0.00002294,0.
 00022634,-0.00008283,0.00000071,0.00002787,0.00002029,-0.00003334,-0.0
 0002742,-0.00000603,0.00000379,-0.00000012,0.00006003,-0.00004783,-0.0
 0000458,-0.00000065,0.00001022,0.00002223,0.00000041,0.00001306,0.0000
 1077,-0.00000298,-0.00000467,0.00002541,0.00001068,-0.00000593,0.00000
 771,0.00000120,0.00000249,0.00023082,0.00014146,-0.00054740,0.00000439
 ,0.00000381,0.00000709,0.00001396,0.00011995,0.00027295,-0.00001419,-0
 .00031550,0.00026258,0.00037501,0.00002049,-0.00018281,0.00008797,-0.0
 0005063,-0.00008463,-0.00006435,-0.00003785,0.00022889,-0.00013226,0.0
 0005598,-0.00000146,0.00000678,0.00005726,-0.00005383,0.00003601,-0.00
 003830,0.00001705,0.00001105,-0.00002949,-0.00002984,0.00001132,-0.000
 01898,-0.00001067,0.00014036,0.00000864,-0.00009610,-0.00008538,0.0000
 6164,-0.00014764,0.00000821,-0.00000555,0.00001984,0.00000285,-0.00000
 817,-0.00000102,0.00000973,-0.00000478,0.00000175,-0.15569230,0.190591
 30,0.00024240,-0.00008934,-0.00002441,0.00008579,0.00027878,0.00013222
 ,0.00051864,0.00009151,-0.00034446,-0.00016424,-0.00010696,0.00013673,
 -0.00002518,0.00007114,-0.00015838,-0.00000428,-0.00000363,-0.00000939
 ,-0.00003382,-0.00003375,-0.00000309,0.00005127,0.00028539,-0.00013129
 ,0.00000565,0.00002523,0.00001128,-0.00127612,0.00073386,0.00079951,-0
 .01049389,0.01736371,-0.08156702,-0.07846215,0.00827482,0.05053523,0.1
 0045618,-0.02114138,0.00886879,-0.04738640,0.05556479,-0.28045286,0.00
 202178,0.00055407,0.00171019,0.03359286,0.04776672,-0.33859301,0.00118
 917,0.00120951,0.00247310,-0.02684209,0.01099716,-0.02239887,0.0167905
 3,0.00231781,-0.02434926,-0.00002707,-0.00053648,-0.00033783,0.0000847
 2,-0.00004871,0.00002563,-0.00018776,0.00012361,0.00002827,-0.00003104
 ,-0.00002485,0.00002495,0.00001174,0.00000367,-0.00001775,0.00002396,-
 0.00006282,0.00004473,0.00002523,-0.00002286,-0.00000755,-0.00002093,0
 .00001714,-0.00000342,-0.00000966,0.00000060,0.00000558,-0.00002231,-0
 .00000924,-0.00000065,-0.00000483,-0.00000178,-0.00000313,-0.00016587,
 0.00002051,0.00011510,-0.00000390,0.00002105,0.00000304,0.00043794,0.0
 0037410,0.00076655,-0.00200745,-0.00182590,-0.00104636,0.00003102,0.00
 058121,-0.00023579,0.00038437,0.00067132,0.00032676,0.00009454,-0.0000
 4688,0.00016228,0.00008193,-0.00024518,0.00023761,-0.00021743,0.000167
 06,0.00020515,-0.00023711,-0.00008952,0.00018050,0.00001897,-0.0000251
 5,-0.00003085,-0.00001076,-0.00003913,-0.00002745,0.00014191,-0.000218
 61,0.00005901,-0.00009853,0.00019241,-0.00007276,0.00000718,-0.0000111
 3,0.00000498,-0.00002083,-0.00007490,-0.00004456,0.00000269,-0.0000233
 5,0.00002910,-0.04964699,-0.11989633,0.76581025,0.00001987,-0.00001024
 ,-0.00000827,-0.00000285,0.00001736,0.00004899,0.00001603,0.00005480,0
 .00007090,0.00005674,0.00006991,-0.00003333,0.00004340,0.00005180,-0.0
 0001151,-0.00000309,0.00000385,-0.00001031,0.00000198,-0.00000503,-0.0
 0000031,-0.00000087,-0.00001829,-0.00002394,-0.00000694,-0.00000764,-0
 .00000634,0.00029293,-0.00070518,-0.00047604,-0.00045757,-0.00019513,-
 0.00045253,0.00225076,0.00165922,-0.00269076,0.00368121,0.00051213,0.0
 0128493,-0.01352306,0.00244589,0.00143191,-0.00016913,0.00009970,0.000
 33052,-0.00545795,0.00033966,0.00295757,0.00008310,0.00014777,-0.00020
 586,0.00089500,-0.00102721,0.00003221,0.00084104,-0.00088808,-0.000586
 71,-0.00006662,0.00035380,0.00015179,-0.00004250,0.00004703,-0.0000007
 2,0.00015491,-0.00006051,0.00000488,0.00001830,0.00000458,-0.00000910,
 -0.00002612,-0.00000620,-0.00000122,0.00001091,0.00004281,-0.00002813,
 -0.00000620,-0.00000583,0.00000751,0.00001235,0.00000963,-0.00000301,0
 .00001038,-0.00000123,-0.00000223,0.00001859,0.00000805,-0.00000563,0.
 00000651,0.00000149,0.00000123,-0.00001605,0.00000708,0.00003707,-0.00
 000361,0.00000691,-0.00000614,0.00004520,0.00013839,0.00034449,-0.0003
 4681,-0.00003943,0.00018043,0.00026267,0.00005667,-0.00013143,0.000197
 93,-0.00001668,0.00003755,-0.00006796,-0.00004245,0.00019445,-0.000023
 67,0.00000977,0.00000261,-0.00008096,0.00012876,-0.00007253,-0.0000395
 8,-0.00000567,0.00000907,0.00001815,-0.00002453,-0.00002604,0.00001644
 ,-0.00001909,-0.00001016,0.00013368,-0.00007213,-0.00005705,-0.0000812
 1,0.00008485,-0.00012462,0.00000546,-0.00000819,0.00001496,0.00000699,
 -0.00001496,-0.00000754,0.00001229,-0.00001107,0.00000995,-0.42515608,
 0.07478786,0.06112140,0.43649041,0.00002750,0.00000043,0.00000384,0.00
 000917,-0.00000753,-0.00004652,-0.00001003,-0.00002159,0.00000801,0.00
 007421,0.00005534,-0.00000755,0.00001735,0.00008669,0.00001300,0.00000
 330,-0.00000050,-0.00000267,0.00000168,-0.00000057,-0.00000256,-0.0000
 1067,-0.00001073,-0.00000441,0.00000558,-0.00003979,-0.00002726,-0.000
 17372,0.00017098,-0.00000688,0.00001895,-0.00074140,0.00053172,0.00162
 629,0.00594224,0.00287582,0.00015421,0.00675245,0.00212107,0.00907179,
 -0.00152334,-0.00248678,0.00041370,0.00041511,-0.00012377,-0.00565534,
 0.00146204,-0.00061274,-0.00015773,0.00050507,0.00010253,-0.00097682,-
 0.00341790,-0.00086004,-0.00100632,-0.00357491,-0.00070737,0.00003168,
 -0.00011268,-0.00002329,0.00000813,-0.00000855,-0.00001576,-0.00004275
 ,0.00001311,0.00000294,-0.00000193,0.00000045,0.00000905,0.00000582,-0
 .00000026,0.00000201,-0.00000308,-0.00001508,0.00000536,0.00000104,-0.
 00000107,-0.00000140,-0.00000128,-0.00000315,-0.00000475,-0.00000132,0
 .00000038,0.00000032,-0.00000497,-0.00000189,0.00000189,-0.00000093,-0
 .00000015,0.00000006,0.00000459,-0.00001407,0.00004041,-0.00000369,-0.
 00000848,0.00000330,-0.00000937,-0.00009287,-0.00015782,-0.00008125,-0
 .00082586,-0.00018023,0.00005634,-0.00003550,0.00003177,-0.00005269,-0
 .00004611,-0.00003584,-0.00003591,-0.00000290,0.00003920,0.00000358,0.
 00000085,0.00002681,0.00001940,-0.00002647,0.00000089,0.00000097,0.000
 02220,-0.00000100,-0.00000469,-0.00000533,-0.00000615,0.00000058,0.000
 00649,0.00000289,-0.00001206,0.00001944,-0.00002050,0.00002620,-0.0000
 4413,0.00003238,-0.00000231,0.00000341,-0.00000411,0.00000420,0.000010
 93,0.00000582,-0.00000247,0.00000635,-0.00000120,0.07457664,-0.0453214
 2,-0.00312722,-0.07791902,0.04042525,0.00001212,-0.00000095,-0.0000066
 3,-0.00000109,-0.00000703,-0.00001606,-0.00000360,0.00000998,-0.000008
 67,0.00002085,0.00000152,0.00000620,-0.00001436,0.00002369,0.00000366,
 0.00000296,0.00000047,-0.00000017,-0.00000132,0.00000045,-0.00000077,-
 0.00000921,0.00000230,0.00000301,0.00000696,-0.00000844,0.00000509,-0.
 00008228,0.00019232,0.00008634,-0.00020842,0.00048215,-0.00245862,-0.0
 0388013,0.00291465,-0.00327677,0.00233284,0.00191127,-0.00509037,-0.02
 945343,0.00433433,0.01037119,-0.00120183,0.00023916,0.00044130,0.03416
 764,-0.00720052,-0.00082909,0.00132510,-0.00018221,0.00013281,-0.00033
 460,-0.00074477,0.00022803,-0.00025637,-0.00082072,0.00033331,0.000013
 28,-0.00008928,-0.00003648,0.00001223,-0.00001027,-0.00000477,-0.00003
 825,0.00001413,-0.00000498,-0.00000262,-0.00000105,0.00000563,0.000005
 64,0.00000100,0.00000011,-0.00000020,-0.00001128,0.00001104,0.00000196
 ,-0.00000005,-0.00000073,-0.00000378,-0.00000136,-0.00000395,-0.000002
 11,0.00000037,0.00000089,-0.00000436,-0.00000180,0.00000157,-0.0000012
 3,-0.00000024,0.00000005,-0.00000420,-0.00002304,0.00000975,0.00000051
 ,0.00000564,-0.00000026,-0.00001132,-0.00003918,-0.00007016,-0.0000036
 4,-0.00031187,0.00003078,-0.00001679,0.00003008,-0.00000714,-0.0000320
 8,0.00004587,-0.00002834,0.00003206,-0.00001453,-0.00002773,0.00002536
 ,-0.00004016,0.00002371,-0.00001275,0.00000475,0.00003929,-0.00001948,
 -0.00002700,0.00002686,-0.00000287,0.00000130,0.00000148,-0.00000135,0
 .00000449,0.00000296,-0.00002588,-0.00002278,0.00003560,0.00001458,-0.
 00001404,0.00002501,-0.00000230,0.00000032,-0.00000523,0.00000744,0.00
 000115,0.00000662,-0.00000276,0.00000010,-0.00000147,0.06094290,-0.003
 25001,-0.08286960,-0.06329411,0.00260518,0.08291203,0.00002556,0.00006
 008,0.00002986,0.00009507,-0.00008242,-0.00009399,-0.00026008,-0.00044
 706,-0.00017265,-0.00004285,-0.00008721,0.00010386,0.00004023,0.000026
 32,0.00004191,0.00001308,-0.00001183,0.00001916,-0.00002038,-0.0000092
 3,-0.00000479,-0.00001739,-0.00000450,-0.00001041,0.00002362,-0.000009
 47,0.00000171,0.00014219,0.00010259,-0.00020174,-0.00032324,-0.0005887
 8,-0.00038756,0.00014125,-0.00004701,0.00000102,0.00015141,0.00000898,
 -0.00003180,-0.00010236,0.00005516,-0.00003965,-0.00001323,-0.00000413
 ,0.00002441,-0.00009395,0.00002658,0.00004607,-0.00005262,0.00001503,-
 0.00001981,0.00001638,-0.00000705,0.00000193,0.00000831,-0.00001207,-0
 .00000686,0.00004125,-0.00059340,-0.00008017,0.00006503,-0.00008559,0.
 00000404,-0.00024425,0.00013336,0.00001106,0.00000711,-0.00001919,-0.0
 0000016,0.00010752,0.00002281,0.00002051,-0.00004377,-0.00007435,0.000
 01426,0.00001687,0.00000880,0.00000038,-0.00003168,-0.00002873,0.00002
 985,-0.00004049,-0.00001066,-0.00001406,-0.00003303,-0.00001325,0.0000
 0706,-0.00001100,-0.00000700,-0.00000049,0.00006292,-0.00004956,0.0000
 1496,0.00000442,-0.00001371,0.00000200,-0.00013624,-0.00073535,-0.0014
 1083,-0.00073875,0.00239367,0.00176659,0.00427384,-0.00115747,0.002050
 82,0.00447219,0.00170145,-0.00203861,-0.00912291,0.00208050,0.00266591
 ,0.00038936,0.00071006,0.00028062,-0.01051037,0.00397817,0.00167813,0.
 00032535,0.00053356,0.00058964,-0.00043503,-0.00110304,-0.00119950,-0.
 00036718,-0.00157909,-0.00075074,-0.29721086,0.17367644,0.12789190,0.0
 0024516,-0.00025878,0.00035868,-0.00002403,0.00002867,-0.00004179,-0.0
 0001874,0.00006825,0.00001300,-0.00003439,0.00003118,-0.00002941,0.000
 12862,-0.00002886,-0.00002124,-0.00002438,0.00000745,0.00000428,0.3091
 5645,-0.00006837,0.00000334,-0.00001503,-0.00003365,-0.00002472,-0.000
 00633,0.00021424,0.00018166,0.00010996,-0.00003434,0.00005920,-0.00005
 035,0.00000030,-0.00004261,0.00001608,-0.00000669,0.00000538,-0.000009
 87,0.00001761,0.00002800,0.00001546,0.00001018,0.00000407,0.00000545,-
 0.00001135,0.00000800,0.00000046,-0.00003105,0.00018820,-0.00002393,0.
 00027442,0.00008233,-0.00007638,0.00003279,0.00001937,0.00003374,-0.00
 006921,-0.00002993,0.00002657,0.00001661,-0.00001827,-0.00000746,0.000
 03201,0.00001208,-0.00004390,0.00001635,-0.00000688,-0.00005877,-0.000
 03372,0.00001115,-0.00003051,-0.00000294,0.00000228,-0.00000070,-0.000
 00269,0.00000373,0.00000348,-0.00001323,0.00030397,0.00011609,-0.00007
 753,0.00004561,0.00006331,0.00014025,-0.00002650,0.00000939,0.00003244
 ,0.00002905,0.00001988,0.00003971,-0.00001853,-0.00007118,-0.00001450,
 0.00005901,-0.00001728,-0.00000863,-0.00000050,-0.00000342,0.00000705,
 -0.00002084,0.00000196,-0.00001078,-0.00001176,-0.00002032,0.00001413,
 0.00001193,-0.00000788,0.00000737,0.00000363,-0.00000194,-0.00000748,0
 .00002546,-0.00004942,-0.00000092,0.00001037,-0.00000072,0.00002407,0.
 00031038,0.00062940,-0.00008282,-0.00251922,-0.00022603,-0.00179357,0.
 00211012,0.00398876,0.00100839,0.00000703,0.00512002,-0.01382747,0.007
 85137,0.00102207,-0.00010740,0.00089083,0.00069019,0.01710301,-0.01180
 259,-0.01237069,0.00128128,0.00042631,-0.00005875,-0.00119337,-0.00058
 518,-0.00083546,-0.00143919,-0.00069815,-0.00086166,0.17724875,-0.1387
 2587,-0.04953889,-0.00009002,0.00003687,-0.00015214,0.00001607,-0.0000
 0494,0.00002399,0.00003485,0.00000625,0.00001138,0.00001748,-0.0000108
 4,0.00001301,-0.00004214,-0.00000038,-0.00000211,0.00001403,0.00000505
 ,-0.00000409,-0.17860033,0.14180571,-0.00005981,0.00000796,-0.00000674
 ,0.00001308,-0.00004269,-0.00002543,0.00018580,0.00005088,0.00002176,-
 0.00005212,0.00003245,-0.00002875,0.00001216,-0.00002802,0.00003001,-0
 .00000630,0.00000377,-0.00000768,-0.00000254,0.00002965,0.00002477,0.0
 0000697,0.00000094,0.00000311,-0.00000654,0.00000625,0.00000172,-0.000
 03124,-0.00019433,0.00033366,0.00015729,-0.00005588,0.00017225,-0.0000
 2194,0.00001497,-0.00003982,-0.00003929,0.00000341,-0.00003470,-0.0000
 3232,-0.00001694,0.00002734,-0.00000500,0.00002606,0.00002607,0.000046
 58,-0.00000204,-0.00001789,0.00005319,-0.00000322,0.00003182,-0.000005
 54,-0.00000062,-0.00000129,-0.00000313,0.00000022,0.00000291,-0.000012
 13,0.00019026,-0.00002212,-0.00007161,0.00003573,0.00007103,0.00008253
 ,-0.00003565,-0.00001676,0.00002099,0.00001295,-0.00000358,0.00007133,
 0.00000096,-0.00007000,0.00000400,0.00004381,-0.00000025,-0.00000638,-
 0.00000008,-0.00000524,0.00000199,-0.00000411,-0.00000393,-0.00000649,
 -0.00001405,-0.00000040,0.00001105,0.00000925,-0.00000076,0.00000660,0
 .00000366,-0.00000008,0.00000195,0.00001223,-0.00004785,-0.00000172,0.
 00000806,0.00000029,0.00002659,0.00038488,0.00064507,-0.00000238,-0.00
 059076,-0.00211671,0.00117757,0.00461419,-0.00324063,-0.00207850,0.004
 74223,-0.00094573,0.02294907,-0.01869956,-0.00888789,0.00136149,-0.000
 27627,0.00011752,-0.02034525,0.00785278,0.01188031,-0.00063310,0.00082
 055,0.00064862,-0.00104867,-0.00076138,-0.00003657,-0.00082976,-0.0008
 7981,-0.00005034,0.13028381,-0.04999250,-0.11065651,-0.00008809,0.0001
 1396,-0.00016695,0.00001017,-0.00001343,0.00001949,0.00002303,-0.00001
 803,0.00000159,0.00001399,-0.00002164,0.00000989,-0.00002518,0.0000028
 5,0.00003320,0.00001115,0.00000155,0.00000370,-0.13111736,0.05262456,0
 .11232845\\-0.00000245,0.00000066,0.00000326,-0.00000163,0.00000036,0.
 00000206,-0.00000063,-0.00000026,0.00000128,-0.00000088,-0.00000094,0.
 00000304,-0.00000179,-0.00000180,0.00000377,-0.00000310,0.00000155,0.0
 0000350,-0.00000186,0.00000139,0.00000165,0.00000007,-0.00000269,0.000
 00230,-0.00000128,-0.00000288,0.00000424,0.00000041,0.,-0.00000010,0.0
 0000055,-0.00000179,0.00000005,0.00000097,-0.00000190,-0.00000135,-0.0
 0000043,0.00000101,-0.00000054,0.00000096,-0.00000333,0.00000049,0.000
 00209,-0.00000227,-0.00000012,0.00000032,-0.00000290,0.00000093,0.0000
 0001,0.00000058,0.00000023,0.00000178,-0.00000439,0.00000052,-0.000000
 35,-0.00000111,0.00000153,-0.00000027,0.00000089,-0.00000031,-0.000000
 54,0.00000082,-0.00000211,-0.00000142,0.00000144,0.00000112,-0.0000002
 8,0.00000254,-0.00000158,0.00000154,0.00000006,-0.00000266,-0.00000170
 ,0.00000217,0.00000077,-0.00000173,0.00000078,0.00000205,-0.00000121,0
 .00000285,-0.00000048,0.00000022,0.00000303,-0.00000263,-0.00000225,0.
 00000249,0.00000158,-0.00000130,0.00000360,-0.00000069,-0.00000232,-0.
 00000071,0.00000396,-0.00000278,-0.00000081,0.00000486,0.00000086,-0.0
 0000220,0.00000029,0.00000113,0.00000083,-0.00000203,0.00000109,0.0000
 0021,-0.00000151,0.00000044,0.00000234,-0.00000072,0.00000225,0.000000
 76,-0.00000385,0.00000284,-0.00000132,-0.00000373,0.00000038,0.0000030
 3,-0.00000263,-0.00000085,0.00000248,-0.00000060,0.00000255,0.00000099
 ,-0.00000463,-0.00000035,0.00000382,-0.00000244,0.00000081,0.00000302,
 -0.00000357,0.00000133,-0.00000221,0.00000035,0.00000205,-0.00000340,-
 0.00000037,0.00000183,-0.00000232,-0.00000207,0.00000150,-0.00000179,-
 0.00000099,0.00000149,-0.00000243,0.00000065,0.00000056,-0.00000343,0.
 00000174,0.00000135,0.00000319,-0.00000453\\\@


 HAPPINESS IS NOT HAVING WHAT YOU WANT --
 HAPPINESS IS WANTING WHAT YOU HAVE!

              -- FROM MRS. SEVERN'S DESK
 Job cpu time:       1 days 10 hours  7 minutes 36.6 seconds.
 Elapsed time:       0 days  1 hours 25 minutes 29.9 seconds.
 File lengths (MBytes):  RWF=   3912 Int=      0 D2E=      0 Chk=     64 Scr=     16
 Normal termination of Gaussian 16 at Thu Mar 29 04:14:01 2018.
