Job Start Time: Thu Apr  5 22:03:59 MDT 2018
SLURM Job ID: 759258
SLURM Job Name: TS2_Int3_1Pyrax_SMD_b_freq
 Entering Gaussian System, Link 0=/projects/user/g16/g16
 Initial command:
 /projects/user/g16/l1.exe "/gpfs/summit/scratch/user/759258/Gau-190981.inp" -scrdir="/gpfs/summit/scratch/user/759258/"
 Entering Link 1 = /projects/user/g16/l1.exe PID=    190983.
  
 Copyright (c) 1988,1990,1992,1993,1995,1998,2003,2009,2016,
            Gaussian, Inc.  All Rights Reserved.
  
 This is part of the Gaussian(R) 16 program.  It is based on
 the Gaussian(R) 09 system (copyright 2009, Gaussian, Inc.),
 the Gaussian(R) 03 system (copyright 2003, Gaussian, Inc.),
 the Gaussian(R) 98 system (copyright 1998, Gaussian, Inc.),
 the Gaussian(R) 94 system (copyright 1995, Gaussian, Inc.),
 the Gaussian 92(TM) system (copyright 1992, Gaussian, Inc.),
 the Gaussian 90(TM) system (copyright 1990, Gaussian, Inc.),
 the Gaussian 88(TM) system (copyright 1988, Gaussian, Inc.),
 the Gaussian 86(TM) system (copyright 1986, Carnegie Mellon
 University), and the Gaussian 82(TM) system (copyright 1983,
 Carnegie Mellon University). Gaussian is a federally registered
 trademark of Gaussian, Inc.
  
 This software contains proprietary and confidential information,
 including trade secrets, belonging to Gaussian, Inc.
  
 This software is provided under written license and may be
 used, copied, transmitted, or stored only in accord with that
 written license.
  
 The following legend is applicable only to US Government
 contracts under FAR:
  
                    RESTRICTED RIGHTS LEGEND
  
 Use, reproduction and disclosure by the US Government is
 subject to restrictions as set forth in subparagraphs (a)
 and (c) of the Commercial Computer Software - Restricted
 Rights clause in FAR 52.227-19.
  
 Gaussian, Inc.
 340 Quinnipiac St., Bldg. 40, Wallingford CT 06492
  
  
 ---------------------------------------------------------------
 Warning -- This program may not be used in any manner that
 competes with the business of Gaussian, Inc. or will provide
 assistance to any competitor of Gaussian, Inc.  The licensee
 of this program is prohibited from giving any competitor of
 Gaussian, Inc. access to this program.  By using this program,
 the user acknowledges that Gaussian, Inc. is engaged in the
 business of creating and licensing software in the field of
 computational chemistry and represents and warrants to the
 licensee that it is not a competitor of Gaussian, Inc. and that
 it will not use this program in any manner prohibited above.
 ---------------------------------------------------------------
  

 Cite this work as:
 Gaussian 16, Revision A.03,
 M. J. Frisch, G. W. Trucks, H. B. Schlegel, G. E. Scuseria, 
 M. A. Robb, J. R. Cheeseman, G. Scalmani, V. Barone, 
 G. A. Petersson, H. Nakatsuji, X. Li, M. Caricato, A. V. Marenich, 
 J. Bloino, B. G. Janesko, R. Gomperts, B. Mennucci, H. P. Hratchian, 
 J. V. Ortiz, A. F. Izmaylov, J. L. Sonnenberg, D. Williams-Young, 
 F. Ding, F. Lipparini, F. Egidi, J. Goings, B. Peng, A. Petrone, 
 T. Henderson, D. Ranasinghe, V. G. Zakrzewski, J. Gao, N. Rega, 
 G. Zheng, W. Liang, M. Hada, M. Ehara, K. Toyota, R. Fukuda, 
 J. Hasegawa, M. Ishida, T. Nakajima, Y. Honda, O. Kitao, H. Nakai, 
 T. Vreven, K. Throssell, J. A. Montgomery, Jr., J. E. Peralta, 
 F. Ogliaro, M. J. Bearpark, J. J. Heyd, E. N. Brothers, K. N. Kudin, 
 V. N. Staroverov, T. A. Keith, R. Kobayashi, J. Normand, 
 K. Raghavachari, A. P. Rendell, J. C. Burant, S. S. Iyengar, 
 J. Tomasi, M. Cossi, J. M. Millam, M. Klene, C. Adamo, R. Cammi, 
 J. W. Ochterski, R. L. Martin, K. Morokuma, O. Farkas, 
 J. B. Foresman, and D. J. Fox, Gaussian, Inc., Wallingford CT, 2016.
 
 ******************************************
 Gaussian 16:  ES64L-G16RevA.03 25-Dec-2016
                 5-Apr-2018 
 ******************************************
 %chk=coioph2.chk
 %mem=98GB
 %nprocshared=24
 Will use up to   24 processors via shared memory.
 ----------------------------------------------------------------------
 # freq=noraman wb97xd/6-31+g(d) scrf=(solvent=ethanol,smd) geom=connec
 tivity
 ----------------------------------------------------------------------
 1/10=4,30=1,38=1,57=2/1,3;
 2/12=2,17=6,18=5,40=1/2;
 3/5=1,6=6,7=11,11=2,25=1,30=1,70=32201,71=2,72=4,74=-58,140=1/1,2,3;
 4//1;
 5/5=2,38=5,53=4,98=1/2;
 8/6=4,10=90,11=11/1;
 11/6=1,8=1,9=11,15=111,16=1/1,2,10;
 10/6=1/2;
 6/7=2,8=2,9=2,10=2,28=1/1;
 7/8=1,10=1,25=1/1,2,3,16;
 1/10=4,30=1/3;
 99//99;
 -------------------
 Title Card Required
 -------------------
 Symbolic Z-matrix:
 Charge =  2 Multiplicity = 1
 C                     3.46528   1.76222  -1.17492 
 C                     2.33236   0.96064  -1.06941 
 C                     1.11321   1.5182   -0.6594 
 C                     1.03585   2.88641  -0.36715 
 C                     2.17414   3.68139  -0.4704 
 H                     4.40751   1.32563  -1.49325 
 H                     2.40069  -0.09554  -1.31701 
 H                     0.09365   3.33593  -0.06799 
 H                     2.11111   4.74184  -0.24382 
 P                    -0.32119   0.41593  -0.58736 
 C                    -1.57783   1.13084   0.49016 
 C                    -2.92714   0.98848   0.14175 
 C                    -1.23455   1.67571   1.73586 
 C                    -3.9211    1.4183    1.01808 
 H                    -3.20327   0.55118  -0.81396 
 C                    -2.23275   2.09861   2.60768 
 H                    -0.19179   1.77593   2.02604 
 H                    -4.96558   1.31507   0.73826 
 H                    -1.96132   2.52965   3.56706 
 C                     1.07416  -1.86355   0.60308 
 C                     1.20424  -1.18166   1.8213 
 C                     2.17529  -2.58386   0.1282 
 C                     2.40122  -1.20525   2.4994 
 H                     0.38522  -0.61936   2.25422 
 C                     3.3565   -2.57986   0.84093 
 H                     2.13662  -3.15734  -0.78927 
 H                     2.57028  -0.69178   3.43741 
 H                     4.24631  -3.11049   0.52626 
 C                     3.38747   3.12054  -0.86909 
 H                     4.27324   3.74496  -0.94582 
 O                    -0.96426   0.33103  -2.06857 
 C                    -0.22522  -1.83287  -0.16325 
 C                    -0.25955  -2.41638  -1.49379 
 C                    -1.42794  -2.08789   0.61887 
 C                    -1.4165   -2.89419  -2.0163 
 H                     0.61819  -2.38848  -2.12857 
 C                    -2.54991  -2.57774   0.03184 
 H                    -1.45978  -1.84678   1.67498 
 H                    -1.48618  -3.27814  -3.02687 
 H                    -3.4716   -2.73713   0.57847 
 C                    -1.19123   1.51543  -2.85871 
 H                    -0.23456   1.9431   -3.17083 
 H                    -1.75575   1.18642  -3.73201 
 H                    -1.77031   2.25446  -2.29712 
 N                     3.43797  -1.89352   1.99064 
 N                    -2.56048  -2.93278  -1.28035 
 C                    -3.57574   1.97303   2.24905 
 H                    -4.35245   2.30681   2.93142 
 H                    -3.40138  -3.32741  -1.68519 
 H                     4.31914  -1.90092   2.50203 
 

 GradGradGradGradGradGradGradGradGradGradGradGradGradGradGradGradGradGrad
 Berny optimization.
 Initialization pass.
 Trust Radius=3.00D-01 FncErr=1.00D-07 GrdErr=1.00D-07 EigMax=2.50D+02 EigMin=1.00D-04
 Number of steps in this run=      2 maximum allowed number of steps=      2.
 GradGradGradGradGradGradGradGradGradGradGradGradGradGradGradGradGradGrad

                          Input orientation:                          
 ---------------------------------------------------------------------
 Center     Atomic      Atomic             Coordinates (Angstroms)
 Number     Number       Type             X           Y           Z
 ---------------------------------------------------------------------
      1          6           0        3.465284    1.762215   -1.174921
      2          6           0        2.332357    0.960637   -1.069413
      3          6           0        1.113210    1.518203   -0.659403
      4          6           0        1.035848    2.886412   -0.367153
      5          6           0        2.174143    3.681388   -0.470401
      6          1           0        4.407509    1.325629   -1.493249
      7          1           0        2.400689   -0.095541   -1.317011
      8          1           0        0.093651    3.335930   -0.067986
      9          1           0        2.111112    4.741837   -0.243822
     10         15           0       -0.321189    0.415934   -0.587362
     11          6           0       -1.577831    1.130836    0.490160
     12          6           0       -2.927143    0.988475    0.141749
     13          6           0       -1.234552    1.675706    1.735864
     14          6           0       -3.921099    1.418301    1.018085
     15          1           0       -3.203273    0.551175   -0.813956
     16          6           0       -2.232752    2.098607    2.607675
     17          1           0       -0.191785    1.775926    2.026037
     18          1           0       -4.965583    1.315072    0.738264
     19          1           0       -1.961323    2.529652    3.567057
     20          6           0        1.074160   -1.863547    0.603080
     21          6           0        1.204237   -1.181660    1.821298
     22          6           0        2.175285   -2.583863    0.128198
     23          6           0        2.401218   -1.205247    2.499396
     24          1           0        0.385222   -0.619358    2.254223
     25          6           0        3.356496   -2.579860    0.840925
     26          1           0        2.136622   -3.157342   -0.789270
     27          1           0        2.570283   -0.691776    3.437410
     28          1           0        4.246308   -3.110494    0.526263
     29          6           0        3.387471    3.120545   -0.869091
     30          1           0        4.273239    3.744962   -0.945821
     31          8           0       -0.964258    0.331030   -2.068568
     32          6           0       -0.225222   -1.832874   -0.163251
     33          6           0       -0.259551   -2.416381   -1.493791
     34          6           0       -1.427944   -2.087886    0.618866
     35          6           0       -1.416502   -2.894194   -2.016300
     36          1           0        0.618194   -2.388478   -2.128568
     37          6           0       -2.549912   -2.577735    0.031837
     38          1           0       -1.459776   -1.846780    1.674976
     39          1           0       -1.486176   -3.278135   -3.026873
     40          1           0       -3.471598   -2.737126    0.578472
     41          6           0       -1.191227    1.515426   -2.858708
     42          1           0       -0.234557    1.943095   -3.170834
     43          1           0       -1.755748    1.186419   -3.732009
     44          1           0       -1.770309    2.254456   -2.297121
     45          7           0        3.437974   -1.893518    1.990640
     46          7           0       -2.560478   -2.932776   -1.280354
     47          6           0       -3.575739    1.973032    2.249053
     48          1           0       -4.352447    2.306806    2.931418
     49          1           0       -3.401376   -3.327408   -1.685189
     50          1           0        4.319140   -1.900923    2.502032
 ---------------------------------------------------------------------
                    Distance matrix (angstroms):
                    1          2          3          4          5
     1  C    0.000000
     2  C    1.391827   0.000000
     3  C    2.420238   1.401894   0.000000
     4  C    2.796152   2.425431   1.401210   0.000000
     5  C    2.417978   2.790400   2.416748   1.392251   0.000000
     6  H    1.086153   2.149212   3.403644   3.882297   3.403490
     7  H    2.145882   1.086962   2.166615   3.414244   3.877275
     8  H    3.881983   3.414188   2.166427   1.085957   2.147027
     9  H    3.402775   3.876599   3.400049   2.148024   1.086215
    10  P    4.061413   2.751433   1.810438   2.827243   4.111393
    11  C    5.348284   4.213171   2.951821   3.263181   4.637381
    12  C    6.572322   5.397224   4.152940   4.423397   5.800830
    13  C    5.528889   4.593881   3.357692   3.323132   4.528749
    14  C    7.712730   6.608541   5.307374   5.352154   6.670017
    15  H    6.787236   5.556628   4.426178   4.860361   6.231602
    16  C    6.847540   5.971279   4.712338   4.489319   5.603612
    17  H    4.860090   4.076494   2.996835   2.909918   3.931997
    18  H    8.656774   7.526835   6.240710   6.301447   7.618137
    19  H    7.247301   6.511094   5.323415   4.958661   5.893186
    20  C    4.693071   3.515154   3.609934   4.848188   5.754010
    21  C    4.770331   3.770716   3.667618   4.622433   5.462768
    22  C    4.717055   3.744653   4.309903   5.609599   6.293782
    23  C    4.841350   4.175188   4.365107   5.179094   5.722802
    24  H    5.188227   4.163445   3.686238   4.425534   5.396316
    25  C    4.788432   4.151310   4.906876   6.060115   6.505441
    26  H    5.110392   4.132135   4.788002   6.157666   6.846263
    27  H    5.300632   4.806093   4.877596   5.443585   5.878136
    28  H    5.219896   4.773206   5.713750   6.860621   7.170556
    29  C    1.394506   2.412177   2.789934   2.415966   1.394870
    30  H    2.153268   3.396287   3.876374   3.398921   2.153200
    31  O    4.740015   3.501769   2.776869   3.664043   4.860926
    32  C    5.250521   3.894360   3.642428   4.889124   6.021493
    33  C    5.606847   4.278123   4.249897   5.573777   6.644771
    34  C    6.479555   5.126757   4.592963   5.637920   6.888110
    35  C    6.798669   5.459877   5.264016   6.492235   7.649890
    36  H    5.122852   3.908546   4.203052   5.576870   6.481803
    37  C    7.514919   6.129386   5.538320   6.547807   7.857834
    38  H    6.738173   5.458345   4.836599   5.727263   6.954757
    39  H    7.304232   6.031586   5.946981   7.171914   8.268521
    40  H    8.452147   7.076360   6.376568   7.268800   8.612308
    41  C    4.957735   3.990615   3.185495   3.612106   4.660592
    42  H    4.207756   3.459804   2.881717   3.219379   4.014453
    43  H    5.842039   4.883953   4.216860   4.690974   5.683925
    44  H    5.377087   4.473601   3.396891   3.463908   4.575122
    45  N    4.835898   4.328107   4.905823   5.846121   6.223630
    46  N    7.639625   6.256436   5.804548   6.901481   8.174339
    47  C    7.832244   6.851479   5.536445   5.380105   6.585974
    48  H    8.847345   7.906037   6.587055   6.344307   7.487204
    49  H    8.562456   7.186251   6.701766   7.748402   9.037994
    50  H    5.260003   4.989093   5.653590   6.475400   6.678216
                    6          7          8          9         10
     6  H    0.000000
     7  H    2.465382   0.000000
     8  H    4.968104   4.319431   0.000000
     9  H    4.301742   4.963448   2.465287   0.000000
    10  P    4.899874   2.864021   2.994699   4.974690   0.000000
    11  C    6.308419   4.538556   2.822732   5.214054   1.803133
    12  C    7.522234   5.629286   3.831414   6.294474   2.765936
    13  C    6.510190   5.066788   2.788251   4.951140   2.796182
    14  C    8.699488   6.907199   4.579855   7.001848   4.067131
    15  H    7.680184   5.663541   4.379616   6.791862   2.894139
    16  C    7.842712   6.456487   3.755300   5.829825   4.085795
    17  H    5.808756   4.625936   2.626789   4.387735   2.948928
    18  H    9.635072   7.776628   5.507246   7.923814   4.912853
    19  H    8.223040   7.054992   4.252827   6.000107   4.941360
    20  C    5.067214   2.927845   5.333506   6.739704   2.925779
    21  C    5.247254   3.529892   5.021097   6.338372   3.268161
    22  C    4.784981   2.886379   6.278187   7.335421   3.967769
    23  C    5.135343   3.974470   5.704262   6.555701   4.423551
    24  H    5.831408   4.134030   4.595865   6.161277   3.105713
    25  C    4.669672   3.426674   6.816806   7.505658   4.953802
    26  H    5.074401   3.118151   6.845185   7.918030   4.341648
    27  H    5.635310   4.794661   5.885909   6.579244   5.078033
    28  H    4.876843   3.986717   7.691169   8.173812   5.876894
    29  C    2.156797   3.393756   3.396676   2.156071   4.598744
    30  H    2.484125   4.288786   4.290321   2.482208   5.685041
    31  O    5.493278   3.474143   3.761771   5.678276   1.617009
    32  C    5.762572   3.353341   5.179507   6.977949   2.290462
    33  C    5.981980   3.534746   5.936898   7.643465   2.974461
    34  C    7.082770   4.730274   5.674927   7.740430   2.991489
    35  C    7.211074   4.784601   6.700070   8.596203   3.768093
    36  H    5.343887   3.015539   6.106553   7.524790   3.335039
    37  C    8.122059   5.699924   6.478412   8.682008   3.783209
    38  H    7.384231   5.188643   5.684324   7.735819   3.396237
    39  H    7.634276   5.306623   7.415977   9.219859   4.577614
    40  H    9.103754   6.712271   7.071840   9.368976   4.607172
    41  C    5.765964   4.227754   3.571173   5.305921   2.669244
    42  H    4.974368   3.812770   3.416925   4.680013   3.002341
    43  H    6.558747   4.975099   4.633113   6.305637   3.541244
    44  H    6.298759   4.886750   3.100480   5.046636   2.898860
    45  N    4.841527   3.905027   6.539844   7.126101   5.109889
    46  N    8.168977   5.715280   6.914544   9.044216   4.087605
    47  C    8.840600   7.260406   4.548690   6.798601   4.589325
    48  H    9.862921   8.332183   5.461072   7.601916   5.675231
    49  H    9.092100   6.651652   7.696144   9.878146   4.970451
    50  H    5.136216   4.639499   7.203081   7.519399   6.036956
                   11         12         13         14         15
    11  C    0.000000
    12  C    1.400821   0.000000
    13  C    1.402320   2.424532   0.000000
    14  C    2.419142   1.393077   2.792669   0.000000
    15  H    2.163050   1.086670   3.412040   2.150246   0.000000
    16  C    2.418547   2.792018   1.391152   2.416636   3.878662
    17  H    2.167068   3.413620   1.087018   3.879645   4.316785
    18  H    3.401817   2.148891   3.878899   1.086233   2.469547
    19  H    3.401624   3.878243   2.147251   3.401923   4.964885
    20  C    4.001517   4.935310   4.374890   5.991274   5.112270
    21  C    3.854798   4.959705   3.757596   5.802932   5.419726
    22  C    5.293003   6.228688   5.688190   7.346776   6.296428
    23  C    5.032608   6.225941   4.701244   7.003498   6.743414
    24  H    3.166808   4.244931   2.856516   4.921838   4.864274
    25  C    6.183841   7.259888   6.323644   8.305424   7.454702
    26  H    5.815718   6.610319   6.410887   7.803783   6.501399
    27  H    5.405095   6.626184   4.793433   7.241795   7.276880
    28  H    7.204914   8.270901   7.376359   9.351920   8.408345
    29  C    5.519124   6.741059   5.498768   7.737846   7.074080
    30  H    6.567398   7.786304   6.465989   8.741708   8.131168
    31  O    2.750136   3.028309   4.044121   4.410498   2.575986
    32  C    3.322661   3.918343   4.115279   5.062134   3.869870
    33  C    4.272783   4.624293   5.303440   5.866962   4.234863
    34  C    3.224779   3.455320   3.930612   4.320711   3.488469
    35  C    4.744390   4.691943   5.915727   5.837646   4.063096
    36  H    4.905694   5.396996   5.906276   6.708068   4.997337
    37  C    3.861153   3.587790   4.767142   4.338334   3.306407
    38  H    3.206856   3.541556   3.530204   4.141301   3.871014
    39  H    5.640651   5.506406   6.876592   6.659358   4.744369
    40  H    4.307584   3.790417   5.081045   4.202723   3.581030
    41  C    3.392976   3.506255   4.597571   4.742484   3.026404
    42  H    3.983344   4.374303   5.014696   5.604734   4.038018
    43  H    4.226281   4.051833   5.514407   5.225505   3.318719
    44  H    3.011396   2.981453   4.109374   4.039263   2.674758
    45  N    6.046194   7.227655   5.885301   8.128343   7.612388
    46  N    4.540183   4.187246   5.665135   5.105486   3.573322
    47  C    2.791887   2.414697   2.415144   1.393658   3.397416
    48  H    3.878291   3.398785   3.398368   2.153217   4.293095
    49  H    5.285206   4.710567   6.436605   5.486306   3.980163
    50  H    6.929174   8.150348   6.650021   9.006713   8.578768
                   16         17         18         19         20
    16  C    0.000000
    17  H    2.146619   0.000000
    18  H    3.402498   4.965873   0.000000
    19  H    1.086226   2.464571   4.301494   0.000000
    20  C    5.536491   4.107699   6.826448   6.107333   0.000000
    21  C    4.815749   3.276906   6.743390   5.180954   1.402122
    22  C    6.892323   5.311551   8.158791   7.421948   1.398873
    23  C    5.692175   3.979337   7.982691   5.841330   2.406337
    24  H    3.790257   2.474347   5.888231   4.140781   2.179201
    25  C    7.499943   5.741747   9.189017   7.862449   2.403899
    26  H    7.632540   6.138776   8.530953   8.253038   2.177469
    27  H    5.616391   3.963653   8.252400   5.561462   3.412456
    28  H    8.570019   6.769276  10.222011   8.921455   3.409296
    29  C    6.687239   4.795919   8.695794   6.974106   5.688573
    30  H    7.593796   5.713622   9.700327   7.791843   6.639923
    31  O    5.157582   4.410241   4.985704   6.130934   4.013604
    32  C    5.211981   4.221082   5.761364   5.996739   1.508840
    33  C    6.410980   5.474415   6.407226   7.278149   2.545836
    34  C    4.704232   4.293863   4.910119   5.504360   2.512191
    35  C    6.853865   6.296860   6.156421   7.803128   3.758561
    36  H    7.119959   5.937935   7.287906   7.955002   2.818751
    37  C    5.348243   5.337786   4.635564   6.239360   3.737684
    38  H    4.127166   3.854224   4.813047   4.794234   2.751377
    39  H    7.823993   7.262980   6.883319   8.799777   4.661860
    40  H    5.388573   5.763702   4.321786   6.241115   4.629002
    41  C    5.595196   4.992743   5.217673   6.550737   5.341668
    42  H    6.116219   5.199735   6.169122   6.980326   5.517761
    43  H    6.422711   5.995715   5.504810   7.424480   6.008633
    44  H    4.929013   4.627140   4.506194   5.873738   5.784472
    45  N    6.962394   5.161514   9.082030   7.155552   2.741138
    46  N    6.367024   6.222122   5.282382   7.327653   4.230977
    47  C    1.395705   3.397018   2.155704   2.157151   6.249010
    48  H    2.154359   4.290997   2.483827   2.484184   7.229182
    49  H    7.016837   7.079456   5.465573   7.997812   5.235407
    50  H    7.676893   5.839027   9.982965   7.759413   3.759962
                   21         22         23         24         25
    21  C    0.000000
    22  C    2.403268   0.000000
    23  C    1.375913   2.752128   0.000000
    24  H    1.083694   3.403467   2.113673   0.000000
    25  C    2.747419   1.379585   2.356405   3.830072   0.000000
    26  H    3.404075   1.082645   3.833538   4.332622   2.116392
    27  H    2.172070   3.832349   1.082638   2.485894   3.305257
    28  H    3.827756   2.173691   3.305689   4.909133   1.082751
    29  C    5.523918   5.916439   5.570626   5.723239   5.951448
    30  H    6.430189   6.753440   6.314947   6.663651   6.635982
    31  O    4.703367   4.814469   5.878169   4.627187   5.967189
    32  C    2.530982   2.532067   3.792333   2.772985   3.794082
    33  C    3.828450   2.930414   4.948947   4.206261   4.307368
    34  C    3.032403   3.670151   4.356366   2.849305   4.814791
    35  C    4.952596   4.194772   6.149719   5.163183   5.571719
    36  H    4.171486   2.748763   5.098751   4.732116   4.043861
    37  C    4.386893   4.726183   5.699672   4.170042   5.961567
    38  H    2.749684   4.018642   3.999813   2.290439   4.942623
    39  H    5.927756   4.882907   7.067414   6.201709   6.236900
    40  H    5.082079   5.666880   6.366048   4.708306   6.834946
    41  C    5.908890   6.087625   7.001214   5.760604   7.151254
    42  H    6.062640   6.097893   7.000777   6.031711   7.031856
    43  H    6.723729   6.676020   7.863259   6.609051   7.825064
    44  H    6.133204   6.697702   7.237248   5.798263   7.713759
    45  N    2.350532   2.353646   1.344400   3.318472   1.341473
    46  N    5.182637   4.953101   6.472194   5.149979   6.295630
    47  C    5.743103   7.637905   6.774079   4.733891   8.412344
    48  H    6.654209   8.624846   7.624510   5.609504   9.363625
    49  H    6.173440   5.911039   7.462199   6.098428   7.253200
    50  H    3.268541   3.270720   2.040195   4.144820   2.036398
                   26         27         28         29         30
    26  H    0.000000
    27  H    4.912423   0.000000
    28  H    2.486684   4.139328   0.000000
    29  C    6.401786   5.809263   6.442861   0.000000
    30  H    7.227132   6.465092   7.011778   1.086448   0.000000
    31  O    4.839504   6.622304   6.762191   5.306381   6.351918
    32  C    2.779285   4.699118   4.701311   6.171395   7.208386
    33  C    2.605191   5.941293   4.986499   6.659472   7.668677
    34  C    3.979034   5.087154   5.766406   7.247758   8.305050
    35  C    3.768228   7.105495   6.211186   7.782759   8.808943
    36  H    2.165755   6.137553   4.553312   6.293212   7.237218
    37  C    4.793095   6.432042   6.834976   8.278562   9.353486
    38  H    4.552380   4.547701   5.956166   7.392050   8.426364
    39  H    4.259827   8.057982   6.746425   8.327759   9.318022
    40  H    5.787869   6.990086   7.727108   9.135348  10.213884
    41  C    6.098517   7.659099   7.900883   5.243993   6.204060
    42  H    6.108093   7.647128   7.699704   4.450112   5.340190
    43  H    6.532880   8.581534   8.521797   6.195954   7.117420
    44  H    6.842900   7.772121   8.541304   5.421446   6.369623
    45  N    3.319438   2.071283   2.068534   5.772473   6.411936
    46  N    4.728038   7.321481   7.044699   8.496466   9.560533
    47  C    8.257313   6.803454   9.486552   7.715303   8.657564
    48  H    9.263285   7.561198  10.443682   8.660968   9.565758
    49  H    5.612577   8.297487   7.963959   9.398434  10.462543
    50  H    4.144230   2.322815   2.317764   6.119446   6.615574
                   31         32         33         34         35
    31  O    0.000000
    32  C    2.976388   0.000000
    33  C    2.894002   1.453271   0.000000
    34  C    3.645334   1.457147   2.436467   0.000000
    35  C    3.257196   2.445269   1.356413   2.755787   0.000000
    36  H    3.146979   2.209642   1.083585   3.438812   2.099605
    37  C    3.922616   2.448890   2.756688   1.357707   2.362124
    38  H    4.359188   2.214361   3.435996   1.083750   3.837247
    39  H    3.770520   3.446609   2.144194   3.835557   1.083293
    40  H    4.765203   3.450620   3.835935   2.144683   3.313749
    41  C    1.441745   4.405652   4.264988   5.013324   4.495014
    42  H    2.084756   4.827379   4.670988   5.659930   5.111683
    43  H    2.031055   4.918808   4.497599   5.455148   4.439611
    44  H    2.097981   4.862814   4.974379   5.241768   5.168427
    45  N    6.387913   4.249933   5.107478   5.059318   6.373606
    46  N    3.717745   2.812672   2.367802   2.367173   1.360804
    47  C    5.306398   5.615167   6.653791   4.874586   6.822421
    48  H    6.354792   6.614221   7.657857   5.763153   7.755649
    49  H    4.412561   3.825948   3.276838   3.277120   2.058406
    50  H    7.333914   5.268737   6.098911   6.050640   7.368819
                   36         37         38         39         40
    36  H    0.000000
    37  C    3.839279   0.000000
    38  H    4.367876   2.102997   0.000000
    39  H    2.454957   3.313277   4.914963   0.000000
    40  H    4.916912   1.083384   2.458143   4.151277   0.000000
    41  C    4.364353   5.191844   5.650738   4.805570   5.924398
    42  H    4.536081   6.004654   6.272654   5.371082   6.814705
    43  H    4.581104   5.382015   6.206721   4.527928   6.076067
    44  H    5.224002   5.420507   5.717877   5.587739   6.006606
    45  N    5.016375   6.337179   4.908134   7.165183   7.102681
    46  N    3.334619   1.359416   3.335402   2.079357   2.079339
    47  C    7.468294   5.165060   4.404296   7.731521   4.998727
    48  H    8.506258   5.959483   5.215215   8.654959   5.635024
    49  H    4.151520   2.057955   4.153646   2.338917   2.340411
    50  H    5.947871   7.331017   5.838050   8.134322   8.068142
                   41         42         43         44         45
    41  C    0.000000
    42  H    1.093408   0.000000
    43  H    1.090681   1.789273   0.000000
    44  H    1.094021   1.794117   1.788804   0.000000
    45  N    7.521076   7.405937   8.319223   7.919394   0.000000
    46  N    4.914524   5.723455   4.860655   5.344676   6.910925
    47  C    5.655486   6.367069   6.301129   4.899640   8.013062
    48  H    6.644182   7.370670   7.238741   5.831620   8.900474
    49  H    5.451142   6.325669   5.222279   5.847397   7.895851
    50  H    8.412676   8.227639   9.235757   8.796615   1.018838
                   46         47         48         49         50
    46  N    0.000000
    47  C    6.128166   0.000000
    48  H    6.957255   1.086417   0.000000
    49  H    1.013279   6.603282   7.345881   0.000000
    50  H    7.918353   8.797763   9.648097   8.897980   0.000000
 Stoichiometry    C23H23N2OP(2+)
 Framework group  C1[X(C23H23N2OP)]
 Deg. of freedom   144
 Full point group                 C1      NOp   1
 Largest Abelian subgroup         C1      NOp   1
 Largest concise Abelian subgroup C1      NOp   1
                         Standard orientation:                         
 ---------------------------------------------------------------------
 Center     Atomic      Atomic             Coordinates (Angstroms)
 Number     Number       Type             X           Y           Z
 ---------------------------------------------------------------------
      1          6           0        3.465284    1.762214   -1.174921
      2          6           0        2.332357    0.960636   -1.069413
      3          6           0        1.113210    1.518203   -0.659403
      4          6           0        1.035849    2.886412   -0.367153
      5          6           0        2.174144    3.681387   -0.470401
      6          1           0        4.407509    1.325628   -1.493249
      7          1           0        2.400689   -0.095542   -1.317011
      8          1           0        0.093652    3.335930   -0.067986
      9          1           0        2.111113    4.741836   -0.243822
     10         15           0       -0.321189    0.415934   -0.587362
     11          6           0       -1.577831    1.130836    0.490160
     12          6           0       -2.927143    0.988476    0.141749
     13          6           0       -1.234552    1.675706    1.735864
     14          6           0       -3.921099    1.418302    1.018085
     15          1           0       -3.203273    0.551176   -0.813956
     16          6           0       -2.232751    2.098608    2.607675
     17          1           0       -0.191784    1.775926    2.026037
     18          1           0       -4.965583    1.315073    0.738264
     19          1           0       -1.961322    2.529653    3.567057
     20          6           0        1.074159   -1.863547    0.603080
     21          6           0        1.204237   -1.181660    1.821298
     22          6           0        2.175284   -2.583864    0.128198
     23          6           0        2.401218   -1.205248    2.499396
     24          1           0        0.385222   -0.619358    2.254223
     25          6           0        3.356495   -2.579861    0.840925
     26          1           0        2.136621   -3.157343   -0.789270
     27          1           0        2.570283   -0.691777    3.437410
     28          1           0        4.246307   -3.110495    0.526263
     29          6           0        3.387472    3.120544   -0.869091
     30          1           0        4.273240    3.744961   -0.945821
     31          8           0       -0.964258    0.331030   -2.068568
     32          6           0       -0.225223   -1.832874   -0.163251
     33          6           0       -0.259552   -2.416381   -1.493791
     34          6           0       -1.427945   -2.087886    0.618866
     35          6           0       -1.416503   -2.894194   -2.016300
     36          1           0        0.618193   -2.388478   -2.128568
     37          6           0       -2.549913   -2.577734    0.031837
     38          1           0       -1.459777   -1.846780    1.674976
     39          1           0       -1.486177   -3.278135   -3.026873
     40          1           0       -3.471599   -2.737125    0.578472
     41          6           0       -1.191227    1.515426   -2.858708
     42          1           0       -0.234556    1.943095   -3.170834
     43          1           0       -1.755748    1.186419   -3.732009
     44          1           0       -1.770308    2.254456   -2.297121
     45          7           0        3.437973   -1.893519    1.990640
     46          7           0       -2.560479   -2.932775   -1.280354
     47          6           0       -3.575738    1.973033    2.249053
     48          1           0       -4.352446    2.306807    2.931418
     49          1           0       -3.401377   -3.327407   -1.685189
     50          1           0        4.319139   -1.900924    2.502032
 ---------------------------------------------------------------------
 Rotational constants (GHZ):           0.2126679           0.1875263           0.1466094
 Standard basis: 6-31+G(d) (6D, 7F)
 There are   563 symmetry adapted cartesian basis functions of A   symmetry.
 There are   563 symmetry adapted basis functions of A   symmetry.
   563 basis functions,   980 primitive gaussians,   563 cartesian basis functions
    98 alpha electrons       98 beta electrons
       nuclear repulsion energy      2685.9742022706 Hartrees.
 NAtoms=   50 NActive=   50 NUniq=   50 SFac= 1.00D+00 NAtFMM=   60 NAOKFM=F Big=F
 Integral buffers will be    131072 words long.
 Raffenetti 2 integral format.
 Two-electron integral symmetry is turned on.
 Nuclear repulsion after empirical dispersion term =     2685.9274010851 Hartrees.
 Force inversion solution in PCM.
 ------------------------------------------------------------------------------
 Polarizable Continuum Model (PCM)
 =================================
 Model                : PCM.
 Atomic radii         : SMD-Coulomb.
 Polarization charges : Total charges.
 Charge compensation  : None.
 Solution method      : Matrix inversion.
 Cavity type          : VdW (van der Waals Surface) (Alpha=1.000).
 Cavity algorithm     : GePol (No added spheres)
                        Default sphere list used, NSphG=   50.
                        Lebedev-Laikov grids with approx.  5.0 points / Ang**2.
                        Smoothing algorithm: York/Karplus (Gamma=1.0000).
                        Polarization charges: spherical gaussians, with
                                              point-specific exponents (IZeta= 3).
                        Self-potential: point-specific (ISelfS= 7).
                        Self-field    : sphere-specific E.n sum rule (ISelfD= 2).
 1st derivatives      : Analytical E(r).r(x)/FMM algorithm (CHGder, D1EAlg=3).
                        Cavity 1st derivative terms included.
 2nd derivatives      : Analytical E(r).r(xy)/FMM algorithm (CHGder, D2EAlg=3).
                        Cavity 2nd derivative terms included.
 Solvent              : Ethanol, Eps=  24.852000 Eps(inf)=   1.852593
 ------------------------------------------------------------------------------
 ------------------------------------------------------------------------------
 Atomic radii for non-electrostatic terms: SMD-CDS.
 ------------------------------------------------------------------------------
 Nuclear repulsion after PCM non-electrostatic terms =     2685.9263396205 Hartrees.
 One-electron integrals computed using PRISM.
 NBasis=   563 RedAO= T EigKep=  1.04D-06  NBF=   563
 NBsUse=   561 1.00D-06 EigRej=  8.39D-07 NBFU=   561
 ExpMin= 3.48D-02 ExpMax= 1.94D+04 ExpMxC= 2.91D+03 IAcc=3 IRadAn=         5 AccDes= 0.00D+00
 Harris functional with IExCor= 4639 and IRadAn=       5 diagonalized for initial guess.
 HarFok:  IExCor= 4639 AccDes= 0.00D+00 IRadAn=         5 IDoV= 1 UseB2=F ITyADJ=14
 ICtDFT=  3500011 ScaDFX=  1.000000  1.000000  1.000000  1.000000
 FoFCou: FMM=F IPFlag=           0 FMFlag=      100000 FMFlg1=           0
         NFxFlg=           0 DoJE=T BraDBF=F KetDBF=T FulRan=T
         wScrn=  0.000000 ICntrl=       500 IOpCl=  0 I1Cent=   200000004 NGrid=           0
         NMat0=    1 NMatS0=      1 NMatT0=    0 NMatD0=    1 NMtDS0=    0 NMtDT0=    0
 Petite list used in FoFCou.
 Requested convergence on RMS density matrix=1.00D-08 within 128 cycles.
 Requested convergence on MAX density matrix=1.00D-06.
 Requested convergence on             energy=1.00D-06.
 No special actions if energy rises.
 Inv3:  Mode=1 IEnd=    41492883.
 Iteration    1 A*A^-1 deviation from unit magnitude is 8.99D-15 for    155.
 Iteration    1 A*A^-1 deviation from orthogonality  is 3.21D-15 for   2823    935.
 Iteration    1 A^-1*A deviation from unit magnitude is 9.21D-15 for    155.
 Iteration    1 A^-1*A deviation from orthogonality  is 6.55D-15 for   3015   2967.
 Error on total polarization charges =  0.05722
 SCF Done:  E(RwB97XD) =  -1415.73421233     A.U. after   18 cycles
            NFock= 18  Conv=0.43D-08     -V/T= 2.0081
 SMD-CDS (non-electrostatic) energy       (kcal/mol) =      -0.67
 (included in total energy above)
 DoSCS=F DFT=T ScalE2(SS,OS)=  1.000000  1.000000
 Range of M.O.s used for correlation:     1   561
 NBasis=   563 NAE=    98 NBE=    98 NFC=     0 NFV=     0
 NROrb=    561 NOA=    98 NOB=    98 NVA=   463 NVB=   463

 **** Warning!!: The largest alpha MO coefficient is  0.13619409D+03

 Symmetrizing basis deriv contribution to polar:
 IMax=3 JMax=2 DiffMx= 0.00D+00
 G2DrvN: will do    51 centers at a time, making    1 passes.
 Calling FoFCou, ICntrl=  3107 FMM=F I1Cent=   0 AccDes= 0.00D+00.
 NEqPCM:  Using equilibrium solvation (IEInf=0, Eps=  24.8520, EpsInf=   1.8526)
 G2PCM: DoFxE=T DoFxN=T DoGrad=T DoDP/DQ/DG/TGxP=FFFF NFrqRd=   0 IEInf=0 SqF1=F DoCFld=F IF1Alg=4.
 End of G2Drv F.D. properties file   721 does not exist.
 End of G2Drv F.D. properties file   722 does not exist.
 End of G2Drv F.D. properties file   788 does not exist.
          IDoAtm=11111111111111111111111111111111111111111111111111
 NEqPCM:  Using equilibrium solvation (IEInf=0, Eps=  24.8520, EpsInf=   1.8526)
          Differentiating once with respect to electric field.
                with respect to dipole field.
          Differentiating once with respect to nuclear coordinates.
 CalDSu exits because no D1Ps are significant.
          There are   153 degrees of freedom in the 1st order CPHF.  IDoFFX=6 NUNeed=     3.
    150 vectors produced by pass  0 Test12= 4.54D-14 1.00D-09 XBig12= 1.92D+02 5.40D+00.
 AX will form   150 AO Fock derivatives at one time.
    150 vectors produced by pass  1 Test12= 4.54D-14 1.00D-09 XBig12= 1.09D+01 6.47D-01.
    150 vectors produced by pass  2 Test12= 4.54D-14 1.00D-09 XBig12= 2.99D-01 6.95D-02.
    150 vectors produced by pass  3 Test12= 4.54D-14 1.00D-09 XBig12= 3.66D-03 6.41D-03.
    150 vectors produced by pass  4 Test12= 4.54D-14 1.00D-09 XBig12= 2.87D-05 5.12D-04.
    150 vectors produced by pass  5 Test12= 4.54D-14 1.00D-09 XBig12= 2.07D-07 3.31D-05.
    150 vectors produced by pass  6 Test12= 4.54D-14 1.00D-09 XBig12= 1.29D-09 2.24D-06.
     61 vectors produced by pass  7 Test12= 4.54D-14 1.00D-09 XBig12= 7.25D-12 1.57D-07.
      3 vectors produced by pass  8 Test12= 4.54D-14 1.00D-09 XBig12= 6.97D-14 1.25D-08.
      3 vectors produced by pass  9 Test12= 4.54D-14 1.00D-09 XBig12= 1.30D-14 1.26D-08.
      3 vectors produced by pass 10 Test12= 4.54D-14 1.00D-09 XBig12= 1.11D-15 2.33D-09.
      3 vectors produced by pass 11 Test12= 4.54D-14 1.00D-09 XBig12= 7.04D-16 2.09D-09.
      3 vectors produced by pass 12 Test12= 4.54D-14 1.00D-09 XBig12= 1.10D-15 2.23D-09.
      3 vectors produced by pass 13 Test12= 4.54D-14 1.00D-09 XBig12= 2.65D-15 4.88D-09.
      3 vectors produced by pass 14 Test12= 4.54D-14 1.00D-09 XBig12= 7.69D-16 2.00D-09.
      3 vectors produced by pass 15 Test12= 4.54D-14 1.00D-09 XBig12= 8.21D-16 1.61D-09.
      3 vectors produced by pass 16 Test12= 4.54D-14 1.00D-09 XBig12= 1.82D-15 3.80D-09.
      3 vectors produced by pass 17 Test12= 4.54D-14 1.00D-09 XBig12= 7.31D-16 1.65D-09.
      3 vectors produced by pass 18 Test12= 4.54D-14 1.00D-09 XBig12= 1.83D-15 2.81D-09.
      3 vectors produced by pass 19 Test12= 4.54D-14 1.00D-09 XBig12= 1.32D-15 2.12D-09.
      3 vectors produced by pass 20 Test12= 4.54D-14 1.00D-09 XBig12= 1.68D-15 4.05D-09.
      3 vectors produced by pass 21 Test12= 4.54D-14 1.00D-09 XBig12= 7.13D-16 1.56D-09.
      3 vectors produced by pass 22 Test12= 4.54D-14 1.00D-09 XBig12= 1.79D-15 2.26D-09.
      3 vectors produced by pass 23 Test12= 4.54D-14 1.00D-09 XBig12= 3.76D-15 3.32D-09.
      1 vectors produced by pass 24 Test12= 4.54D-14 1.00D-09 XBig12= 7.97D-16 1.92D-09.
 InvSVY:  IOpt=1 It=  1 EMax= 1.42D-14
 Solved reduced A of dimension  1160 with   153 vectors.
 Isotropic polarizability for W=    0.000000      450.22 Bohr**3.
 End of Minotr F.D. properties file   721 does not exist.
 End of Minotr F.D. properties file   722 does not exist.
 End of Minotr F.D. properties file   788 does not exist.

 **********************************************************************

            Population analysis using the SCF density.

 **********************************************************************

 Orbital symmetries:
       Occupied  (A) (A) (A) (A) (A) (A) (A) (A) (A) (A) (A) (A)
                 (A) (A) (A) (A) (A) (A) (A) (A) (A) (A) (A) (A)
                 (A) (A) (A) (A) (A) (A) (A) (A) (A) (A) (A) (A)
                 (A) (A) (A) (A) (A) (A) (A) (A) (A) (A) (A) (A)
                 (A) (A) (A) (A) (A) (A) (A) (A) (A) (A) (A) (A)
                 (A) (A) (A) (A) (A) (A) (A) (A) (A) (A) (A) (A)
                 (A) (A) (A) (A) (A) (A) (A) (A) (A) (A) (A) (A)
                 (A) (A) (A) (A) (A) (A) (A) (A) (A) (A) (A) (A)
                 (A) (A)
       Virtual   (A) (A) (A) (A) (A) (A) (A) (A) (A) (A) (A) (A)
                 (A) (A) (A) (A) (A) (A) (A) (A) (A) (A) (A) (A)
                 (A) (A) (A) (A) (A) (A) (A) (A) (A) (A) (A) (A)
                 (A) (A) (A) (A) (A) (A) (A) (A) (A) (A) (A) (A)
                 (A) (A) (A) (A) (A) (A) (A) (A) (A) (A) (A) (A)
                 (A) (A) (A) (A) (A) (A) (A) (A) (A) (A) (A) (A)
                 (A) (A) (A) (A) (A) (A) (A) (A) (A) (A) (A) (A)
                 (A) (A) (A) (A) (A) (A) (A) (A) (A) (A) (A) (A)
                 (A) (A) (A) (A) (A) (A) (A) (A) (A) (A) (A) (A)
                 (A) (A) (A) (A) (A) (A) (A) (A) (A) (A) (A) (A)
                 (A) (A) (A) (A) (A) (A) (A) (A) (A) (A) (A) (A)
                 (A) (A) (A) (A) (A) (A) (A) (A) (A) (A) (A) (A)
                 (A) (A) (A) (A) (A) (A) (A) (A) (A) (A) (A) (A)
                 (A) (A) (A) (A) (A) (A) (A) (A) (A) (A) (A) (A)
                 (A) (A) (A) (A) (A) (A) (A) (A) (A) (A) (A) (A)
                 (A) (A) (A) (A) (A) (A) (A) (A) (A) (A) (A) (A)
                 (A) (A) (A) (A) (A) (A) (A) (A) (A) (A) (A) (A)
                 (A) (A) (A) (A) (A) (A) (A) (A) (A) (A) (A) (A)
                 (A) (A) (A) (A) (A) (A) (A) (A) (A) (A) (A) (A)
                 (A) (A) (A) (A) (A) (A) (A) (A) (A) (A) (A) (A)
                 (A) (A) (A) (A) (A) (A) (A) (A) (A) (A) (A) (A)
                 (A) (A) (A) (A) (A) (A) (A) (A) (A) (A) (A) (A)
                 (A) (A) (A) (A) (A) (A) (A) (A) (A) (A) (A) (A)
                 (A) (A) (A) (A) (A) (A) (A) (A) (A) (A) (A) (A)
                 (A) (A) (A) (A) (A) (A) (A) (A) (A) (A) (A) (A)
                 (A) (A) (A) (A) (A) (A) (A) (A) (A) (A) (A) (A)
                 (A) (A) (A) (A) (A) (A) (A) (A) (A) (A) (A) (A)
                 (A) (A) (A) (A) (A) (A) (A) (A) (A) (A) (A) (A)
                 (A) (A) (A) (A) (A) (A) (A) (A) (A) (A) (A) (A)
                 (A) (A) (A) (A) (A) (A) (A) (A) (A) (A) (A) (A)
                 (A) (A) (A) (A) (A) (A) (A) (A) (A) (A) (A) (A)
                 (A) (A) (A) (A) (A) (A) (A) (A) (A) (A) (A) (A)
                 (A) (A) (A) (A) (A) (A) (A) (A) (A) (A) (A) (A)
                 (A) (A) (A) (A) (A) (A) (A) (A) (A) (A) (A) (A)
                 (A) (A) (A) (A) (A) (A) (A) (A) (A) (A) (A) (A)
                 (A) (A) (A) (A) (A) (A) (A) (A) (A) (A) (A) (A)
                 (A) (A) (A) (A) (A) (A) (A) (A) (A) (A) (A) (A)
                 (A) (A) (A) (A) (A) (A) (A) (A) (A) (A) (A) (A)
                 (A) (A) (A) (A) (A) (A) (A)
 The electronic state is 1-A.
 Alpha  occ. eigenvalues --  -77.33827 -19.32818 -14.58120 -14.53329 -10.40080
 Alpha  occ. eigenvalues --  -10.39978 -10.39648 -10.38610 -10.37262 -10.37106
 Alpha  occ. eigenvalues --  -10.35533 -10.35425 -10.35370 -10.33992 -10.33746
 Alpha  occ. eigenvalues --  -10.33089 -10.33006 -10.32880 -10.32793 -10.32720
 Alpha  occ. eigenvalues --  -10.32521 -10.32448 -10.32192 -10.32129 -10.32091
 Alpha  occ. eigenvalues --  -10.32006 -10.31959  -6.75998  -4.90992  -4.90690
 Alpha  occ. eigenvalues --   -4.90479  -1.17090  -1.14918  -1.10762  -0.99485
 Alpha  occ. eigenvalues --   -0.98316  -0.97790  -0.93192  -0.92768  -0.89955
 Alpha  occ. eigenvalues --   -0.89059  -0.86858  -0.86687  -0.86340  -0.82598
 Alpha  occ. eigenvalues --   -0.82017  -0.79600  -0.75650  -0.75488  -0.74482
 Alpha  occ. eigenvalues --   -0.72123  -0.71878  -0.71289  -0.71026  -0.68503
 Alpha  occ. eigenvalues --   -0.67671  -0.64296  -0.63104  -0.62768  -0.62231
 Alpha  occ. eigenvalues --   -0.59835  -0.59420  -0.58362  -0.58224  -0.57155
 Alpha  occ. eigenvalues --   -0.56918  -0.56607  -0.56368  -0.55843  -0.55402
 Alpha  occ. eigenvalues --   -0.54987  -0.54458  -0.53917  -0.53116  -0.52598
 Alpha  occ. eigenvalues --   -0.52449  -0.52004  -0.51039  -0.50145  -0.48780
 Alpha  occ. eigenvalues --   -0.48190  -0.47925  -0.47076  -0.46419  -0.45976
 Alpha  occ. eigenvalues --   -0.44572  -0.44384  -0.43803  -0.43307  -0.40573
 Alpha  occ. eigenvalues --   -0.39468  -0.39094  -0.37586  -0.35890  -0.35395
 Alpha  occ. eigenvalues --   -0.34966  -0.34659  -0.29069
 Alpha virt. eigenvalues --   -0.04072  -0.00572   0.01240   0.01757   0.02801
 Alpha virt. eigenvalues --    0.03640   0.04340   0.04675   0.05142   0.05600
 Alpha virt. eigenvalues --    0.06179   0.06566   0.07465   0.07883   0.08191
 Alpha virt. eigenvalues --    0.08366   0.08661   0.09529   0.09731   0.09950
 Alpha virt. eigenvalues --    0.10118   0.10247   0.10307   0.10815   0.11084
 Alpha virt. eigenvalues --    0.11782   0.11956   0.12351   0.12620   0.12810
 Alpha virt. eigenvalues --    0.13191   0.13606   0.13700   0.14249   0.14683
 Alpha virt. eigenvalues --    0.14948   0.15024   0.15470   0.15847   0.16064
 Alpha virt. eigenvalues --    0.16652   0.17026   0.17390   0.17537   0.17848
 Alpha virt. eigenvalues --    0.17961   0.18189   0.18390   0.18881   0.19002
 Alpha virt. eigenvalues --    0.19217   0.19483   0.19908   0.20020   0.20233
 Alpha virt. eigenvalues --    0.20426   0.20549   0.20734   0.21081   0.21553
 Alpha virt. eigenvalues --    0.21841   0.21897   0.22440   0.22638   0.22954
 Alpha virt. eigenvalues --    0.23321   0.23523   0.23632   0.23802   0.23958
 Alpha virt. eigenvalues --    0.24272   0.24443   0.24607   0.24971   0.25429
 Alpha virt. eigenvalues --    0.25523   0.25886   0.26197   0.26250   0.26466
 Alpha virt. eigenvalues --    0.26805   0.26872   0.27158   0.27276   0.27597
 Alpha virt. eigenvalues --    0.27815   0.28197   0.28535   0.28602   0.28879
 Alpha virt. eigenvalues --    0.29169   0.29293   0.29539   0.29894   0.30121
 Alpha virt. eigenvalues --    0.30332   0.30698   0.30824   0.31293   0.31540
 Alpha virt. eigenvalues --    0.31713   0.31848   0.32013   0.32217   0.32675
 Alpha virt. eigenvalues --    0.32951   0.33050   0.33217   0.33596   0.33752
 Alpha virt. eigenvalues --    0.33855   0.34166   0.34657   0.34689   0.35220
 Alpha virt. eigenvalues --    0.35468   0.35563   0.35859   0.36125   0.36480
 Alpha virt. eigenvalues --    0.36677   0.36926   0.37246   0.37800   0.37876
 Alpha virt. eigenvalues --    0.38045   0.38280   0.38566   0.38805   0.38896
 Alpha virt. eigenvalues --    0.39352   0.39912   0.40320   0.40385   0.40828
 Alpha virt. eigenvalues --    0.41294   0.41467   0.41642   0.42003   0.42821
 Alpha virt. eigenvalues --    0.43209   0.43639   0.43886   0.44269   0.45171
 Alpha virt. eigenvalues --    0.45398   0.45685   0.45939   0.46346   0.47112
 Alpha virt. eigenvalues --    0.47441   0.47898   0.48906   0.49347   0.49894
 Alpha virt. eigenvalues --    0.50714   0.51311   0.52603   0.53598   0.54504
 Alpha virt. eigenvalues --    0.55058   0.56836   0.59174   0.60516   0.63451
 Alpha virt. eigenvalues --    0.63752   0.64667   0.65718   0.66692   0.67099
 Alpha virt. eigenvalues --    0.69705   0.71475   0.73749   0.74727   0.75719
 Alpha virt. eigenvalues --    0.76359   0.77372   0.77612   0.77940   0.78064
 Alpha virt. eigenvalues --    0.78986   0.79170   0.79700   0.80319   0.80696
 Alpha virt. eigenvalues --    0.81045   0.81558   0.81774   0.82272   0.82920
 Alpha virt. eigenvalues --    0.83250   0.84130   0.84403   0.84756   0.85642
 Alpha virt. eigenvalues --    0.86032   0.86672   0.86879   0.87231   0.88018
 Alpha virt. eigenvalues --    0.89010   0.89725   0.90177   0.90346   0.90891
 Alpha virt. eigenvalues --    0.91133   0.92060   0.92829   0.93457   0.94108
 Alpha virt. eigenvalues --    0.94622   0.95345   0.95939   0.96535   0.97732
 Alpha virt. eigenvalues --    0.97756   0.97988   0.98533   0.99322   0.99494
 Alpha virt. eigenvalues --    1.00147   1.00847   1.01061   1.01675   1.01940
 Alpha virt. eigenvalues --    1.02295   1.03253   1.03632   1.03835   1.04527
 Alpha virt. eigenvalues --    1.05137   1.05996   1.06030   1.06214   1.07308
 Alpha virt. eigenvalues --    1.07694   1.08372   1.09176   1.09503   1.10568
 Alpha virt. eigenvalues --    1.10769   1.11050   1.11728   1.12585   1.12900
 Alpha virt. eigenvalues --    1.13219   1.13491   1.14306   1.14923   1.15613
 Alpha virt. eigenvalues --    1.16321   1.16825   1.17806   1.18338   1.19092
 Alpha virt. eigenvalues --    1.20007   1.20692   1.21406   1.22631   1.23052
 Alpha virt. eigenvalues --    1.23598   1.24292   1.25530   1.25955   1.26345
 Alpha virt. eigenvalues --    1.27157   1.27616   1.27730   1.28937   1.29581
 Alpha virt. eigenvalues --    1.30092   1.30377   1.31155   1.32018   1.32431
 Alpha virt. eigenvalues --    1.33726   1.34025   1.34693   1.35941   1.36521
 Alpha virt. eigenvalues --    1.38087   1.39699   1.40894   1.42294   1.43794
 Alpha virt. eigenvalues --    1.44060   1.45380   1.46410   1.47328   1.47939
 Alpha virt. eigenvalues --    1.48963   1.49156   1.50361   1.50776   1.51440
 Alpha virt. eigenvalues --    1.52010   1.52730   1.52972   1.53467   1.54361
 Alpha virt. eigenvalues --    1.54740   1.54910   1.55807   1.55985   1.55994
 Alpha virt. eigenvalues --    1.56090   1.56724   1.57206   1.58043   1.58763
 Alpha virt. eigenvalues --    1.59304   1.60069   1.61468   1.61739   1.64483
 Alpha virt. eigenvalues --    1.64833   1.65491   1.66078   1.68008   1.69046
 Alpha virt. eigenvalues --    1.71151   1.72237   1.75087   1.76865   1.80219
 Alpha virt. eigenvalues --    1.84376   1.86586   1.88429   1.90199   1.91208
 Alpha virt. eigenvalues --    1.92473   1.93697   1.94212   1.94933   1.95913
 Alpha virt. eigenvalues --    1.96996   1.98222   1.98396   1.99786   2.02276
 Alpha virt. eigenvalues --    2.04304   2.04997   2.06329   2.06723   2.07418
 Alpha virt. eigenvalues --    2.08735   2.09468   2.10466   2.11154   2.12515
 Alpha virt. eigenvalues --    2.13051   2.14155   2.17277   2.17736   2.18504
 Alpha virt. eigenvalues --    2.19712   2.20638   2.20922   2.21794   2.22349
 Alpha virt. eigenvalues --    2.22565   2.22699   2.22898   2.23638   2.24402
 Alpha virt. eigenvalues --    2.24912   2.25240   2.25986   2.26468   2.27373
 Alpha virt. eigenvalues --    2.28103   2.28503   2.29308   2.30047   2.30529
 Alpha virt. eigenvalues --    2.30834   2.32374   2.33355   2.34385   2.35705
 Alpha virt. eigenvalues --    2.36433   2.36938   2.37118   2.37372   2.38414
 Alpha virt. eigenvalues --    2.38675   2.39465   2.40670   2.41550   2.42064
 Alpha virt. eigenvalues --    2.46226   2.46456   2.47948   2.53892   2.63829
 Alpha virt. eigenvalues --    2.65074   2.67763   2.68098   2.70128   2.70682
 Alpha virt. eigenvalues --    2.71072   2.71273   2.71548   2.72299   2.72933
 Alpha virt. eigenvalues --    2.73571   2.74427   2.74736   2.75787   2.77162
 Alpha virt. eigenvalues --    2.79266   2.80349   2.80751   2.81968   2.84056
 Alpha virt. eigenvalues --    2.84223   2.85013   2.86628   2.86654   2.88040
 Alpha virt. eigenvalues --    2.89636   2.89892   2.92664   2.92940   2.94868
 Alpha virt. eigenvalues --    2.96908   2.97860   3.06117   3.07476   3.13219
 Alpha virt. eigenvalues --    3.14343   3.22130   3.43755   3.45196   3.46980
 Alpha virt. eigenvalues --    3.53042   3.72331   4.28566   4.33111   4.37508
 Alpha virt. eigenvalues --    4.37579   4.38943   4.39973   4.41877   4.44358
 Alpha virt. eigenvalues --    4.45175   4.46341   4.46630   4.47851   4.49169
 Alpha virt. eigenvalues --    4.50367   4.52309   4.55036   4.56416   4.56750
 Alpha virt. eigenvalues --    4.59647   4.61678   4.67980   4.71053   4.75579
 Alpha virt. eigenvalues --    4.79614   4.80093   4.93579
          Condensed to atoms (all electrons):
               1          2          3          4          5          6
     1  C   13.398175  -6.344356   0.831146  -1.750063   1.453699   0.318008
     2  C   -6.344356  33.667712 -13.752205  -9.907744  -3.553222  -0.056327
     3  C    0.831146 -13.752205  26.442198  -2.321584   1.642619   0.052931
     4  C   -1.750063  -9.907744  -2.321584  24.213053  -5.178426   0.017399
     5  C    1.453699  -3.553222   1.642619  -5.178426  13.904711  -0.014953
     6  H    0.318008  -0.056327   0.052931   0.017399  -0.014953   0.436643
     7  H   -0.035323   0.124436   0.109708   0.032949  -0.003352  -0.003110
     8  H    0.013311   0.008973   0.026832   0.262609  -0.046711   0.000012
     9  H   -0.011825   0.017742   0.050137  -0.004466   0.263696  -0.000104
    10  P   -1.854547   5.124673  -6.076920  -0.412673  -1.793406  -0.001409
    11  C    0.380095  -0.280131   0.077356   0.348735  -0.540927   0.000420
    12  C    0.008716   1.481001   0.237015  -1.771092   0.018142  -0.000285
    13  C   -0.004814  -2.034819   0.441172   1.542490   0.298491   0.000322
    14  C   -0.045075  -0.052587  -0.138074   0.195066   0.104550  -0.000008
    15  H   -0.000085  -0.004221   0.004047   0.004926   0.000500  -0.000000
    16  C    0.080207  -0.340224   0.011330   0.383606   0.282439  -0.000023
    17  H   -0.001030  -0.048182   0.029258   0.057139   0.005473   0.000000
    18  H   -0.000002  -0.000164   0.000639  -0.000027  -0.000016  -0.000000
    19  H    0.000123   0.000925   0.006028  -0.005353  -0.001181  -0.000000
    20  C    0.476214  -0.050763   0.297347  -0.611394   0.098207   0.000922
    21  C   -0.067490  -0.626601   0.950282   0.229883   0.031065  -0.001095
    22  C    0.122434   1.708618  -2.413019  -0.217033  -0.141034  -0.001946
    23  C   -0.018365   0.079210   0.209048  -0.062395   0.008508  -0.000124
    24  H   -0.007596   0.006053  -0.024416   0.006392  -0.005515   0.000000
    25  C    0.161665  -0.508127   0.473363   0.066574   0.035167   0.001656
    26  H   -0.001510   0.000109   0.006701   0.000197   0.000323   0.000000
    27  H    0.000533   0.006128  -0.006849  -0.003112   0.000637  -0.000000
    28  H   -0.002550  -0.000268   0.003780   0.000202  -0.000007   0.000000
    29  C   -0.530925   2.100093  -2.657832   0.907886  -0.688569  -0.005707
    30  H    0.006178   0.007312   0.000333  -0.023016   0.023721  -0.002812
    31  O    0.097915   0.018081   0.228106  -0.205846  -0.000095  -0.000024
    32  C   -0.261094   1.403411  -0.610847  -0.656329  -0.080294   0.000799
    33  C    0.112434  -0.555863  -0.259885   0.480644  -0.071836   0.000394
    34  C   -0.200827  -1.021202   1.503004   0.241022   0.100119  -0.000013
    35  C   -0.024142   0.002590   0.098702   0.003771  -0.013587  -0.000080
    36  H   -0.007045  -0.030202   0.021012   0.005159  -0.000012   0.000000
    37  C    0.042461  -0.105892   0.235999   0.000684   0.006800   0.000000
    38  H    0.000002   0.002952  -0.003178  -0.001705   0.000161   0.000000
    39  H   -0.000317  -0.001786   0.002163  -0.000013   0.000006  -0.000000
    40  H    0.000007  -0.000014   0.000350  -0.000097  -0.000012   0.000000
    41  C    0.090596  -0.232620   0.040692  -0.047112   0.194467  -0.000034
    42  H    0.001332  -0.015955   0.066077  -0.022591   0.020102  -0.000002
    43  H    0.001406   0.000691  -0.002326  -0.000992   0.000891   0.000000
    44  H    0.001502  -0.003861  -0.026157   0.011582  -0.011050  -0.000000
    45  N   -0.019460   0.075295  -0.078348  -0.008421  -0.001769  -0.000058
    46  N   -0.007408  -0.022557   0.003642   0.007491  -0.000015   0.000000
    47  C    0.009601  -0.029475   0.064226  -0.010831   0.015559   0.000001
    48  H   -0.000004   0.000072   0.000374  -0.000453   0.000003   0.000000
    49  H    0.000023   0.000524  -0.000730  -0.000077  -0.000002  -0.000000
    50  H    0.001415  -0.001195  -0.000170   0.000064  -0.000042   0.000000
               7          8          9         10         11         12
     1  C   -0.035323   0.013311  -0.011825  -1.854547   0.380095   0.008716
     2  C    0.124436   0.008973   0.017742   5.124673  -0.280131   1.481001
     3  C    0.109708   0.026832   0.050137  -6.076920   0.077356   0.237015
     4  C    0.032949   0.262609  -0.004466  -0.412673   0.348735  -1.771092
     5  C   -0.003352  -0.046711   0.263696  -1.793406  -0.540927   0.018142
     6  H   -0.003110   0.000012  -0.000104  -0.001409   0.000420  -0.000285
     7  H    0.449260  -0.000108   0.000011   0.063243   0.011925  -0.000754
     8  H   -0.000108   0.441446  -0.002974   0.005624  -0.021563  -0.076606
     9  H    0.000011  -0.002974   0.434918   0.006526   0.003290   0.000949
    10  P    0.063243   0.005624   0.006526  28.573205  -5.461818   0.886156
    11  C    0.011925  -0.021563   0.003290  -5.461818  29.463128  -7.946000
    12  C   -0.000754  -0.076606   0.000949   0.886156  -7.946000  37.144916
    13  C    0.000543   0.125064  -0.002610   1.421054  -6.963374 -24.331282
    14  C   -0.000038  -0.000729   0.000016   0.477215  -2.828021  -0.681528
    15  H   -0.000000   0.000006   0.000000  -0.027041  -0.017990   0.340074
    16  C    0.000038   0.001360  -0.001487  -1.896069   0.175917   0.684429
    17  H   -0.000001  -0.001365  -0.000005  -0.075701   0.060535   0.050085
    18  H   -0.000000   0.000000  -0.000000  -0.002346   0.058859  -0.060240
    19  H   -0.000000  -0.000008   0.000000  -0.007013   0.070161   0.015476
    20  C    0.024815   0.003478   0.000106  -1.433723  -0.029079  -0.793340
    21  C   -0.001928  -0.000765  -0.000141  -1.491033   0.103964  -0.479134
    22  C   -0.006297  -0.000055   0.000054   2.348275  -0.172624   0.385711
    23  C   -0.013791  -0.001032  -0.000084  -0.548374   0.423842   0.306069
    24  H    0.000008   0.000002   0.000000   0.104235  -0.013773   0.025130
    25  C   -0.012834   0.000002  -0.000054  -0.498349   0.023307  -0.075430
    26  H   -0.000008   0.000000   0.000000  -0.010999   0.000717  -0.000834
    27  H   -0.000001   0.000000   0.000000   0.015233  -0.002295   0.000052
    28  H   -0.000010   0.000000   0.000000  -0.003203   0.000199   0.000044
    29  C   -0.006728  -0.004707  -0.009406   0.627064  -0.037166  -0.006702
    30  H   -0.000114  -0.000112  -0.002822   0.000142   0.000635   0.000110
    31  O   -0.002696  -0.002111  -0.000003  -0.375157   0.556225  -0.777931
    32  C    0.007563   0.001269   0.000183  -1.649690   0.110165   2.023830
    33  C   -0.008852   0.000543   0.000008   2.666606  -0.574281   0.060570
    34  C    0.003446  -0.001566  -0.000016  -1.487072   0.093972  -0.441094
    35  C   -0.002136  -0.000130   0.000000  -0.393923  -0.061660   0.088950
    36  H    0.000015   0.000000   0.000000   0.049633  -0.002531  -0.000782
    37  C    0.002569   0.000484   0.000002  -1.351087   1.107562  -0.713748
    38  H   -0.000001   0.000000   0.000000  -0.007151   0.029960  -0.000675
    39  H   -0.000000  -0.000000  -0.000000   0.017145  -0.003403   0.001907
    40  H    0.000000   0.000000  -0.000000   0.017325  -0.026216   0.027947
    41  C   -0.002955  -0.004537  -0.000707  -0.632015   0.169144  -0.011979
    42  H    0.000007  -0.000019  -0.000005  -0.042020  -0.014447  -0.006141
    43  H    0.000001   0.000004  -0.000000  -0.009468   0.004642  -0.008867
    44  H    0.000001  -0.000252   0.000000   0.001181   0.005228   0.062772
    45  N    0.000924   0.000009   0.000002   0.123199  -0.027196  -0.003030
    46  N   -0.000020   0.000002   0.000000   0.194603  -0.072611   0.042221
    47  C    0.000002  -0.000925  -0.000132  -0.023107  -1.930194   0.228518
    48  H    0.000000   0.000000   0.000000   0.005254  -0.003876  -0.010725
    49  H   -0.000000   0.000000   0.000000  -0.013810   0.005015  -0.003918
    50  H    0.000001   0.000000  -0.000000  -0.003716   0.000090  -0.000008
              13         14         15         16         17         18
     1  C   -0.004814  -0.045075  -0.000085   0.080207  -0.001030  -0.000002
     2  C   -2.034819  -0.052587  -0.004221  -0.340224  -0.048182  -0.000164
     3  C    0.441172  -0.138074   0.004047   0.011330   0.029258   0.000639
     4  C    1.542490   0.195066   0.004926   0.383606   0.057139  -0.000027
     5  C    0.298491   0.104550   0.000500   0.282439   0.005473  -0.000016
     6  H    0.000322  -0.000008  -0.000000  -0.000023   0.000000  -0.000000
     7  H    0.000543  -0.000038  -0.000000   0.000038  -0.000001  -0.000000
     8  H    0.125064  -0.000729   0.000006   0.001360  -0.001365   0.000000
     9  H   -0.002610   0.000016   0.000000  -0.001487  -0.000005  -0.000000
    10  P    1.421054   0.477215  -0.027041  -1.896069  -0.075701  -0.002346
    11  C   -6.963374  -2.828021  -0.017990   0.175917   0.060535   0.058859
    12  C  -24.331282  -0.681528   0.340074   0.684429   0.050085  -0.060240
    13  C   40.242990  -0.508044  -0.022499  -4.749107   0.186466   0.018865
    14  C   -0.508044   9.263596  -0.022663  -0.256907   0.000031   0.298404
    15  H   -0.022499  -0.022663   0.444489   0.011231  -0.000115  -0.003034
    16  C   -4.749107  -0.256907   0.011231  11.369527   0.012770  -0.009445
    17  H    0.186466   0.000031  -0.000115   0.012770   0.442216   0.000013
    18  H    0.018865   0.298404  -0.003034  -0.009445   0.000013   0.439673
    19  H   -0.061231  -0.005709   0.000012   0.314846  -0.003130  -0.000106
    20  C    1.085004  -0.002275  -0.003498  -0.197649  -0.014980   0.000053
    21  C    0.590774  -0.063097   0.002024   0.201935   0.020881   0.000026
    22  C   -0.533976   0.015260  -0.000978  -0.125147  -0.005548  -0.000014
    23  C   -0.667142   0.012405   0.000201   0.081359   0.000197  -0.000005
    24  H   -0.023879  -0.004435  -0.000002  -0.015002   0.001015   0.000000
    25  C    0.114066  -0.003220   0.000010   0.018597   0.000653   0.000001
    26  H    0.000878   0.000006  -0.000000   0.000056   0.000000   0.000000
    27  H   -0.000249   0.000093  -0.000000  -0.000186  -0.000012   0.000000
    28  H   -0.000111   0.000002   0.000000   0.000006  -0.000000  -0.000000
    29  C   -0.031666   0.010054   0.000001  -0.038525  -0.001960  -0.000001
    30  H   -0.000697   0.000003  -0.000000   0.000012   0.000000   0.000000
    31  O    0.442597  -0.111024   0.018370   0.022902   0.001451   0.000138
    32  C   -1.649252  -0.469031  -0.022577  -0.026303  -0.014460  -0.001987
    33  C   -0.033847   0.214605   0.003064  -0.057985  -0.006299  -0.000021
    34  C   -0.043006   0.739035   0.024621   0.249655   0.023700  -0.000754
    35  C   -0.011212  -0.078978  -0.007876   0.006648   0.000314   0.000003
    36  H    0.001424  -0.000330  -0.000000  -0.000043  -0.000000   0.000000
    37  C    0.655721  -0.700145   0.002430  -0.019945  -0.000468   0.003499
    38  H   -0.017132  -0.001311   0.000020  -0.002308   0.000031   0.000001
    39  H   -0.000478   0.000119  -0.000000   0.000009  -0.000000  -0.000000
    40  H   -0.005497  -0.002734  -0.000041   0.000459  -0.000000  -0.000013
    41  C   -0.004821  -0.012655  -0.001466   0.053256  -0.000121  -0.000026
    42  H    0.008074   0.000349   0.000022  -0.000851  -0.000000  -0.000000
    43  H    0.005407  -0.002040  -0.000034  -0.000382   0.000000   0.000000
    44  H   -0.044536   0.004704  -0.000031   0.009034  -0.000005  -0.000013
    45  N    0.010157   0.001002   0.000000  -0.005323  -0.000064   0.000000
    46  N   -0.019970   0.059713   0.004225   0.001297   0.000013  -0.000147
    47  C    0.552282   0.734956   0.004527   0.356122   0.003063   0.005165
    48  H    0.019853   0.020671  -0.000111  -0.012972  -0.000113  -0.002936
    49  H    0.000574   0.000201  -0.000013  -0.000039   0.000000   0.000000
    50  H    0.000050  -0.000002   0.000000  -0.000012   0.000000   0.000000
              19         20         21         22         23         24
     1  C    0.000123   0.476214  -0.067490   0.122434  -0.018365  -0.007596
     2  C    0.000925  -0.050763  -0.626601   1.708618   0.079210   0.006053
     3  C    0.006028   0.297347   0.950282  -2.413019   0.209048  -0.024416
     4  C   -0.005353  -0.611394   0.229883  -0.217033  -0.062395   0.006392
     5  C   -0.001181   0.098207   0.031065  -0.141034   0.008508  -0.005515
     6  H   -0.000000   0.000922  -0.001095  -0.001946  -0.000124   0.000000
     7  H   -0.000000   0.024815  -0.001928  -0.006297  -0.013791   0.000008
     8  H   -0.000008   0.003478  -0.000765  -0.000055  -0.001032   0.000002
     9  H    0.000000   0.000106  -0.000141   0.000054  -0.000084   0.000000
    10  P   -0.007013  -1.433723  -1.491033   2.348275  -0.548374   0.104235
    11  C    0.070161  -0.029079   0.103964  -0.172624   0.423842  -0.013773
    12  C    0.015476  -0.793340  -0.479134   0.385711   0.306069   0.025130
    13  C   -0.061231   1.085004   0.590774  -0.533976  -0.667142  -0.023879
    14  C   -0.005709  -0.002275  -0.063097   0.015260   0.012405  -0.004435
    15  H    0.000012  -0.003498   0.002024  -0.000978   0.000201  -0.000002
    16  C    0.314846  -0.197649   0.201935  -0.125147   0.081359  -0.015002
    17  H   -0.003130  -0.014980   0.020881  -0.005548   0.000197   0.001015
    18  H   -0.000106   0.000053   0.000026  -0.000014  -0.000005   0.000000
    19  H    0.436990  -0.000430   0.001125  -0.000075   0.000788  -0.000006
    20  C   -0.000430  11.666318  -0.914739  -4.317196   0.714653  -0.040190
    21  C    0.001125  -0.914739  11.339567  -0.586224  -2.957071   0.256020
    22  C   -0.000075  -4.317196  -0.586224  15.204875  -1.831040   0.024932
    23  C    0.000788   0.714653  -2.957071  -1.831040   9.928119  -0.041690
    24  H   -0.000006  -0.040190   0.256020   0.024932  -0.041690   0.387912
    25  C    0.000001   1.177711  -0.017494  -2.935109  -0.087097  -0.012546
    26  H    0.000000   0.033786  -0.024956   0.241815   0.010856  -0.000074
    27  H    0.000000   0.035400  -0.111610   0.000515   0.414281  -0.002210
    28  H   -0.000000   0.063119  -0.021073  -0.091537   0.022343   0.000008
    29  C   -0.000210  -0.090926  -0.055732   0.179679  -0.002292   0.001649
    30  H    0.000000  -0.000638   0.000286   0.000190   0.000051  -0.000000
    31  O    0.000028   0.058876   0.067046  -0.070104  -0.010859   0.000309
    32  C   -0.000097   1.262174  -1.186034  -1.572207   0.564566   0.059258
    33  C   -0.000142  -1.660373  -3.008342   3.530754   0.359982   0.012853
    34  C    0.000218  -1.502342   2.915975  -3.064477  -0.028315  -0.030279
    35  C    0.000002   0.233686   0.198130  -0.286755   0.037540   0.001430
    36  H    0.000000  -0.007375   0.006384  -0.019707  -0.000148  -0.000003
    37  C   -0.000061   0.742879   0.182632  -0.140408  -0.286150   0.006552
    38  H   -0.000001   0.008799  -0.001752  -0.005637   0.015487  -0.000300
    39  H    0.000000  -0.003429   0.001926  -0.006079   0.000062   0.000000
    40  H    0.000000  -0.000773  -0.007514   0.001505  -0.000225   0.000003
    41  C    0.000090   0.034579   0.009538  -0.029303   0.003709  -0.000101
    42  H    0.000000  -0.001186   0.000172  -0.001254   0.000236   0.000000
    43  H    0.000000   0.001478  -0.000491   0.000553  -0.000059   0.000000
    44  H   -0.000000  -0.001434   0.000950  -0.000158   0.000039  -0.000000
    45  N   -0.000000  -0.085673  -0.225709   0.034181   0.355893   0.007576
    46  N    0.000001  -0.093340  -0.060808   0.016790  -0.001868  -0.000026
    47  C   -0.016468   0.007999   0.046612  -0.014502  -0.016843   0.000384
    48  H   -0.002828   0.000211  -0.000301   0.000010  -0.000029  -0.000000
    49  H   -0.000000   0.002444   0.000810   0.000927   0.000015  -0.000000
    50  H    0.000000   0.005772   0.038720   0.024019  -0.049798  -0.000091
              25         26         27         28         29         30
     1  C    0.161665  -0.001510   0.000533  -0.002550  -0.530925   0.006178
     2  C   -0.508127   0.000109   0.006128  -0.000268   2.100093   0.007312
     3  C    0.473363   0.006701  -0.006849   0.003780  -2.657832   0.000333
     4  C    0.066574   0.000197  -0.003112   0.000202   0.907886  -0.023016
     5  C    0.035167   0.000323   0.000637  -0.000007  -0.688569   0.023721
     6  H    0.001656   0.000000  -0.000000   0.000000  -0.005707  -0.002812
     7  H   -0.012834  -0.000008  -0.000001  -0.000010  -0.006728  -0.000114
     8  H    0.000002   0.000000   0.000000   0.000000  -0.004707  -0.000112
     9  H   -0.000054   0.000000   0.000000   0.000000  -0.009406  -0.002822
    10  P   -0.498349  -0.010999   0.015233  -0.003203   0.627064   0.000142
    11  C    0.023307   0.000717  -0.002295   0.000199  -0.037166   0.000635
    12  C   -0.075430  -0.000834   0.000052   0.000044  -0.006702   0.000110
    13  C    0.114066   0.000878  -0.000249  -0.000111  -0.031666  -0.000697
    14  C   -0.003220   0.000006   0.000093   0.000002   0.010054   0.000003
    15  H    0.000010  -0.000000  -0.000000   0.000000   0.000001  -0.000000
    16  C    0.018597   0.000056  -0.000186   0.000006  -0.038525   0.000012
    17  H    0.000653   0.000000  -0.000012  -0.000000  -0.001960   0.000000
    18  H    0.000001   0.000000   0.000000  -0.000000  -0.000001   0.000000
    19  H    0.000001   0.000000   0.000000  -0.000000  -0.000210   0.000000
    20  C    1.177711   0.033786   0.035400   0.063119  -0.090926  -0.000638
    21  C   -0.017494  -0.024956  -0.111610  -0.021073  -0.055732   0.000286
    22  C   -2.935109   0.241815   0.000515  -0.091537   0.179679   0.000190
    23  C   -0.087097   0.010856   0.414281   0.022343  -0.002292   0.000051
    24  H   -0.012546  -0.000074  -0.002210   0.000008   0.001649  -0.000000
    25  C    8.122414   0.035880   0.000425   0.385073  -0.064725  -0.000026
    26  H    0.035880   0.397188   0.000008  -0.001856  -0.000703  -0.000000
    27  H    0.000425   0.000008   0.369380  -0.000075   0.000004   0.000000
    28  H    0.385073  -0.001856  -0.000075   0.368063  -0.000253   0.000000
    29  C   -0.064725  -0.000703   0.000004  -0.000253   6.474129   0.296631
    30  H   -0.000026  -0.000000   0.000000   0.000000   0.296631   0.435690
    31  O    0.011206   0.000183  -0.000001  -0.000001  -0.011259   0.000010
    32  C    0.080814  -0.036211   0.017331   0.008754  -0.016413   0.000065
    33  C   -0.841609   0.062021   0.003546  -0.002711   0.042991  -0.000053
    34  C    0.647054  -0.030197  -0.011986   0.001234  -0.048342  -0.000000
    35  C   -0.046731   0.014709  -0.000100   0.000163   0.005733  -0.000000
    36  H   -0.002422   0.001206   0.000000   0.000001  -0.000265  -0.000000
    37  C    0.018328  -0.000024  -0.000885  -0.000023  -0.004050  -0.000002
    38  H   -0.001190   0.000001   0.000006   0.000000  -0.000012   0.000000
    39  H    0.000024   0.000007   0.000000   0.000000  -0.000005  -0.000000
    40  H   -0.000128   0.000000   0.000000   0.000000   0.000000   0.000000
    41  C    0.008456   0.000168   0.000005  -0.000004  -0.033240   0.000124
    42  H   -0.000002   0.000000   0.000000  -0.000000  -0.002718  -0.000000
    43  H    0.000008  -0.000000  -0.000000  -0.000000  -0.000127  -0.000000
    44  H   -0.000021  -0.000000   0.000000   0.000000  -0.000189   0.000000
    45  N    0.390618   0.003931  -0.040381  -0.046302   0.002923   0.000001
    46  N   -0.004838  -0.000194   0.000004   0.000001   0.000067  -0.000000
    47  C    0.002078  -0.000002  -0.000179  -0.000001  -0.005683  -0.000001
    48  H   -0.000001  -0.000000   0.000000   0.000000   0.000004  -0.000000
    49  H    0.000074  -0.000000   0.000000  -0.000000   0.000000   0.000000
    50  H   -0.039850  -0.000094  -0.002365  -0.002324   0.000320  -0.000000
              31         32         33         34         35         36
     1  C    0.097915  -0.261094   0.112434  -0.200827  -0.024142  -0.007045
     2  C    0.018081   1.403411  -0.555863  -1.021202   0.002590  -0.030202
     3  C    0.228106  -0.610847  -0.259885   1.503004   0.098702   0.021012
     4  C   -0.205846  -0.656329   0.480644   0.241022   0.003771   0.005159
     5  C   -0.000095  -0.080294  -0.071836   0.100119  -0.013587  -0.000012
     6  H   -0.000024   0.000799   0.000394  -0.000013  -0.000080   0.000000
     7  H   -0.002696   0.007563  -0.008852   0.003446  -0.002136   0.000015
     8  H   -0.002111   0.001269   0.000543  -0.001566  -0.000130   0.000000
     9  H   -0.000003   0.000183   0.000008  -0.000016   0.000000   0.000000
    10  P   -0.375157  -1.649690   2.666606  -1.487072  -0.393923   0.049633
    11  C    0.556225   0.110165  -0.574281   0.093972  -0.061660  -0.002531
    12  C   -0.777931   2.023830   0.060570  -0.441094   0.088950  -0.000782
    13  C    0.442597  -1.649252  -0.033847  -0.043006  -0.011212   0.001424
    14  C   -0.111024  -0.469031   0.214605   0.739035  -0.078978  -0.000330
    15  H    0.018370  -0.022577   0.003064   0.024621  -0.007876  -0.000000
    16  C    0.022902  -0.026303  -0.057985   0.249655   0.006648  -0.000043
    17  H    0.001451  -0.014460  -0.006299   0.023700   0.000314  -0.000000
    18  H    0.000138  -0.001987  -0.000021  -0.000754   0.000003   0.000000
    19  H    0.000028  -0.000097  -0.000142   0.000218   0.000002   0.000000
    20  C    0.058876   1.262174  -1.660373  -1.502342   0.233686  -0.007375
    21  C    0.067046  -1.186034  -3.008342   2.915975   0.198130   0.006384
    22  C   -0.070104  -1.572207   3.530754  -3.064477  -0.286755  -0.019707
    23  C   -0.010859   0.564566   0.359982  -0.028315   0.037540  -0.000148
    24  H    0.000309   0.059258   0.012853  -0.030279   0.001430  -0.000003
    25  C    0.011206   0.080814  -0.841609   0.647054  -0.046731  -0.002422
    26  H    0.000183  -0.036211   0.062021  -0.030197   0.014709   0.001206
    27  H   -0.000001   0.017331   0.003546  -0.011986  -0.000100   0.000000
    28  H   -0.000001   0.008754  -0.002711   0.001234   0.000163   0.000001
    29  C   -0.011259  -0.016413   0.042991  -0.048342   0.005733  -0.000265
    30  H    0.000010   0.000065  -0.000053  -0.000000  -0.000000  -0.000000
    31  O    8.578932   0.026485  -0.315925   0.229912   0.007344  -0.003708
    32  C    0.026485  19.281950  -6.365788  -7.021800   1.668798  -0.046931
    33  C   -0.315925  -6.365788  21.640436  -5.014196  -2.637144   0.274408
    34  C    0.229912  -7.021800  -5.014196  25.887143  -2.579720   0.049932
    35  C    0.007344   1.668798  -2.637144  -2.579720   8.819542   0.027238
    36  H   -0.003708  -0.046931   0.274408   0.049932   0.027238   0.416396
    37  C    0.048511   2.293719  -2.326705  -5.406453   0.972257  -0.014767
    38  H    0.000519   0.022201   0.036558   0.245817  -0.001059  -0.000081
    39  H   -0.000016   0.044162  -0.104487   0.018660   0.385924  -0.002693
    40  H    0.000080   0.044450   0.012943  -0.087308   0.013268   0.000006
    41  C   -0.043089  -0.036856  -0.015536   0.034193   0.001704  -0.001063
    42  H   -0.041080  -0.006265   0.005469   0.004389  -0.002453  -0.000008
    43  H   -0.065880  -0.001319  -0.001586  -0.003584   0.005958   0.000007
    44  H   -0.050047   0.003986  -0.002497  -0.000213  -0.000118  -0.000001
    45  N   -0.000268  -0.039465   0.010830  -0.060091  -0.015855   0.000152
    46  N    0.009800  -0.456050   0.051209   0.199969   0.337846   0.009016
    47  C    0.002467  -0.100217  -0.028911   0.111394   0.000211   0.000020
    48  H   -0.000010   0.000658   0.000047  -0.000426   0.000006  -0.000000
    49  H   -0.000182   0.033702   0.008190   0.015488  -0.031653  -0.000091
    50  H   -0.000000  -0.002012  -0.000613   0.001808  -0.000010   0.000000
              37         38         39         40         41         42
     1  C    0.042461   0.000002  -0.000317   0.000007   0.090596   0.001332
     2  C   -0.105892   0.002952  -0.001786  -0.000014  -0.232620  -0.015955
     3  C    0.235999  -0.003178   0.002163   0.000350   0.040692   0.066077
     4  C    0.000684  -0.001705  -0.000013  -0.000097  -0.047112  -0.022591
     5  C    0.006800   0.000161   0.000006  -0.000012   0.194467   0.020102
     6  H    0.000000   0.000000  -0.000000   0.000000  -0.000034  -0.000002
     7  H    0.002569  -0.000001  -0.000000   0.000000  -0.002955   0.000007
     8  H    0.000484   0.000000  -0.000000   0.000000  -0.004537  -0.000019
     9  H    0.000002   0.000000  -0.000000  -0.000000  -0.000707  -0.000005
    10  P   -1.351087  -0.007151   0.017145   0.017325  -0.632015  -0.042020
    11  C    1.107562   0.029960  -0.003403  -0.026216   0.169144  -0.014447
    12  C   -0.713748  -0.000675   0.001907   0.027947  -0.011979  -0.006141
    13  C    0.655721  -0.017132  -0.000478  -0.005497  -0.004821   0.008074
    14  C   -0.700145  -0.001311   0.000119  -0.002734  -0.012655   0.000349
    15  H    0.002430   0.000020  -0.000000  -0.000041  -0.001466   0.000022
    16  C   -0.019945  -0.002308   0.000009   0.000459   0.053256  -0.000851
    17  H   -0.000468   0.000031  -0.000000  -0.000000  -0.000121  -0.000000
[...]
 1305,0.00031535,0.00005053,-0.00004602,0.00000777,-0.00000232,-0.00000
 581,-0.00006309,0.00003069,-0.00007479,-0.00004134,0.00005511,0.000033
 84,-0.00000668,0.00000605,-0.00000494,-0.00000336,-0.00000633,0.000018
 21,0.00001013,-0.00000976,0.00008228,0.00001549,-0.00002512,-0.0000326
 9,0.00000008,-0.00001443,-0.00000297,0.00001852,-0.00006365,-0.0000077
 5,0.00005476,-0.00001894,0.00001055,-0.00021820,-0.00007595,0.00010139
 ,-0.02952874,0.24624095,0.00004073,0.00000819,-0.00000431,0.00002209,0
 .00011720,0.00009012,0.00002130,-0.00030246,-0.00025303,-0.00001771,-0
 .00017391,0.00004543,-0.00005476,0.00007553,0.00005660,0.00000884,0.00
 001118,-0.00001436,-0.00000637,0.00000011,0.00000407,-0.00017109,0.000
 09497,-0.00000489,0.00000803,-0.00000107,0.00001779,-0.00285135,0.0004
 9703,0.00012217,-0.03347530,-0.01065927,-0.03468989,0.05507831,-0.0227
 6899,-0.03864911,0.00363685,0.02117883,0.05566695,-0.08103284,-0.10149
 718,-0.29293900,0.00279193,-0.00327056,0.00070398,-0.02086496,-0.03196
 337,-0.13839313,0.00337200,-0.00417809,-0.00108527,0.00074874,-0.00287
 338,-0.00224986,-0.02801476,-0.00184649,-0.00184353,-0.00011529,-0.000
 23624,0.00003549,0.00017988,-0.00007042,-0.00001971,0.00003640,-0.0000
 1904,0.00007501,-0.00018069,0.00002290,0.00000768,0.00002889,0.0000722
 7,0.00002985,-0.00000906,0.00003260,-0.00002191,-0.00001530,-0.0000112
 9,0.00000359,0.00000214,-0.00000218,0.00000244,0.00000567,0.00000533,0
 .00000215,-0.00000584,-0.00003860,-0.00002689,-0.00000595,0.00000557,0
 .00000328,0.00041000,-0.00026565,-0.00025418,0.00021687,0.00070781,0.0
 0030142,-0.00033195,-0.00033476,-0.00039827,0.00017889,0.00046544,-0.0
 0021406,0.00058694,0.00010331,-0.00015656,-0.00000169,0.00001403,-0.00
 000958,-0.00031337,-0.00015889,-0.00040326,-0.00001506,-0.00003257,-0.
 00001607,-0.00000757,0.00001977,-0.00000446,-0.00000378,-0.00003991,0.
 00002456,0.00004038,-0.00009249,0.00017317,0.00001946,-0.00000787,-0.0
 0004119,0.00000294,-0.00001245,-0.00000064,0.00002927,-0.00010221,0.00
 002602,0.00011299,-0.00004627,-0.00000697,-0.00029786,-0.00014130,0.00
 045374,-0.02927123,0.22053032,0.62536815,-0.00001913,-0.00001146,-0.00
 000106,0.00001646,-0.00002997,-0.00000096,-0.00006533,0.00004233,0.000
 02685,0.00000532,-0.00000294,0.00001460,0.00000823,0.00001264,0.000003
 98,-0.00000455,-0.00000132,0.00000072,0.00000167,0.00000252,-0.0000016
 3,0.00000109,0.00003323,-0.00001519,-0.00000128,-0.00000377,0.00000009
 ,0.00024510,-0.00009681,-0.00026246,-0.00026928,-0.00024100,-0.0006010
 7,0.00056542,-0.00082353,-0.00219003,-0.00462009,-0.00083820,-0.002702
 46,0.01016149,-0.00343126,-0.00721807,0.00034256,-0.00018869,-0.000359
 70,-0.01566110,0.00993931,0.02051140,-0.00086080,0.00048608,0.00102707
 ,0.00068105,0.00009329,0.00048074,0.00124673,-0.00019403,-0.00007184,0
 .00003103,0.00001629,0.00002061,-0.00000161,0.00001427,-0.00003056,-0.
 00002151,-0.00000032,-0.00000646,0.00001412,-0.00000207,0.00000886,0.0
 0002408,-0.00003395,0.00001629,0.00000651,0.00000164,0.00001208,0.0000
 0111,0.00000046,0.00000059,-0.00000021,-0.00000076,0.00000057,-0.00000
 045,0.00000064,-0.00000140,-0.00001387,0.00000749,0.00000418,-0.000003
 50,-0.00000066,0.00000023,-0.00000191,0.00002477,0.00016368,-0.0000838
 1,-0.00018950,0.00001663,0.00003462,0.00006627,0.00004871,0.00006052,0
 .00002973,-0.00002110,-0.00007178,-0.00000581,0.00000302,0.00000002,-0
 .00000180,0.00000239,-0.00004299,-0.00001318,-0.00004154,-0.00000137,-
 0.00000508,0.00000269,0.00000071,-0.00000140,0.00000178,0.00000181,-0.
 00000055,0.00000099,-0.00001062,0.00004387,-0.00003407,-0.00000106,-0.
 00000669,0.00000443,0.00000190,-0.00000432,0.00000581,0.00000093,-0.00
 000335,-0.00000626,-0.00001989,0.00000140,-0.00000672,0.00006378,0.000
 01148,0.00002009,-0.20817025,0.06370824,0.12946854,0.21643453,-0.00000
 637,-0.00000091,0.00000434,-0.00000202,-0.00001418,-0.00002156,-0.0000
 7667,0.00001522,0.00000710,-0.00001107,0.00002746,0.00001553,0.0000054
 0,-0.00000207,-0.00000916,-0.00000010,-0.00000224,0.00000382,-0.000002
 64,0.00000186,-0.00000063,0.00002299,0.00000492,-0.00000127,-0.0000018
 7,0.00000011,-0.00000324,-0.00001858,-0.00090593,0.00033505,-0.0003397
 1,-0.00093029,0.00038208,-0.00085913,0.00556703,-0.00471419,-0.0007294
 7,0.00628218,-0.00263809,0.00960193,0.00133469,-0.00725895,0.00044750,
 -0.00031754,-0.00021046,-0.00319706,0.00563005,0.00158860,-0.00020998,
 -0.00010043,0.00020306,-0.00016265,-0.00330481,0.00207006,0.00009570,-
 0.00330450,0.00183212,-0.00005364,-0.00003038,-0.00003538,0.00003312,-
 0.00000371,0.00002363,0.00002552,-0.00000416,0.00001200,-0.00003475,0.
 00000915,-0.00000616,-0.00000260,0.00000512,-0.00000244,-0.00000746,0.
 00000519,-0.00001315,-0.00000298,-0.00000168,0.00000030,0.00000126,0.0
 0000019,0.00000004,0.00000124,-0.00000019,0.00000111,0.,0.00000503,0.0
 0000505,0.00000057,0.00000012,-0.00000007,0.00001127,0.00003929,0.0000
 7028,0.00017835,0.00022097,-0.00007847,-0.00005939,-0.00010678,-0.0000
 5916,-0.00008905,-0.00000018,0.00003240,0.00012603,0.00000139,-0.00001
 629,-0.00000021,0.00000302,-0.00000302,0.00005174,0.00001281,0.0000498
 9,0.00000307,-0.00000327,-0.00000139,-0.00000207,0.00000487,-0.0000020
 3,-0.00000333,-0.00000254,-0.00000345,-0.00000817,0.00001461,0.0000024
 4,0.00000413,-0.00000231,-0.00000270,0.00000187,0.00000013,-0.00000051
 ,0.00000073,-0.00000927,-0.00000764,0.00002857,-0.00000902,0.00000585,
 -0.00010064,0.00001636,-0.00000355,0.06373512,-0.07171211,-0.06284329,
 -0.06840008,0.06156294,0.00001474,-0.00000826,-0.00000234,0.00002609,0
 .00005351,0.00001242,0.00010036,-0.00009588,-0.00005174,-0.00000342,-0
 .00002530,-0.00000030,0.00000681,0.00000044,0.00000022,0.00000550,0.00
 000351,-0.00000253,-0.00000253,-0.00000103,0.00000051,-0.00001624,-0.0
 0001391,0.00000440,0.00000236,0.00000289,0.00000168,-0.00030623,0.0004
 8695,0.00003337,-0.00053468,0.00026463,-0.00047221,-0.00257737,-0.0046
 6685,-0.00261556,-0.00235168,-0.00261687,0.00161995,0.02136583,-0.0081
 8263,-0.01172268,0.00105922,-0.00025774,-0.00068744,-0.00804409,0.0024
 1699,0.00966335,-0.00039792,0.00023530,0.00026365,-0.00010324,0.002105
 26,0.00030398,0.00050695,0.00181570,-0.00014410,-0.00001718,-0.0000054
 7,-0.00001032,-0.00000287,0.00000333,0.00001149,0.00001516,-0.00000121
 ,0.00000348,-0.00000074,-0.00000007,-0.00000315,-0.00000643,0.00000175
 ,-0.00000440,-0.00000564,-0.00000226,-0.00000932,-0.00000108,0.0000005
 8,-0.00000049,-0.00000003,-0.00000002,0.00000052,0.00000020,-0.0000004
 8,0.00000099,0.00000190,0.00000295,-0.00000220,0.00000133,0.00000140,-
 0.00000065,0.00011943,-0.00000563,-0.00014341,0.00000053,0.00009372,0.
 00002833,-0.00001425,-0.00002760,-0.00003103,-0.00001554,-0.00002675,-
 0.00000544,0.00002574,0.00000862,0.00000332,0.00000019,0.00000150,-0.0
 0000099,0.00001937,0.00000278,0.00001176,-0.00000062,0.00000510,-0.000
 00223,0.00000005,0.00000057,-0.00000102,0.00000079,0.00000240,0.000000
 32,-0.00000142,-0.00006431,0.00007871,0.00000291,0.00000727,-0.0000077
 7,-0.00000328,0.00000182,-0.00000669,-0.00000117,-0.00000708,0.0000153
 3,0.00000642,0.00000297,0.00000639,-0.00002337,-0.00002450,-0.00000531
 ,0.12943878,-0.06278394,-0.17153105,-0.13829398,0.07129114,0.17539844,
 0.00002584,0.00001722,0.00001066,-0.00009382,0.00008562,0.00004681,-0.
 00048658,0.00084203,-0.00026248,0.00035274,-0.00000718,-0.00012831,0.0
 0002270,0.00008167,0.00009406,0.00002377,0.00000453,-0.00000417,-0.000
 03475,-0.00002422,0.00001324,-0.00001908,-0.00001129,-0.00001835,0.000
 03477,0.00003214,0.00000145,0.00120733,0.00073047,0.00072564,-0.000052
 81,0.00038156,-0.00030940,0.00008495,0.00005948,0.00015051,-0.00010776
 ,-0.00002944,-0.00004590,-0.00002220,-0.00002893,0.00005068,0.00001689
 ,0.00000260,-0.00002020,-0.00000715,-0.00003147,0.00002373,0.00000758,
 0.00001110,-0.00001360,-0.00002909,0.00000687,0.00001323,-0.00000805,0
 .00000759,0.00001878,-0.00024074,0.00054023,-0.00033083,0.00008698,0.0
 0004617,0.00005272,0.00013602,-0.00000540,0.00010138,-0.00012718,0.000
 00544,-0.00000664,-0.00002209,-0.00000024,-0.00005139,-0.00006237,-0.0
 0003516,-0.00007463,-0.00001384,-0.00000737,0.00000028,0.00001512,-0.0
 0000112,0.00000144,0.00001017,0.00001046,0.00000355,0.00003395,0.00003
 469,-0.00000888,0.00001043,0.00000735,-0.00000716,-0.00029669,0.000400
 96,-0.00073357,-0.00147551,-0.00284053,0.00068197,-0.00002887,0.000583
 79,0.00573383,0.00435030,0.00022744,0.00255724,-0.02116995,-0.00940557
 ,-0.01222536,-0.00047749,-0.00058857,-0.00053040,0.00649118,0.00329883
 ,-0.00110237,0.00052150,-0.00019937,0.00040875,0.00070369,0.00092039,-
 0.00033826,0.00030795,0.00108991,0.00003001,-0.00001972,-0.00025501,0.
 00012943,0.00000792,0.00002886,-0.00001124,-0.00001359,0.00005295,-0.0
 0005431,-0.00000445,0.00003449,0.00000100,0.00013258,-0.00000508,0.000
 06053,-0.33421225,-0.13976397,-0.12276220,-0.00006450,0.00002302,0.000
 02795,-0.00000759,0.00000893,0.00000615,0.34453937,0.00000977,0.000001
 60,0.00001389,-0.00002520,0.00001629,0.00001771,-0.00014198,0.00026879
 ,-0.00008668,0.00010274,-0.00000838,-0.00004583,0.00001583,0.00002301,
 0.00003232,0.00000847,0.00000217,-0.00000250,-0.00000739,-0.00000036,-
 0.00000455,-0.00000721,-0.00000591,-0.00000821,0.00001091,0.00001040,0
 .00000088,0.00020865,0.00035699,0.00025900,0.00001148,0.00017733,-0.00
 008914,0.00000862,0.00001022,0.00002872,-0.00002822,-0.00005022,-0.000
 00559,-0.00000107,0.00001065,0.00002111,-0.00000345,-0.00001891,0.0000
 0749,-0.00001887,0.00001073,0.00001816,0.00000567,0.00000765,-0.000003
 90,-0.00000316,-0.00000262,-0.00000315,-0.00000180,0.00000366,0.000009
 48,-0.00023887,-0.00014034,-0.00005247,-0.00002336,0.00002406,-0.00005
 129,0.00004969,-0.00001019,0.00002317,0.00003182,-0.00001562,0.0000334
 5,-0.00002283,0.00002184,-0.00003051,-0.00001058,-0.00002014,-0.000052
 12,-0.00000337,0.00000167,-0.00001841,0.00000200,-0.00000296,0.0000012
 2,0.00000115,0.00000097,0.00000343,0.00001122,0.00001464,-0.00000483,0
 .00000326,0.00000335,-0.00000455,-0.00001384,0.00013818,-0.00017405,-0
 .00013265,-0.00185699,0.00007495,0.00088968,0.00417243,-0.00041926,0.0
 0100977,0.00410892,-0.00165644,0.00235284,-0.00254378,0.00292735,-0.00
 013081,0.00113250,-0.00032287,-0.00481898,-0.00638596,-0.00131495,-0.0
 0061513,0.00109822,-0.00024163,0.00083302,-0.00193100,0.00094411,0.001
 03556,-0.00199518,0.00080900,0.00000427,-0.00009448,0.00002846,0.00000
 875,0.00001511,-0.00000260,-0.00000884,0.00000982,-0.00000261,-0.00000
 365,0.00000345,0.00000457,-0.00000259,0.00001652,0.00002467,-0.1440014
 4,-0.08217995,-0.07888731,-0.00000709,0.00000092,0.00001652,-0.0000036
 5,0.00000300,0.00000496,0.14366563,0.08559287,0.00001276,0.00001351,0.
 00001004,-0.00004418,0.00003418,0.00001941,-0.00021760,0.00039428,-0.0
 0014120,0.00016175,-0.00001177,-0.00006159,0.00000972,0.00003620,0.000
 04445,0.00001165,0.00000189,-0.00000176,-0.00001558,-0.00001140,0.0000
 0602,-0.00001238,-0.00000617,-0.00000562,0.00001614,0.00001563,0.00000
 085,0.00044662,0.00039924,0.00052106,-0.00009808,0.00030107,-0.0001595
 5,0.00004496,0.00009112,0.00008401,-0.00005590,-0.00001005,-0.00004233
 ,-0.00000663,-0.00002885,0.00001409,0.00000371,-0.00000404,-0.00000637
 ,-0.00002275,-0.00001923,0.00001365,0.00000547,0.00001068,-0.00000731,
 -0.00001282,0.00000065,0.00000807,-0.00000399,0.00000353,0.00001152,-0
 .00010734,0.00039426,0.00003419,0.00009576,-0.00001821,0.00001415,0.00
 007258,-0.00003127,0.00001305,-0.00003728,0.00000751,0.00003409,0.0000
 0417,0.00002303,0.00000057,-0.00005449,0.00000869,-0.00003150,-0.00006
 692,0.00003012,0.00001698,0.00000993,-0.00000269,0.00000280,0.00000506
 ,0.00000435,0.00000338,0.00002083,0.00001571,-0.00000544,0.00000518,0.
 00000388,-0.00000324,-0.00009640,0.00016618,-0.00027469,0.00009815,-0.
 00171967,-0.00151913,0.00524194,-0.00071107,-0.00081465,0.00286525,-0.
 00162939,-0.00498972,0.01688796,0.01160633,0.01374256,0.00104307,0.000
 00908,0.00063356,-0.03090601,-0.01207082,-0.01038360,-0.00110361,-0.00
 074102,-0.00020429,-0.00018809,0.00092014,0.00011048,-0.00014863,0.000
 92810,0.00050070,0.00001538,-0.00012481,0.00009182,0.00000050,0.000015
 24,-0.00000824,-0.00000709,0.00002646,-0.00003106,-0.00000247,0.000017
 78,-0.00000462,0.00005554,0.00002399,0.00004430,-0.12198823,-0.0765650
 7,-0.13102975,-0.00002870,0.00001157,0.00003289,-0.00000400,0.00000322
 ,0.00000245,0.12810969,0.07818721,0.13371626,0.00000605,-0.00001899,-0
 .00000676,0.00000159,0.00002885,0.00001258,0.00005224,-0.00008985,0.00
 003408,-0.00005437,0.00002323,0.00001795,-0.00000472,-0.00002083,-0.00
 000775,-0.00000392,-0.00000305,0.00000892,0.00003544,0.00002222,-0.000
 05027,0.00000410,0.00000305,-0.00000232,-0.00000529,-0.00000682,0.0000
 0028,0.00007556,0.00054017,-0.00016862,0.00001339,-0.00020668,0.000034
 96,-0.00003901,-0.00003092,-0.00003008,0.00004156,0.00000126,0.0000454
 7,0.00000565,0.00001169,-0.00002131,-0.00000359,-0.00000330,0.00000606
 ,0.00001728,0.00001169,-0.00001455,-0.00000404,-0.00000079,-0.00000011
 ,0.00000818,0.00000063,-0.00000327,0.00000247,0.00000012,-0.00000774,-
 0.00079790,0.00061738,0.00074190,0.00002741,0.00386958,0.00238136,0.00
 409164,0.00167749,0.00088590,-0.01893250,-0.00028996,-0.01191730,-0.00
 033467,-0.00009051,-0.00062313,0.00564055,-0.00200172,-0.00020871,0.00
 039219,0.00017825,0.00024142,0.00064287,-0.00115977,0.00071425,0.00044
 538,-0.00092543,0.00119378,-0.00000980,-0.00000501,-0.00000412,-0.0000
 0214,-0.00000661,0.00000173,0.00011190,-0.00031478,0.00033483,-0.00023
 252,-0.00030288,-0.00012745,0.00016044,-0.00012830,0.00003797,0.000107
 31,0.00002951,0.00026122,-0.00011705,-0.00001773,0.00005457,-0.0000130
 1,0.00001793,-0.00003090,0.00001274,-0.00007124,-0.00016313,-0.0000185
 0,0.00000464,-0.00000211,0.00001833,0.00001728,0.00000495,0.00002045,0
 .00002202,0.00001480,0.00001274,0.00011025,-0.00005426,-0.00000325,-0.
 00001392,0.00000799,0.00000679,-0.00002301,0.00002076,0.00000457,-0.00
 001720,0.00000410,-0.34877686,0.01306162,-0.16799068,0.00012126,0.0000
 4899,0.00007406,0.00001384,-0.00001077,-0.00001224,0.00000320,-0.00000
 336,-0.00000180,-0.00002559,-0.00000475,-0.00001460,0.35728162,-0.0000
 0238,0.00000309,0.00000125,-0.00001199,0.00000463,-0.00005087,0.000003
 37,-0.00001860,0.00001071,-0.00000436,0.00000667,-0.00000412,-0.000005
 63,-0.00000986,0.00000743,-0.00000147,-0.00000257,0.00001401,0.0000183
 9,-0.00000429,0.00003615,0.00000125,0.00000081,0.00000451,-0.00000037,
 -0.00000041,0.00000294,0.00005909,-0.00000551,-0.00008255,0.00003165,-
 0.00005624,0.00000909,-0.00003031,0.00000405,-0.00000282,0.00002514,-0
 .00000917,0.00001899,0.00000700,-0.00001280,-0.00002064,-0.00000018,-0
 .00000118,0.00000136,-0.00002396,0.00000532,0.00000757,0.00000295,0.00
 000397,-0.00000161,0.00000051,0.00000159,-0.00000151,0.00000217,-0.000
 00128,-0.00000206,0.00044004,-0.00134571,-0.00082813,0.00456474,0.0029
 7377,-0.00369360,0.00119350,0.00306927,-0.00593744,0.01550724,0.001699
 91,0.01224379,0.00071574,0.00039445,0.00031890,-0.01834111,0.00201833,
 -0.00778671,-0.00060236,0.00045091,-0.00049871,-0.00098187,-0.00236403
 ,0.00168422,-0.00112783,-0.00243890,0.00176878,-0.00000358,-0.00000444
 ,-0.00001594,0.00000006,-0.00000234,0.00000402,-0.00000284,-0.00001481
 ,0.00001789,-0.00027607,-0.00058803,0.00049235,0.00003542,-0.00002594,
 -0.00001352,-0.00007527,0.00002708,-0.00006002,0.00000869,0.00001269,0
 .00000565,0.00000304,0.00000905,0.00002894,-0.00001417,0.00000617,0.00
 005663,-0.00003918,0.00000354,0.00002077,-0.00000078,0.00000348,-0.000
 00148,-0.00000159,-0.00001411,-0.00000251,0.00000195,0.00000017,-0.000
 00151,-0.00000023,-0.00000067,0.00000139,-0.00000006,-0.00000080,0.000
 00033,0.00000077,-0.00000007,0.00000035,0.01344542,-0.04503641,-0.0172
 4517,-0.00000728,-0.00000972,0.00001051,0.00001870,0.00000661,0.000011
 35,0.00000020,0.00000078,-0.00000026,-0.00000249,0.00000500,0.00000069
 ,-0.01452968,0.04125654,-0.00000025,-0.00001226,0.00000797,0.00001646,
 0.00001406,0.00002403,0.00001656,-0.00002478,0.00000087,-0.00002287,0.
 00001618,0.00000098,0.00000006,-0.00001040,-0.00000258,0.00000067,0.00
 000481,-0.00000658,-0.00000736,0.00001042,-0.00004543,0.00000317,0.000
 00105,-0.00000163,-0.00000162,-0.00000552,0.00000048,0.00000555,0.0004
 2242,-0.00008529,-0.00003124,-0.00006851,0.00001686,0.00000035,-0.0000
 1531,-0.00001998,-0.00001194,0.00000528,0.00000846,0.00000034,0.000011
 20,0.00000425,-0.00000220,-0.00000064,0.00000247,0.00002082,0.00000550
 ,-0.00000791,0.00001194,-0.00000507,0.00000930,0.00000451,-0.00000129,
 -0.00000086,0.00000239,-0.00000164,-0.00000481,0.00065631,-0.00065823,
 -0.00159158,0.00316121,-0.00418860,0.00193334,-0.00003989,-0.00566430,
 -0.00171379,0.01450642,0.00261514,0.01263174,0.00069009,-0.00020925,0.
 00065533,-0.02625654,0.00206698,-0.01250610,-0.00104529,0.00002046,-0.
 00011447,0.00099516,0.00158682,-0.00054999,0.00087889,0.00183951,-0.00
 043625,-0.00000123,0.00000123,-0.00000030,-0.00000234,-0.00000177,0.00
 000005,0.00007340,-0.00021158,0.00019420,0.00000994,0.00026730,-0.0002
 9823,0.00008528,-0.00000401,-0.00002029,0.00016623,0.00002197,0.000155
 48,-0.00003317,0.00002274,0.00005381,-0.00001836,-0.00000355,0.0000151
 6,-0.00002420,-0.00006264,-0.00016466,-0.00003364,-0.00001416,0.000004
 26,0.00001054,0.00000923,0.00000385,0.00001192,0.00002321,0.00001001,0
 .00001200,0.00007586,-0.00002202,-0.00000260,-0.00000746,0.00000342,0.
 00000438,-0.00001677,0.00001475,0.00000303,-0.00001027,0.00000140,-0.1
 6817100,-0.01732396,-0.15663220,0.00004512,0.00002655,0.00009535,-0.00
 000226,-0.00000727,-0.00001538,0.00000294,-0.00000286,-0.00000067,-0.0
 0001502,-0.00000641,-0.00000175,0.17432732,0.01947061,0.15839496\\0.00
 000422,-0.00002436,0.00001796,0.00004321,0.00001100,-0.00008047,0.0000
 3662,-0.00002825,0.00002166,0.00000289,-0.00001976,0.00004134,0.000006
 75,0.00000685,0.00001170,0.00000197,-0.00001223,0.00000621,0.00008366,
 0.00007048,-0.00000904,0.00001350,0.00001181,-0.00001792,0.00000615,-0
 .00000749,-0.00000570,-0.00016235,0.00008934,-0.00013469,0.00006067,0.
 00008834,0.00001190,0.00003336,0.00000195,-0.00002661,0.00003376,0.000
 00802,-0.00005551,0.00000212,0.00001154,0.00000492,-0.00002334,-0.0000
 0344,0.00000741,0.00001282,-0.00001955,0.00001179,-0.00003985,0.000035
 61,0.00003972,0.00000108,-0.00000761,0.00000067,0.00000025,0.00001549,
 -0.00000793,0.00000415,0.00002466,0.00000366,-0.00000275,-0.00006779,0
 .00000084,0.00000460,0.00004948,0.00007762,0.00000101,0.00004840,-0.00
 001963,0.00003127,-0.00005901,0.00016378,0.00003408,-0.00000035,0.0000
 1291,0.00002741,-0.00006487,0.00003163,-0.00000185,0.00000625,0.000008
 13,-0.00001505,0.00000916,0.00001409,-0.00000120,0.00000614,0.00000148
 ,0.00000193,-0.00000707,-0.00000145,0.00001906,-0.00000251,-0.00003595
 ,-0.00009768,-0.00011550,0.00001612,0.00002041,0.00002406,-0.00002270,
 0.00000072,-0.00005393,0.00000027,-0.00000781,0.00000886,-0.00002752,-
 0.00002954,0.00000319,0.00000754,-0.00002534,0.00003624,0.00000346,-0.
 00008148,-0.00004155,-0.00005825,0.00000204,0.00000132,0.00000070,0.00
 001847,-0.00000242,-0.00000555,-0.00003024,-0.00001917,-0.00002222,0.0
 0000366,-0.00000320,0.00000654,-0.00000840,0.00001270,0.00000236,0.000
 02090,-0.00002029,0.00001730,0.00000668,-0.00002329,-0.00001180,0.0000
 0883,-0.00001712,0.00001003,-0.00000885,-0.00000260,-0.00001083,0.0000
 0125,0.00001261,-0.00000367,-0.00000404,0.00002689,-0.00000696,-0.0000
 0972,0.00000298,0.00001070\\\@


 PICNIC:  A SNACK IN THE GRASS.
 Job cpu time:       1 days 10 hours 35 minutes  8.3 seconds.
 Elapsed time:       0 days  1 hours 26 minutes 40.6 seconds.
 File lengths (MBytes):  RWF=   2320 Int=      0 D2E=      0 Chk=     48 Scr=     16
 Normal termination of Gaussian 16 at Thu Apr  5 23:30:44 2018.
