Job Start Time: Wed Apr  4 18:00:23 MDT 2018
SLURM Job ID: 747395
SLURM Job Name: TS2_Int3_1Phax_BER_freq_2
 Entering Gaussian System, Link 0=/projects/user/g16/g16
 Initial command:
 /projects/user/g16/l1.exe "/gpfs/summit/scratch/user/747395/Gau-25885.inp" -scrdir="/gpfs/summit/scratch/user/747395/"
 Entering Link 1 = /projects/user/g16/l1.exe PID=     25886.
  
 Copyright (c) 1988,1990,1992,1993,1995,1998,2003,2009,2016,
            Gaussian, Inc.  All Rights Reserved.
  
 This is part of the Gaussian(R) 16 program.  It is based on
 the Gaussian(R) 09 system (copyright 2009, Gaussian, Inc.),
 the Gaussian(R) 03 system (copyright 2003, Gaussian, Inc.),
 the Gaussian(R) 98 system (copyright 1998, Gaussian, Inc.),
 the Gaussian(R) 94 system (copyright 1995, Gaussian, Inc.),
 the Gaussian 92(TM) system (copyright 1992, Gaussian, Inc.),
 the Gaussian 90(TM) system (copyright 1990, Gaussian, Inc.),
 the Gaussian 88(TM) system (copyright 1988, Gaussian, Inc.),
 the Gaussian 86(TM) system (copyright 1986, Carnegie Mellon
 University), and the Gaussian 82(TM) system (copyright 1983,
 Carnegie Mellon University). Gaussian is a federally registered
 trademark of Gaussian, Inc.
  
 This software contains proprietary and confidential information,
 including trade secrets, belonging to Gaussian, Inc.
  
 This software is provided under written license and may be
 used, copied, transmitted, or stored only in accord with that
 written license.
  
 The following legend is applicable only to US Government
 contracts under FAR:
  
                    RESTRICTED RIGHTS LEGEND
  
 Use, reproduction and disclosure by the US Government is
 subject to restrictions as set forth in subparagraphs (a)
 and (c) of the Commercial Computer Software - Restricted
 Rights clause in FAR 52.227-19.
  
 Gaussian, Inc.
 340 Quinnipiac St., Bldg. 40, Wallingford CT 06492
  
  
 ---------------------------------------------------------------
 Warning -- This program may not be used in any manner that
 competes with the business of Gaussian, Inc. or will provide
 assistance to any competitor of Gaussian, Inc.  The licensee
 of this program is prohibited from giving any competitor of
 Gaussian, Inc. access to this program.  By using this program,
 the user acknowledges that Gaussian, Inc. is engaged in the
 business of creating and licensing software in the field of
 computational chemistry and represents and warrants to the
 licensee that it is not a competitor of Gaussian, Inc. and that
 it will not use this program in any manner prohibited above.
 ---------------------------------------------------------------
  

 Cite this work as:
 Gaussian 16, Revision A.03,
 M. J. Frisch, G. W. Trucks, H. B. Schlegel, G. E. Scuseria, 
 M. A. Robb, J. R. Cheeseman, G. Scalmani, V. Barone, 
 G. A. Petersson, H. Nakatsuji, X. Li, M. Caricato, A. V. Marenich, 
 J. Bloino, B. G. Janesko, R. Gomperts, B. Mennucci, H. P. Hratchian, 
 J. V. Ortiz, A. F. Izmaylov, J. L. Sonnenberg, D. Williams-Young, 
 F. Ding, F. Lipparini, F. Egidi, J. Goings, B. Peng, A. Petrone, 
 T. Henderson, D. Ranasinghe, V. G. Zakrzewski, J. Gao, N. Rega, 
 G. Zheng, W. Liang, M. Hada, M. Ehara, K. Toyota, R. Fukuda, 
 J. Hasegawa, M. Ishida, T. Nakajima, Y. Honda, O. Kitao, H. Nakai, 
 T. Vreven, K. Throssell, J. A. Montgomery, Jr., J. E. Peralta, 
 F. Ogliaro, M. J. Bearpark, J. J. Heyd, E. N. Brothers, K. N. Kudin, 
 V. N. Staroverov, T. A. Keith, R. Kobayashi, J. Normand, 
 K. Raghavachari, A. P. Rendell, J. C. Burant, S. S. Iyengar, 
 J. Tomasi, M. Cossi, J. M. Millam, M. Klene, C. Adamo, R. Cammi, 
 J. W. Ochterski, R. L. Martin, K. Morokuma, O. Farkas, 
 J. B. Foresman, and D. J. Fox, Gaussian, Inc., Wallingford CT, 2016.
 
 ******************************************
 Gaussian 16:  ES64L-G16RevA.03 25-Dec-2016
                 4-Apr-2018 
 ******************************************
 %chk=vjf2.chk
 %mem=98GB
 %nprocshared=24
 Will use up to   24 processors via shared memory.
 ----------------------------------------------------------------------
 # freq=noraman wb97xd/6-31+g(d) scrf=(solvent=ethanol,smd) geom=connec
 tivity
 ----------------------------------------------------------------------
 1/10=4,30=1,38=1,57=2/1,3;
 2/12=2,17=6,18=5,40=1/2;
 3/5=1,6=6,7=11,11=2,25=1,30=1,70=32201,71=2,72=4,74=-58,140=1/1,2,3;
 4//1;
 5/5=2,38=5,53=4,98=1/2;
 8/6=4,10=90,11=11/1;
 11/6=1,8=1,9=11,15=111,16=1/1,2,10;
 10/6=1/2;
 6/7=2,8=2,9=2,10=2,28=1/1;
 7/8=1,10=1,25=1/1,2,3,16;
 1/10=4,30=1/3;
 99//99;
 -------------------
 Title Card Required
 -------------------
 Symbolic Z-matrix:
 Charge =  2 Multiplicity = 1
 C                    -2.46741  -1.46693  -3.11695 
 C                    -1.44581  -0.64534  -2.64724 
 C                    -0.85709  -0.91067  -1.40432 
 C                    -1.32465  -1.97628  -0.61922 
 C                    -2.34225  -2.79355  -1.10032 
 H                    -2.91843  -1.26239  -4.08357 
 H                    -1.1178    0.19803  -3.24756 
 H                    -0.90496  -2.16879   0.36543 
 H                    -2.69651  -3.62154  -0.4933 
 P                     0.33408   0.24669  -0.7092 
 C                     1.90576  -0.59438  -0.31709 
 C                     2.99051   0.22853   0.01948 
 C                     2.05214  -1.98293  -0.25193 
 C                     4.18042  -0.35002   0.40898 
 H                     2.9221    1.31012  -0.02474 
 C                     3.26432  -2.51251   0.14197 
 H                     1.25164  -2.66341  -0.51555 
 H                     5.06329   0.21321   0.68382 
 H                     3.46263  -3.57478   0.20903 
 C                    -1.00491   0.42144   1.79753 
 C                    -0.01198  -0.28796   2.48783 
 C                    -2.34306   0.08008   2.00862 
 C                    -0.34821  -1.32576   3.35003 
 H                     1.03703  -0.03859   2.34774 
 C                    -2.68051  -0.96054   2.87445 
 H                    -3.1383    0.62278   1.50863 
 H                     0.43677  -1.8663    3.87168 
 H                    -3.72672  -1.21353   3.0224 
 C                    -2.91191  -2.54171  -2.34848 
 H                    -3.71013  -3.17915  -2.71816 
 O                     0.70717   1.33963  -1.82479 
 C                    -0.61855   1.51442   0.82612 
 C                    -1.66632   2.13498   0.01628 
 C                     0.39495   2.46867   1.27657 
 C                    -1.53101   3.39728  -0.46231 
 H                    -2.53709   1.56337  -0.2833 
 C                     0.45979   3.72278   0.76628 
 H                     1.12986   2.17074   2.01522 
 H                    -2.27145   3.85767  -1.10585 
 H                     1.2163    4.43728   1.06854 
 C                     1.52455   1.03794  -2.98017 
 H                     1.19931   1.71972  -3.76653 
 H                     2.57209   1.22252  -2.73075 
 H                     1.39      0.00206  -3.30223 
 N                     4.27617  -1.68879   0.45926 
 H                     5.16249  -2.10163   0.7474 
 C                    -1.6869   -1.67116   3.54165 
 H                    -1.95116  -2.48487   4.21129 
 N                    -0.46415   4.17361  -0.12881 
 H                    -0.41483   5.12804  -0.46305 
 

 GradGradGradGradGradGradGradGradGradGradGradGradGradGradGradGradGradGrad
 Berny optimization.
 Initialization pass.
 Trust Radius=3.00D-01 FncErr=1.00D-07 GrdErr=1.00D-07 EigMax=2.50D+02 EigMin=1.00D-04
 Number of steps in this run=      2 maximum allowed number of steps=      2.
 GradGradGradGradGradGradGradGradGradGradGradGradGradGradGradGradGradGrad

                          Input orientation:                          
 ---------------------------------------------------------------------
 Center     Atomic      Atomic             Coordinates (Angstroms)
 Number     Number       Type             X           Y           Z
 ---------------------------------------------------------------------
      1          6           0       -2.467413   -1.466928   -3.116946
      2          6           0       -1.445806   -0.645337   -2.647236
      3          6           0       -0.857089   -0.910672   -1.404324
      4          6           0       -1.324652   -1.976281   -0.619220
      5          6           0       -2.342251   -2.793548   -1.100316
      6          1           0       -2.918428   -1.262390   -4.083570
      7          1           0       -1.117799    0.198026   -3.247556
      8          1           0       -0.904963   -2.168788    0.365432
      9          1           0       -2.696508   -3.621535   -0.493304
     10         15           0        0.334084    0.246691   -0.709196
     11          6           0        1.905761   -0.594379   -0.317088
     12          6           0        2.990511    0.228526    0.019479
     13          6           0        2.052136   -1.982930   -0.251928
     14          6           0        4.180418   -0.350019    0.408981
     15          1           0        2.922098    1.310123   -0.024736
     16          6           0        3.264317   -2.512509    0.141968
     17          1           0        1.251637   -2.663409   -0.515553
     18          1           0        5.063285    0.213209    0.683822
     19          1           0        3.462627   -3.574778    0.209026
     20          6           0       -1.004912    0.421438    1.797531
     21          6           0       -0.011978   -0.287960    2.487830
     22          6           0       -2.343063    0.080084    2.008620
     23          6           0       -0.348208   -1.325763    3.350032
     24          1           0        1.037033   -0.038592    2.347739
     25          6           0       -2.680507   -0.960537    2.874450
     26          1           0       -3.138305    0.622777    1.508630
     27          1           0        0.436773   -1.866297    3.871679
     28          1           0       -3.726722   -1.213531    3.022396
     29          6           0       -2.911908   -2.541707   -2.348484
     30          1           0       -3.710127   -3.179148   -2.718160
     31          8           0        0.707170    1.339630   -1.824793
     32          6           0       -0.618547    1.514417    0.826116
     33          6           0       -1.666323    2.134979    0.016284
     34          6           0        0.394952    2.468669    1.276570
     35          6           0       -1.531014    3.397280   -0.462314
     36          1           0       -2.537094    1.563367   -0.283298
     37          6           0        0.459790    3.722780    0.766284
     38          1           0        1.129863    2.170739    2.015222
     39          1           0       -2.271448    3.857674   -1.105852
     40          1           0        1.216297    4.437279    1.068539
     41          6           0        1.524548    1.037938   -2.980168
     42          1           0        1.199308    1.719723   -3.766533
     43          1           0        2.572093    1.222516   -2.730750
     44          1           0        1.389997    0.002059   -3.302228
     45          7           0        4.276166   -1.688789    0.459255
     46          1           0        5.162495   -2.101632    0.747399
     47          6           0       -1.686902   -1.671155    3.541650
     48          1           0       -1.951156   -2.484869    4.211288
     49          7           0       -0.464153    4.173606   -0.128814
     50          1           0       -0.414829    5.128038   -0.463049
 ---------------------------------------------------------------------
                    Distance matrix (angstroms):
                    1          2          3          4          5
     1  C    0.000000
     2  C    1.392595   0.000000
     3  C    2.415707   1.400650   0.000000
     4  C    2.793560   2.428773   1.403754   0.000000
     5  C    2.417102   2.794886   2.417302   1.391002   0.000000
     6  H    1.086100   2.147656   3.398703   3.879624   3.402386
     7  H    2.147228   1.085925   2.166722   3.417389   3.880649
     8  H    3.880826   3.419003   2.171908   1.087537   2.145819
     9  H    3.402692   3.880906   3.400323   2.145858   1.086059
    10  P    4.072117   2.778439   1.800440   2.775087   4.069250
    11  C    5.265472   4.082302   2.985877   3.526543   4.847205
    12  C    6.519253   5.249373   4.257818   4.887713   6.230989
    13  C    5.375957   4.445476   3.307770   3.396711   4.548351
    14  C    7.607451   6.409530   5.383204   5.831614   7.126993
    15  H    6.805924   5.457098   4.595372   5.402661   6.760944
    16  C    6.675814   5.783705   4.684324   4.682476   5.749422
    17  H    4.693628   3.986588   2.882486   2.668362   3.643476
    18  H    8.601169   7.362154   6.377640   6.877320   8.189365
    19  H    7.118321   6.390037   5.325439   5.114609   6.001775
    20  C    5.464149   4.592205   3.471058   3.419353   4.530136
    21  C    6.231584   5.343452   4.031234   3.771909   4.958118
    22  C    5.355384   4.796697   3.852000   3.488745   4.233585
    23  C    6.806817   6.134731   4.799496   4.139031   5.092759
    24  H    6.647110   5.610918   4.292575   4.258526   5.558635
    25  C    6.016533   5.666820   4.651370   3.882758   4.390115
    26  H    5.119855   4.663034   4.005086   3.817353   4.371679
    27  H    7.578567   6.894280   5.515751   4.825235   5.770919
    28  H    6.272287   6.137601   5.284162   4.428667   4.627091
    29  C    1.394008   2.415559   2.788188   2.414424   1.394940
    30  H    2.152920   3.398879   3.874529   3.397489   2.153414
    31  O    4.429944   3.041679   2.772645   4.071483   5.187195
    32  C    5.277733   4.172897   3.303456   3.843508   5.024028
    33  C    4.840724   3.856569   3.456729   4.174094   5.098436
    34  C    6.556298   5.336823   4.491631   5.129195   6.390054
    35  C    5.620003   4.596074   4.460943   5.379811   6.276265
    36  H    4.149350   3.414306   3.193742   3.756590   4.437138
    37  C    7.112036   5.862070   5.283426   6.130510   7.334723
    38  H    7.246528   6.025186   5.013618   5.492058   6.812217
    39  H    5.695111   4.830596   4.982632   5.930284   6.651601
    40  H    8.120817   6.835698   6.246164   7.102021   8.345781
    41  C    4.714744   3.430344   3.457247   4.772581   5.759016
    42  H    4.901179   3.720613   4.089961   5.471417   6.326213
    43  H    5.725284   4.431632   4.250787   5.465847   6.552699
    44  H    4.131811   2.981596   3.079694   4.299032   5.156890
    45  N    7.636380   6.593940   5.516222   5.710948   6.888846
    46  H    8.576218   7.570600   6.502591   6.630719   7.759769
    47  C    6.707295   6.277957   5.072434   4.187740   4.820487
    48  H    7.416585   7.118891   5.933816   4.897446   5.334920
    49  N    6.690113   5.525242   5.256539   6.229130   7.280955
    50  H    7.399314   6.258230   6.127611   7.164043   8.177566
                    6          7          8          9         10
     6  H    0.000000
     7  H    2.464548   0.000000
     8  H    4.966812   4.324441   0.000000
     9  H    4.301723   4.966616   2.461206   0.000000
    10  P    4.923673   2.924655   2.919692   4.918767   0.000000
    11  C    6.156738   4.284561   3.293139   5.511407   1.825189
    12  C    7.346659   5.249063   4.587103   6.886806   2.754615
    13  C    6.317212   4.876356   3.026568   5.029206   2.851667
    14  C    8.450388   6.460783   5.401011   7.668706   4.049774
    15  H    7.563313   5.286218   5.186661   7.490630   2.880484
    16  C    7.592385   6.167561   4.189388   6.096306   4.113870
    17  H    5.664189   4.611494   2.381535   4.062801   3.057464
    18  H    9.413456   7.325419   6.433915   8.735289   4.930209
    19  H    8.030653   6.867482   4.590982   6.199226   5.023399
    20  C    6.409693   5.051293   2.961447   4.945205   2.847302
    21  C    7.251225   5.861201   2.973131   5.215993   3.259844
    22  C    6.264827   5.398386   3.134585   4.481800   3.818560
    23  C    7.865652   6.814864   3.150953   5.055325   4.406298
    24  H    7.648862   6.000551   3.498375   5.903248   3.149663
    25  C    6.968627   6.423650   3.302665   4.292194   4.836081
    26  H    5.905498   5.184994   3.753339   4.713503   4.137352
    27  H    8.654944   7.573746   3.766368   5.652556   5.045759
    28  H    7.151956   6.936229   3.991779   4.384059   5.705013
    29  C    2.155741   3.396070   3.395915   2.157341   4.582455
    30  H    2.482961   4.290190   4.289325   2.484575   5.668152
    31  O    5.001754   2.580315   4.439038   6.162065   1.605698
    32  C    6.091398   4.310098   3.722937   5.695331   2.207220
    33  C    5.469798   3.834751   4.384516   5.870129   2.844922
    34  C    7.323277   5.283176   4.901628   7.055506   2.980630
    35  C    6.062255   4.261871   5.661998   7.114991   3.669571
    36  H    4.751040   3.558845   4.124765   5.191601   3.187270
    37  C    7.732099   5.569882   6.060842   8.092450   3.778364
    38  H    8.085190   6.053133   5.068907   7.381345   3.428947
    39  H    5.958225   4.394408   6.352181   7.516280   4.470496
    40  H    8.725045   6.484439   6.973824   9.093618   4.636774
    41  C    5.123382   2.785488   5.232462   6.761102   2.683392
    42  H    5.094042   2.820263   6.051579   7.377022   3.502249
    43  H    6.176625   3.864191   5.759966   7.498610   3.169795
    44  H    4.557615   2.516035   4.840573   6.141662   2.810447
    45  N    8.519463   6.811415   5.204162   7.298017   4.544378
    46  H    9.452190   7.790391   6.079840   8.100208   5.563258
    47  C    7.734838   7.064774   3.308690   4.593924   5.082540
    48  H    8.440067   7.970368   3.998129   4.897014   6.074118
    49  N    7.156369   5.095002   6.376877   8.116679   4.049035
    50  H    7.759752   5.705494   7.360046   9.042234   4.944594
                   11         12         13         14         15
    11  C    0.000000
    12  C    1.402545   0.000000
    13  C    1.397764   2.417591   0.000000
    14  C    2.400198   1.379241   2.762749   0.000000
    15  H    2.178426   1.084660   3.413598   2.127804   0.000000
    16  C    2.394917   2.757398   1.380214   2.363662   3.841539
    17  H    2.179025   3.416611   1.083212   3.845035   4.338237
    18  H    3.409395   2.176690   3.842613   1.082690   2.507979
    19  H    3.403440   3.837179   2.176222   3.309725   4.920272
    20  C    3.738384   4.377452   4.396227   5.423178   4.419483
    21  C    3.411624   3.921027   3.826194   4.679920   4.180390
    22  C    4.890432   5.694359   5.355733   6.730501   5.776630
    23  C    4.366127   4.965425   4.378086   5.487286   5.388122
    24  H    2.857427   3.050938   3.401346   3.706297   3.316797
    25  C    5.599450   6.459503   5.763457   7.315980   6.704503
    26  H    5.500665   6.319445   6.068769   7.464534   6.289049
    27  H    4.617518   5.074377   4.430252   5.320174   5.607899
    28  H    6.577261   7.497884   6.686432   8.372482   7.736966
    29  C    5.579300   6.936857   5.417519   7.918851   7.366955
    30  H    6.632072   8.000341   6.380981   8.946713   8.449526
    31  O    2.729503   3.138397   3.914364   4.461851   2.854292
    32  C    3.482250   3.915288   4.530581   5.165287   3.647170
    33  C    4.507806   5.031965   5.554822   6.365046   4.662154
    34  C    3.768893   3.651773   4.989920   4.798694   3.069543
    35  C    5.269332   5.542320   6.467603   6.886353   4.937399
    36  H    4.939228   5.694549   5.799848   7.018922   5.471176
    37  C    4.679999   4.378593   6.010611   5.527968   3.536889
    38  H    3.699671   3.349208   4.821154   4.270845   2.848543
    39  H    6.155648   6.490400   7.316777   7.850221   5.884875
    40  H    5.264305   4.686359   6.607673   5.669149   3.726139
    41  C    3.146709   3.435415   4.104545   4.523981   3.280520
    42  H    4.213409   4.445893   5.175848   5.532248   4.139665
    43  H    3.093682   2.954124   4.085315   3.862316   2.729962
    44  H    3.087525   3.694140   3.699046   4.656552   3.847118
    45  N    2.723832   2.349981   2.353425   1.343131   3.325841
    46  H    3.743162   3.267571   3.269110   2.036455   4.153991
    47  C    5.381127   6.155702   5.335620   6.781184   6.545992
    48  H    6.241470   7.025229   6.016526   7.524050   7.489624
    49  N    5.327816   5.245984   6.652053   6.505724   4.435884
    50  H    6.176771   5.986183   7.529698   7.203183   5.089565
                   16         17         18         19         20
    16  C    0.000000
    17  H    2.122731   0.000000
    18  H    3.310503   4.923626   0.000000
    19  H    1.082700   2.498817   4.139611   0.000000
    20  C    5.438313   4.467511   6.173064   6.200967   0.000000
    21  C    4.602803   4.032343   5.409613   5.298019   1.402026
    22  C    6.453576   5.178810   7.525078   7.092432   1.397043
    23  C    4.974975   4.392215   6.225863   5.426458   2.427804
    24  H    3.993305   3.890265   4.363798   4.791890   2.164231
    25  C    6.724285   5.463849   8.132825   7.188660   2.424299
    26  H    7.258881   5.845334   8.253129   7.929738   2.162260
    27  H    4.724758   4.532901   5.990942   5.048735   3.407973
    28  H    7.671951   6.277204   9.206994   8.073245   3.403185
    29  C    6.659501   4.550775   8.965944   6.945703   5.441167
    30  H    7.567537   5.453124  10.002716   7.757148   6.377607
    31  O    5.024552   4.246749   5.151477   5.990022   4.110418
    32  C    5.635674   4.769895   5.830661   6.552609   1.512458
    33  C    6.776884   5.641088   7.030393   7.677539   2.558618
    34  C    5.859412   5.503075   5.218408   6.861015   2.534201
    35  C    7.634524   6.669178   7.411931   8.602136   3.773502
    36  H    7.102815   5.681026   7.779718   7.914516   2.825143
    37  C    6.865418   6.561519   5.789305   7.910873   3.756019
    38  H    5.477023   5.457897   4.590900   6.458723   2.768521
    39  H    8.531177   7.435395   8.383518   9.478917   4.673485
    40  H    7.304278   7.275326   5.726263   8.365275   4.646738
    41  C    5.037877   4.455197   5.160200   5.933318   5.441015
    42  H    6.119839   5.457422   6.083220   6.997101   6.123964
    43  H    4.762572   4.663809   4.345577   5.696434   5.825978
    44  H    4.658177   3.858681   5.424594   5.423879   5.649691
    45  N    1.342767   3.323840   2.070648   2.069158   5.842416
    46  H    2.034317   4.147945   2.317838   2.312911   6.745782
    47  C    6.064675   5.106905   7.568556   6.422446   2.808204
    48  H    6.615232   5.712511   8.302110   6.820194   3.894640
    49  N    7.660218   7.059623   6.848189   8.693169   4.252292
    50  H    8.501772   7.967842   7.448529   9.551197   5.254570
                   21         22         23         24         25
    21  C    0.000000
    22  C    2.408123   0.000000
    23  C    1.390496   2.784823   0.000000
    24  H    1.087306   3.399137   2.140162   0.000000
    25  C    2.779007   1.395142   2.408150   3.866201   0.000000
    26  H    3.400323   1.084857   3.869394   4.309868   2.140544
    27  H    2.146524   3.871289   1.086503   2.454223   3.395924
    28  H    3.865458   2.148417   3.396218   4.952677   1.086490
    29  C    6.072800   5.116808   6.365859   6.626781   5.461930
    30  H    7.009822   5.902026   7.180563   7.619839   6.104067
    31  O    4.665291   5.058204   5.915823   4.406623   6.232977
    32  C    2.525427   2.535662   3.809181   2.732786   3.817427
    33  C    3.836148   2.941084   4.982774   4.179501   4.333578
    34  C    3.038379   3.706476   4.387396   2.801076   4.875564
    35  C    4.959013   4.215297   6.183862   5.128009   5.607664
    36  H    4.181241   2.736908   5.132191   4.718370   4.045001
    37  C    4.390025   4.761157   5.728560   4.120938   6.019908
    38  H    2.751792   4.053652   4.023921   2.236141   5.006204
    39  H    5.933467   4.896453   7.100829   6.168811   6.263010
    40  H    5.084381   5.704204   6.392616   4.658531   6.898030
    41  C    5.832488   6.384662   7.011828   5.457397   7.480170
    42  H    6.679451   6.970595   7.894003   6.364144   8.144901
    43  H    6.016023   6.922827   7.210950   5.453242   7.985850
    44  H    5.964429   6.492067   7.002645   5.661127   7.459688
    45  N    4.946273   7.024503   5.465639   4.096523   7.399920
    46  H    5.752710   7.917321   6.143575   4.882280   8.206042
    47  C    2.414360   2.418174   1.395749   3.392714   1.391900
    48  H    3.399578   3.403575   2.157483   4.287932   2.154687
    49  N    5.192000   4.985564   6.508369   5.111701   6.347538
    50  H    6.180858   5.942144   7.496371   6.058259   7.303625
                   26         27         28         29         30
    26  H    0.000000
    27  H    4.955873   0.000000
    28  H    2.451479   4.299078   0.000000
    29  C    4.994251   7.096497   5.592345   0.000000
    30  H    5.713788   7.895970   6.067776   1.086345   0.000000
    31  O    5.139384   6.542238   7.047927   5.332612   6.382004
    32  C    2.758628   4.671015   4.682531   5.638238   6.644495
    33  C    2.584682   5.941152   4.949189   5.386557   6.316191
    34  C    3.993128   5.052551   5.796094   7.012860   8.044090
    35  C    3.763758   7.096543   6.182549   6.382482   7.286068
    36  H    2.111201   6.153886   4.478168   4.610543   5.458572
    37  C    4.807014   6.393887   6.854494   7.766204   8.784428
    38  H    4.568378   4.497162   6.004507   7.588477   8.628540
    39  H    4.248708   8.054447   6.699058   6.550298   7.361128
    40  H    5.805744   6.942645   7.757748   8.799112   9.829481
    41  C    6.485666   7.521013   8.287082   5.735418   6.727131
    42  H    6.917046   8.472501   8.885905   6.088739   7.014312
    43  H    7.137274   7.595553   8.871758   6.662565   7.670795
    44  H    6.635900   7.474245   8.225530   5.087903   6.039245
    45  N    7.837021   5.139755   8.416756   7.763973   8.723417
    46  H    8.769559   5.670005   9.218596   8.658761   9.586165
    47  C    3.391440   2.158007   2.154045   6.078830   6.749274
    48  H    4.286158   2.490014   2.486443   6.629999   7.182844
    49  N    4.737161   7.300414   7.042423   7.484241   8.444173
    50  H    5.621585   8.272594   7.958169   8.283433   9.217041
                   31         32         33         34         35
    31  O    0.000000
    32  C    2.969073   0.000000
    33  C    3.107348   1.462450   0.000000
    34  C    3.315217   1.463108   2.438960   0.000000
    35  C    3.331627   2.457198   1.356749   2.755972   0.000000
    36  H    3.598821   2.216758   1.083850   3.442333   2.099400
    37  C    3.529062   2.458304   2.757529   1.355504   2.361928
    38  H    3.951598   2.213971   3.437396   1.083727   3.837037
    39  H    3.966054   3.457663   2.143139   3.836008   1.083673
    40  H    4.269193   3.459558   3.836316   2.143201   3.312526
    41  C    1.447072   4.394051   4.512636   4.630637   4.608963
    42  H    2.038878   4.943599   4.763820   5.161472   4.602903
    43  H    2.076635   4.787138   5.132539   4.727732   5.168258
    44  H    2.106695   4.833705   4.990287   5.295250   5.303295
    45  N    5.208256   5.861171   7.080297   5.745980   7.774363
    46  H    6.189376   6.819271   8.069458   6.625492   8.746685
    47  C    6.602660   4.320113   5.187994   5.157795   6.461042
    48  H    7.624157   5.406434   6.246774   6.217261   7.524543
    49  N    3.504249   2.829667   2.371132   2.370649   1.360918
    50  H    4.179146   3.842096   3.279390   3.279369   2.059464
                   36         37         38         39         40
    36  H    0.000000
    37  C    3.840052   0.000000
    38  H    4.370202   2.101827   0.000000
    39  H    2.451736   3.314023   4.914852   0.000000
    40  H    4.916785   1.083591   2.457821   4.150697   0.000000
    41  C    4.903684   4.730538   5.137406   5.086606   5.295523
    42  H    5.110584   5.010544   5.799735   4.867875   5.546469
    43  H    5.675385   4.789822   5.050090   5.748412   5.158244
    44  H    5.193618   5.591229   5.748575   5.752914   6.229362
    45  N    7.586067   6.629032   5.216916   8.722618   6.874790
    46  H    8.589425   7.485958   6.010212   9.706254   7.644146
    47  C    5.080865   6.434709   5.002429   7.246304   7.201237
    48  H    6.077240   7.497708   5.999172   8.282658   8.235640
    49  N    3.336809   1.363127   3.339050   2.078637   2.080166
    50  H    4.152493   2.061788   4.156142   2.339670   2.341684
                   41         42         43         44         45
    41  C    0.000000
    42  H    1.090404   0.000000
    43  H    1.092533   1.790140   0.000000
    44  H    1.093102   1.789500   1.792611   0.000000
    45  N    5.180354   6.240376   4.642811   5.033656   0.000000
    46  H    6.081637   7.119353   5.464217   5.920873   1.019336
    47  C    7.758009   8.557909   8.115132   7.688018   6.712648
    48  H    8.729704   9.552468   9.077245   8.590753   7.313757
    49  N    4.681620   4.692722   4.969687   5.559697   7.562019
    50  H    5.179381   5.013487   5.414543   6.131394   8.326176
                   46         47         48         49         50
    46  H    0.000000
    47  C    7.409952   0.000000
    48  H    7.921454   1.086451   0.000000
    49  N    8.473814   7.009183   8.085973   0.000000
    50  H    9.210855   7.992797   9.064551   1.012465   0.000000
 Stoichiometry    C23H23N2OP(2+)
 Framework group  C1[X(C23H23N2OP)]
 Deg. of freedom   144
 Full point group                 C1      NOp   1
 Largest Abelian subgroup         C1      NOp   1
 Largest concise Abelian subgroup C1      NOp   1
                         Standard orientation:                         
 ---------------------------------------------------------------------
 Center     Atomic      Atomic             Coordinates (Angstroms)
 Number     Number       Type             X           Y           Z
 ---------------------------------------------------------------------
      1          6           0       -2.467413   -1.466929   -3.116946
      2          6           0       -1.445806   -0.645337   -2.647236
      3          6           0       -0.857089   -0.910672   -1.404324
      4          6           0       -1.324651   -1.976281   -0.619220
      5          6           0       -2.342250   -2.793549   -1.100316
      6          1           0       -2.918428   -1.262391   -4.083570
      7          1           0       -1.117799    0.198026   -3.247556
      8          1           0       -0.904962   -2.168788    0.365432
      9          1           0       -2.696507   -3.621536   -0.493304
     10         15           0        0.334084    0.246691   -0.709196
     11          6           0        1.905761   -0.594378   -0.317088
     12          6           0        2.990511    0.228527    0.019479
     13          6           0        2.052137   -1.982929   -0.251928
     14          6           0        4.180418   -0.350018    0.408981
     15          1           0        2.922098    1.310124   -0.024736
     16          6           0        3.264318   -2.512508    0.141968
     17          1           0        1.251638   -2.663409   -0.515553
     18          1           0        5.063285    0.213211    0.683822
     19          1           0        3.462628   -3.574777    0.209026
     20          6           0       -1.004912    0.421438    1.797531
     21          6           0       -0.011978   -0.287960    2.487830
     22          6           0       -2.343063    0.080083    2.008620
     23          6           0       -0.348208   -1.325763    3.350032
     24          1           0        1.037033   -0.038592    2.347739
     25          6           0       -2.680507   -0.960538    2.874450
     26          1           0       -3.138305    0.622776    1.508630
     27          1           0        0.436774   -1.866297    3.871679
     28          1           0       -3.726722   -1.213532    3.022396
     29          6           0       -2.911907   -2.541708   -2.348484
     30          1           0       -3.710126   -3.179149   -2.718160
     31          8           0        0.707170    1.339630   -1.824793
     32          6           0       -0.618547    1.514417    0.826116
     33          6           0       -1.666324    2.134978    0.016284
     34          6           0        0.394951    2.468669    1.276570
     35          6           0       -1.531015    3.397279   -0.462314
     36          1           0       -2.537095    1.563366   -0.283298
     37          6           0        0.459789    3.722780    0.766284
     38          1           0        1.129862    2.170739    2.015222
     39          1           0       -2.271449    3.857673   -1.105852
     40          1           0        1.216296    4.437279    1.068539
     41          6           0        1.524548    1.037938   -2.980168
     42          1           0        1.199307    1.719723   -3.766533
     43          1           0        2.572093    1.222517   -2.730750
     44          1           0        1.389997    0.002059   -3.302228
     45          7           0        4.276167   -1.688788    0.459255
     46          1           0        5.162496   -2.101630    0.747399
     47          6           0       -1.686901   -1.671156    3.541650
     48          1           0       -1.951155   -2.484870    4.211288
     49          7           0       -0.464154    4.173606   -0.128814
     50          1           0       -0.414831    5.128038   -0.463049
 ---------------------------------------------------------------------
 Rotational constants (GHZ):           0.1953993           0.1827671           0.1712991
 Standard basis: 6-31+G(d) (6D, 7F)
 There are   563 symmetry adapted cartesian basis functions of A   symmetry.
 There are   563 symmetry adapted basis functions of A   symmetry.
   563 basis functions,   980 primitive gaussians,   563 cartesian basis functions
    98 alpha electrons       98 beta electrons
       nuclear repulsion energy      2700.2007792535 Hartrees.
 NAtoms=   50 NActive=   50 NUniq=   50 SFac= 1.00D+00 NAtFMM=   60 NAOKFM=F Big=F
 Integral buffers will be    131072 words long.
 Raffenetti 2 integral format.
 Two-electron integral symmetry is turned on.
 Nuclear repulsion after empirical dispersion term =     2700.1530992799 Hartrees.
 Force inversion solution in PCM.
 ------------------------------------------------------------------------------
 Polarizable Continuum Model (PCM)
 =================================
 Model                : PCM.
 Atomic radii         : SMD-Coulomb.
 Polarization charges : Total charges.
 Charge compensation  : None.
 Solution method      : Matrix inversion.
 Cavity type          : VdW (van der Waals Surface) (Alpha=1.000).
 Cavity algorithm     : GePol (No added spheres)
                        Default sphere list used, NSphG=   50.
                        Lebedev-Laikov grids with approx.  5.0 points / Ang**2.
                        Smoothing algorithm: York/Karplus (Gamma=1.0000).
                        Polarization charges: spherical gaussians, with
                                              point-specific exponents (IZeta= 3).
                        Self-potential: point-specific (ISelfS= 7).
                        Self-field    : sphere-specific E.n sum rule (ISelfD= 2).
 1st derivatives      : Analytical E(r).r(x)/FMM algorithm (CHGder, D1EAlg=3).
                        Cavity 1st derivative terms included.
 2nd derivatives      : Analytical E(r).r(xy)/FMM algorithm (CHGder, D2EAlg=3).
                        Cavity 2nd derivative terms included.
 Solvent              : Ethanol, Eps=  24.852000 Eps(inf)=   1.852593
 ------------------------------------------------------------------------------
 ------------------------------------------------------------------------------
 Atomic radii for non-electrostatic terms: SMD-CDS.
 ------------------------------------------------------------------------------
 Nuclear repulsion after PCM non-electrostatic terms =     2700.1520520850 Hartrees.
 One-electron integrals computed using PRISM.
 NBasis=   563 RedAO= T EigKep=  1.21D-06  NBF=   563
 NBsUse=   561 1.00D-06 EigRej=  8.33D-07 NBFU=   561
 ExpMin= 3.48D-02 ExpMax= 1.94D+04 ExpMxC= 2.91D+03 IAcc=3 IRadAn=         5 AccDes= 0.00D+00
 Harris functional with IExCor= 4639 and IRadAn=       5 diagonalized for initial guess.
 HarFok:  IExCor= 4639 AccDes= 0.00D+00 IRadAn=         5 IDoV= 1 UseB2=F ITyADJ=14
 ICtDFT=  3500011 ScaDFX=  1.000000  1.000000  1.000000  1.000000
 FoFCou: FMM=F IPFlag=           0 FMFlag=      100000 FMFlg1=           0
         NFxFlg=           0 DoJE=T BraDBF=F KetDBF=T FulRan=T
         wScrn=  0.000000 ICntrl=       500 IOpCl=  0 I1Cent=   200000004 NGrid=           0
         NMat0=    1 NMatS0=      1 NMatT0=    0 NMatD0=    1 NMtDS0=    0 NMtDT0=    0
 Petite list used in FoFCou.
 Requested convergence on RMS density matrix=1.00D-08 within 128 cycles.
 Requested convergence on MAX density matrix=1.00D-06.
 Requested convergence on             energy=1.00D-06.
 No special actions if energy rises.
 Inv3:  Mode=1 IEnd=    41336832.
 Iteration    1 A*A^-1 deviation from unit magnitude is 2.20D-14 for   3693.
 Iteration    1 A*A^-1 deviation from orthogonality  is 4.26D-15 for   1277    395.
 Iteration    1 A^-1*A deviation from unit magnitude is 2.20D-14 for   3693.
 Iteration    1 A^-1*A deviation from orthogonality  is 2.11D-15 for   2191   2160.
 Error on total polarization charges =  0.05702
 SCF Done:  E(RwB97XD) =  -1415.72726188     A.U. after   18 cycles
            NFock= 18  Conv=0.69D-08     -V/T= 2.0081
 SMD-CDS (non-electrostatic) energy       (kcal/mol) =      -0.66
 (included in total energy above)
 DoSCS=F DFT=T ScalE2(SS,OS)=  1.000000  1.000000
 Range of M.O.s used for correlation:     1   561
 NBasis=   563 NAE=    98 NBE=    98 NFC=     0 NFV=     0
 NROrb=    561 NOA=    98 NOB=    98 NVA=   463 NVB=   463

 **** Warning!!: The largest alpha MO coefficient is  0.14191352D+03

 Symmetrizing basis deriv contribution to polar:
 IMax=3 JMax=2 DiffMx= 0.00D+00
 G2DrvN: will do    51 centers at a time, making    1 passes.
 Calling FoFCou, ICntrl=  3107 FMM=F I1Cent=   0 AccDes= 0.00D+00.
 NEqPCM:  Using equilibrium solvation (IEInf=0, Eps=  24.8520, EpsInf=   1.8526)
 G2PCM: DoFxE=T DoFxN=T DoGrad=T DoDP/DQ/DG/TGxP=FFFF NFrqRd=   0 IEInf=0 SqF1=F DoCFld=F IF1Alg=4.
 End of G2Drv F.D. properties file   721 does not exist.
 End of G2Drv F.D. properties file   722 does not exist.
 End of G2Drv F.D. properties file   788 does not exist.
          IDoAtm=11111111111111111111111111111111111111111111111111
 NEqPCM:  Using equilibrium solvation (IEInf=0, Eps=  24.8520, EpsInf=   1.8526)
          Differentiating once with respect to electric field.
                with respect to dipole field.
          Differentiating once with respect to nuclear coordinates.
 CalDSu exits because no D1Ps are significant.
          There are   153 degrees of freedom in the 1st order CPHF.  IDoFFX=6 NUNeed=     3.
    150 vectors produced by pass  0 Test12= 4.54D-14 1.00D-09 XBig12= 2.14D+02 6.44D+00.
 AX will form   150 AO Fock derivatives at one time.
    150 vectors produced by pass  1 Test12= 4.54D-14 1.00D-09 XBig12= 1.28D+01 7.23D-01.
    150 vectors produced by pass  2 Test12= 4.54D-14 1.00D-09 XBig12= 3.44D-01 7.07D-02.
    150 vectors produced by pass  3 Test12= 4.54D-14 1.00D-09 XBig12= 3.80D-03 7.92D-03.
    150 vectors produced by pass  4 Test12= 4.54D-14 1.00D-09 XBig12= 2.77D-05 6.59D-04.
    150 vectors produced by pass  5 Test12= 4.54D-14 1.00D-09 XBig12= 1.92D-07 4.06D-05.
    150 vectors produced by pass  6 Test12= 4.54D-14 1.00D-09 XBig12= 1.26D-09 2.10D-06.
     63 vectors produced by pass  7 Test12= 4.54D-14 1.00D-09 XBig12= 7.46D-12 1.37D-07.
      3 vectors produced by pass  8 Test12= 4.54D-14 1.00D-09 XBig12= 7.54D-14 1.57D-08.
      3 vectors produced by pass  9 Test12= 4.54D-14 1.00D-09 XBig12= 1.76D-14 8.67D-09.
      3 vectors produced by pass 10 Test12= 4.54D-14 1.00D-09 XBig12= 9.94D-16 2.15D-09.
      2 vectors produced by pass 11 Test12= 4.54D-14 1.00D-09 XBig12= 3.33D-16 1.59D-09.
 InvSVY:  IOpt=1 It=  1 EMax= 2.66D-14
 Solved reduced A of dimension  1124 with   153 vectors.
 Isotropic polarizability for W=    0.000000      459.51 Bohr**3.
 End of Minotr F.D. properties file   721 does not exist.
 End of Minotr F.D. properties file   722 does not exist.
 End of Minotr F.D. properties file   788 does not exist.

 **********************************************************************

            Population analysis using the SCF density.

 **********************************************************************

 Orbital symmetries:
       Occupied  (A) (A) (A) (A) (A) (A) (A) (A) (A) (A) (A) (A)
                 (A) (A) (A) (A) (A) (A) (A) (A) (A) (A) (A) (A)
                 (A) (A) (A) (A) (A) (A) (A) (A) (A) (A) (A) (A)
                 (A) (A) (A) (A) (A) (A) (A) (A) (A) (A) (A) (A)
                 (A) (A) (A) (A) (A) (A) (A) (A) (A) (A) (A) (A)
                 (A) (A) (A) (A) (A) (A) (A) (A) (A) (A) (A) (A)
                 (A) (A) (A) (A) (A) (A) (A) (A) (A) (A) (A) (A)
                 (A) (A) (A) (A) (A) (A) (A) (A) (A) (A) (A) (A)
                 (A) (A)
       Virtual   (A) (A) (A) (A) (A) (A) (A) (A) (A) (A) (A) (A)
                 (A) (A) (A) (A) (A) (A) (A) (A) (A) (A) (A) (A)
                 (A) (A) (A) (A) (A) (A) (A) (A) (A) (A) (A) (A)
                 (A) (A) (A) (A) (A) (A) (A) (A) (A) (A) (A) (A)
                 (A) (A) (A) (A) (A) (A) (A) (A) (A) (A) (A) (A)
                 (A) (A) (A) (A) (A) (A) (A) (A) (A) (A) (A) (A)
                 (A) (A) (A) (A) (A) (A) (A) (A) (A) (A) (A) (A)
                 (A) (A) (A) (A) (A) (A) (A) (A) (A) (A) (A) (A)
                 (A) (A) (A) (A) (A) (A) (A) (A) (A) (A) (A) (A)
                 (A) (A) (A) (A) (A) (A) (A) (A) (A) (A) (A) (A)
                 (A) (A) (A) (A) (A) (A) (A) (A) (A) (A) (A) (A)
                 (A) (A) (A) (A) (A) (A) (A) (A) (A) (A) (A) (A)
                 (A) (A) (A) (A) (A) (A) (A) (A) (A) (A) (A) (A)
                 (A) (A) (A) (A) (A) (A) (A) (A) (A) (A) (A) (A)
                 (A) (A) (A) (A) (A) (A) (A) (A) (A) (A) (A) (A)
                 (A) (A) (A) (A) (A) (A) (A) (A) (A) (A) (A) (A)
                 (A) (A) (A) (A) (A) (A) (A) (A) (A) (A) (A) (A)
                 (A) (A) (A) (A) (A) (A) (A) (A) (A) (A) (A) (A)
                 (A) (A) (A) (A) (A) (A) (A) (A) (A) (A) (A) (A)
                 (A) (A) (A) (A) (A) (A) (A) (A) (A) (A) (A) (A)
                 (A) (A) (A) (A) (A) (A) (A) (A) (A) (A) (A) (A)
                 (A) (A) (A) (A) (A) (A) (A) (A) (A) (A) (A) (A)
                 (A) (A) (A) (A) (A) (A) (A) (A) (A) (A) (A) (A)
                 (A) (A) (A) (A) (A) (A) (A) (A) (A) (A) (A) (A)
                 (A) (A) (A) (A) (A) (A) (A) (A) (A) (A) (A) (A)
                 (A) (A) (A) (A) (A) (A) (A) (A) (A) (A) (A) (A)
                 (A) (A) (A) (A) (A) (A) (A) (A) (A) (A) (A) (A)
                 (A) (A) (A) (A) (A) (A) (A) (A) (A) (A) (A) (A)
                 (A) (A) (A) (A) (A) (A) (A) (A) (A) (A) (A) (A)
                 (A) (A) (A) (A) (A) (A) (A) (A) (A) (A) (A) (A)
                 (A) (A) (A) (A) (A) (A) (A) (A) (A) (A) (A) (A)
                 (A) (A) (A) (A) (A) (A) (A) (A) (A) (A) (A) (A)
                 (A) (A) (A) (A) (A) (A) (A) (A) (A) (A) (A) (A)
                 (A) (A) (A) (A) (A) (A) (A) (A) (A) (A) (A) (A)
                 (A) (A) (A) (A) (A) (A) (A) (A) (A) (A) (A) (A)
                 (A) (A) (A) (A) (A) (A) (A) (A) (A) (A) (A) (A)
                 (A) (A) (A) (A) (A) (A) (A) (A) (A) (A) (A) (A)
                 (A) (A) (A) (A) (A) (A) (A) (A) (A) (A) (A) (A)
                 (A) (A) (A) (A) (A) (A) (A)
 The electronic state is 1-A.
 Alpha  occ. eigenvalues --  -77.35183 -19.33756 -14.58808 -14.52787 -10.40565
 Alpha  occ. eigenvalues --  -10.40557 -10.39087 -10.38779 -10.36974 -10.36907
 Alpha  occ. eigenvalues --  -10.36449 -10.36394 -10.36150 -10.34381 -10.33520
 Alpha  occ. eigenvalues --  -10.33193 -10.33153 -10.32371 -10.32213 -10.32142
 Alpha  occ. eigenvalues --  -10.32131 -10.32130 -10.31914 -10.31798 -10.31684
 Alpha  occ. eigenvalues --  -10.31587 -10.31521  -6.77356  -4.92359  -4.92063
 Alpha  occ. eigenvalues --   -4.91805  -1.18128  -1.15456  -1.10286  -0.98975
 Alpha  occ. eigenvalues --   -0.98231  -0.97618  -0.94281  -0.93335  -0.89623
 Alpha  occ. eigenvalues --   -0.88513  -0.86849  -0.86382  -0.86035  -0.83936
 Alpha  occ. eigenvalues --   -0.80596  -0.79782  -0.77865  -0.75813  -0.74035
 Alpha  occ. eigenvalues --   -0.72141  -0.71635  -0.70952  -0.69881  -0.68897
 Alpha  occ. eigenvalues --   -0.68183  -0.64623  -0.62858  -0.62713  -0.61634
 Alpha  occ. eigenvalues --   -0.60311  -0.59842  -0.59536  -0.58443  -0.57699
 Alpha  occ. eigenvalues --   -0.57230  -0.56933  -0.56115  -0.55447  -0.55261
 Alpha  occ. eigenvalues --   -0.54872  -0.54560  -0.54023  -0.53494  -0.52707
 Alpha  occ. eigenvalues --   -0.52318  -0.51446  -0.50650  -0.49954  -0.49361
 Alpha  occ. eigenvalues --   -0.48859  -0.47748  -0.46553  -0.46024  -0.45420
 Alpha  occ. eigenvalues --   -0.44468  -0.43945  -0.43699  -0.43592  -0.42682
 Alpha  occ. eigenvalues --   -0.40885  -0.39540  -0.37353  -0.35877  -0.35386
 Alpha  occ. eigenvalues --   -0.34268  -0.33665  -0.28667
 Alpha virt. eigenvalues --   -0.05307  -0.00193   0.00676   0.02339   0.03219
 Alpha virt. eigenvalues --    0.03804   0.04595   0.04771   0.05606   0.05676
 Alpha virt. eigenvalues --    0.06286   0.06450   0.07435   0.07827   0.08087
 Alpha virt. eigenvalues --    0.08426   0.08580   0.08651   0.09483   0.09871
 Alpha virt. eigenvalues --    0.10001   0.10282   0.10605   0.10718   0.11112
 Alpha virt. eigenvalues --    0.11402   0.11678   0.12719   0.12927   0.13258
 Alpha virt. eigenvalues --    0.13328   0.13436   0.13829   0.14036   0.14532
 Alpha virt. eigenvalues --    0.14905   0.15019   0.15334   0.15825   0.16119
 Alpha virt. eigenvalues --    0.16281   0.16968   0.17096   0.17480   0.17780
 Alpha virt. eigenvalues --    0.17968   0.18180   0.18345   0.18713   0.19172
 Alpha virt. eigenvalues --    0.19252   0.19343   0.19794   0.19946   0.20229
 Alpha virt. eigenvalues --    0.20351   0.20694   0.20923   0.21208   0.21392
 Alpha virt. eigenvalues --    0.21788   0.22148   0.22539   0.22599   0.23165
 Alpha virt. eigenvalues --    0.23171   0.23423   0.23576   0.23701   0.23868
 Alpha virt. eigenvalues --    0.24133   0.24264   0.24625   0.24882   0.25121
 Alpha virt. eigenvalues --    0.25485   0.25542   0.25814   0.26159   0.26440
 Alpha virt. eigenvalues --    0.26829   0.26961   0.27167   0.27529   0.27784
 Alpha virt. eigenvalues --    0.27869   0.28208   0.28398   0.28901   0.29068
 Alpha virt. eigenvalues --    0.29287   0.29451   0.29681   0.30100   0.30314
 Alpha virt. eigenvalues --    0.30453   0.30699   0.30746   0.30776   0.31333
 Alpha virt. eigenvalues --    0.31550   0.31746   0.31870   0.32277   0.32516
 Alpha virt. eigenvalues --    0.32722   0.32921   0.33002   0.33233   0.33543
 Alpha virt. eigenvalues --    0.33834   0.34097   0.34264   0.34592   0.35146
 Alpha virt. eigenvalues --    0.35271   0.35630   0.35851   0.36079   0.36245
 Alpha virt. eigenvalues --    0.36670   0.36743   0.36900   0.37397   0.37613
 Alpha virt. eigenvalues --    0.38078   0.38489   0.38665   0.38932   0.39154
 Alpha virt. eigenvalues --    0.39647   0.40143   0.40332   0.40560   0.40951
 Alpha virt. eigenvalues --    0.41326   0.41749   0.41955   0.42141   0.42465
 Alpha virt. eigenvalues --    0.42773   0.43484   0.43858   0.44451   0.45217
 Alpha virt. eigenvalues --    0.45799   0.46050   0.46340   0.46917   0.47059
 Alpha virt. eigenvalues --    0.47865   0.47886   0.48890   0.49168   0.50769
 Alpha virt. eigenvalues --    0.51186   0.51678   0.52667   0.53548   0.54046
 Alpha virt. eigenvalues --    0.54977   0.57677   0.58571   0.59352   0.62912
 Alpha virt. eigenvalues --    0.63614   0.64495   0.65452   0.66949   0.68560
 Alpha virt. eigenvalues --    0.68900   0.70726   0.72941   0.73491   0.75754
 Alpha virt. eigenvalues --    0.76140   0.76960   0.77469   0.77909   0.78626
 Alpha virt. eigenvalues --    0.78872   0.79381   0.80061   0.80219   0.81163
 Alpha virt. eigenvalues --    0.81435   0.82039   0.82211   0.82951   0.83212
 Alpha virt. eigenvalues --    0.83781   0.83979   0.84470   0.85075   0.85263
 Alpha virt. eigenvalues --    0.85836   0.86086   0.86592   0.87414   0.88131
 Alpha virt. eigenvalues --    0.89258   0.89426   0.90003   0.90603   0.91662
 Alpha virt. eigenvalues --    0.92417   0.93208   0.93543   0.94007   0.94382
 Alpha virt. eigenvalues --    0.95580   0.95994   0.96271   0.96961   0.97328
 Alpha virt. eigenvalues --    0.98248   0.98422   0.98816   0.99413   1.00304
 Alpha virt. eigenvalues --    1.00611   1.01087   1.01560   1.02211   1.02586
 Alpha virt. eigenvalues --    1.02845   1.03213   1.03492   1.03966   1.04520
 Alpha virt. eigenvalues --    1.04730   1.05454   1.05794   1.06220   1.06602
 Alpha virt. eigenvalues --    1.07149   1.08298   1.08591   1.09650   1.09788
 Alpha virt. eigenvalues --    1.11130   1.11681   1.11995   1.12433   1.13038
 Alpha virt. eigenvalues --    1.13479   1.14089   1.14646   1.14955   1.15708
 Alpha virt. eigenvalues --    1.16500   1.16912   1.17430   1.17998   1.20063
 Alpha virt. eigenvalues --    1.20531   1.21046   1.22206   1.23106   1.23659
 Alpha virt. eigenvalues --    1.24289   1.24612   1.25357   1.25946   1.26516
 Alpha virt. eigenvalues --    1.26892   1.28266   1.28632   1.29670   1.29785
 Alpha virt. eigenvalues --    1.30194   1.30617   1.31055   1.31927   1.32891
 Alpha virt. eigenvalues --    1.33416   1.34773   1.36660   1.37364   1.37991
 Alpha virt. eigenvalues --    1.39000   1.40060   1.41553   1.42451   1.43204
 Alpha virt. eigenvalues --    1.44302   1.45830   1.46460   1.46555   1.47587
 Alpha virt. eigenvalues --    1.49080   1.49275   1.50567   1.51138   1.51567
 Alpha virt. eigenvalues --    1.52237   1.53070   1.53553   1.53667   1.54227
 Alpha virt. eigenvalues --    1.54382   1.55053   1.55504   1.56377   1.56697
 Alpha virt. eigenvalues --    1.57695   1.57923   1.58172   1.58446   1.59558
 Alpha virt. eigenvalues --    1.59647   1.60569   1.61831   1.62036   1.63266
 Alpha virt. eigenvalues --    1.65361   1.65460   1.67299   1.68498   1.70145
 Alpha virt. eigenvalues --    1.73700   1.76205   1.77318   1.80142   1.82651
 Alpha virt. eigenvalues --    1.84301   1.84526   1.88068   1.90060   1.91362
 Alpha virt. eigenvalues --    1.91857   1.93373   1.94552   1.95604   1.96755
 Alpha virt. eigenvalues --    1.97498   1.98615   1.99902   2.00333   2.00933
 Alpha virt. eigenvalues --    2.02048   2.04951   2.05572   2.06854   2.07129
 Alpha virt. eigenvalues --    2.08676   2.09598   2.10064   2.11882   2.13288
 Alpha virt. eigenvalues --    2.13477   2.15909   2.17143   2.17649   2.18452
 Alpha virt. eigenvalues --    2.18978   2.19887   2.20428   2.21464   2.21877
 Alpha virt. eigenvalues --    2.22336   2.22400   2.22815   2.23321   2.24365
 Alpha virt. eigenvalues --    2.24389   2.25044   2.26037   2.26602   2.27086
 Alpha virt. eigenvalues --    2.27487   2.28050   2.28983   2.29760   2.30200
 Alpha virt. eigenvalues --    2.30993   2.32163   2.32999   2.33941   2.34148
 Alpha virt. eigenvalues --    2.34794   2.37063   2.37396   2.38130   2.38329
 Alpha virt. eigenvalues --    2.39119   2.40010   2.40179   2.41046   2.42468
 Alpha virt. eigenvalues --    2.44663   2.44752   2.47758   2.55814   2.63933
 Alpha virt. eigenvalues --    2.65764   2.68019   2.68488   2.69803   2.70170
 Alpha virt. eigenvalues --    2.70554   2.70886   2.71514   2.72044   2.72977
 Alpha virt. eigenvalues --    2.73963   2.74168   2.75230   2.76077   2.76596
 Alpha virt. eigenvalues --    2.77202   2.79909   2.80522   2.82465   2.84434
 Alpha virt. eigenvalues --    2.84921   2.85282   2.86225   2.87202   2.87854
 Alpha virt. eigenvalues --    2.89609   2.90254   2.92505   2.93312   2.94242
 Alpha virt. eigenvalues --    2.96025   2.97306   3.07768   3.10319   3.10808
 Alpha virt. eigenvalues --    3.13985   3.24481   3.43816   3.44958   3.47377
 Alpha virt. eigenvalues --    3.52400   3.71248   4.27053   4.32851   4.37236
 Alpha virt. eigenvalues --    4.39320   4.41102   4.41696   4.43053   4.43767
 Alpha virt. eigenvalues --    4.45228   4.46729   4.47431   4.48078   4.51003
 Alpha virt. eigenvalues --    4.52160   4.54799   4.55576   4.56475   4.59631
 Alpha virt. eigenvalues --    4.61065   4.62503   4.66922   4.70868   4.72165
 Alpha virt. eigenvalues --    4.79002   4.80035   4.90186
          Condensed to atoms (all electrons):
               1          2          3          4          5          6
     1  C   10.085694  -1.336654  -3.334805  -0.267934   0.189848   0.273362
     2  C   -1.336654  34.434009  -6.632611 -20.653439   0.012359  -0.011306
     3  C   -3.334805  -6.632611  30.711363  -9.538511   1.392715   0.057079
     4  C   -0.267934 -20.653439  -9.538511  39.018284  -6.646125   0.011215
     5  C    0.189848   0.012359   1.392715  -6.646125  12.817662  -0.007609
     6  H    0.273362  -0.011306   0.057079   0.011215  -0.007609   0.435788
     7  H   -0.060772   0.458590  -0.069864  -0.050574  -0.003314  -0.003216
     8  H    0.003695  -0.050534  -0.080241   0.226301   0.153935   0.000012
     9  H   -0.010626   0.017952   0.074329  -0.076990   0.309116  -0.000104
    10  P    0.105964  -1.528190  -4.944265   3.954911  -2.000210   0.003860
    11  C    0.227776   0.745598  -0.812772  -0.105389  -0.008370   0.000396
    12  C   -0.045935   0.218148  -1.227582   0.359825  -0.308065   0.000028
    13  C    0.075408  -0.538839   1.206682  -0.442208   0.464749  -0.000466
    14  C   -0.019300   0.115378   0.369744  -0.180475   0.041544  -0.000004
    15  H   -0.000028   0.002726   0.013743  -0.004496  -0.000026  -0.000000
    16  C   -0.001433  -0.113710  -0.081960   0.204902   0.052734  -0.000047
    17  H    0.001641  -0.007332   0.022716   0.011537   0.036816   0.000000
    18  H    0.000004  -0.000050   0.000694   0.000088   0.000034  -0.000000
    19  H    0.000038   0.001248   0.003454  -0.003398  -0.000206  -0.000000
    20  C   -0.089909  -2.012854  -1.689125   3.127627   0.084639   0.000124
    21  C    0.054756   1.066635   1.507119  -1.779168   0.008660  -0.000113
    22  C    0.002958  -0.597638  -0.456114   0.375327   0.523928   0.000192
    23  C   -0.009657  -0.099241  -0.478414   0.533926   0.006589   0.000024
    24  H   -0.000441  -0.002412  -0.015618   0.007960  -0.000132  -0.000000
    25  C   -0.076979   0.110648   0.596337  -0.044819  -0.301099  -0.000051
    26  H    0.000235   0.006695  -0.018412   0.021607  -0.011884   0.000000
    27  H    0.000014   0.000235   0.003328  -0.004104  -0.003864   0.000000
    28  H    0.000353  -0.000312  -0.006598   0.000355   0.005283   0.000000
    29  C    0.598465   0.867165  -2.162234   0.497865  -0.198268  -0.013955
    30  H    0.033212  -0.035444   0.000650   0.013526   0.013983  -0.002859
    31  O   -0.166799  -0.800758   0.806722   0.303286   0.021442   0.000179
    32  C   -0.162024   1.301783   0.723439  -1.314131   0.159412  -0.002574
    33  C    0.217740   0.816952  -0.814585  -0.799087  -0.241672   0.001329
    34  C   -0.024142   0.373647   1.396706  -1.207977   0.126662  -0.000208
    35  C    0.106082  -0.346605  -0.511106   0.742731  -0.039894   0.000327
    36  H   -0.006399  -0.007745   0.012329  -0.003034  -0.009174   0.000001
    37  C   -0.041393   0.239716   0.163737  -0.200620   0.013322  -0.000037
    38  H    0.000215   0.004678  -0.003782  -0.004029  -0.000080  -0.000000
    39  H    0.001817   0.012001  -0.013469  -0.002596  -0.000113   0.000000
    40  H   -0.000003   0.000310   0.000002  -0.000303  -0.000014  -0.000000
    41  C   -0.110384  -0.196144   0.075755   0.214275  -0.039414   0.000055
    42  H   -0.001670   0.013524  -0.012769  -0.005964   0.000623   0.000000
    43  H    0.002237  -0.004302  -0.005723   0.003903  -0.000396  -0.000000
    44  H    0.006608   0.062237  -0.036353  -0.017964   0.001436  -0.000006
    45  N    0.003694   0.019562  -0.034515  -0.019138  -0.004299  -0.000000
    46  H   -0.000007  -0.000187  -0.000880   0.000636   0.000006   0.000000
    47  C    0.030021  -0.072282  -0.255280   0.169187   0.082582   0.000011
    48  H    0.000010   0.000290   0.005361  -0.003606   0.000145  -0.000000
    49  N    0.009569   0.006194  -0.017542  -0.013031  -0.001114   0.000004
    50  H   -0.000120  -0.001861   0.001918   0.000418   0.000016   0.000000
               7          8          9         10         11         12
     1  C   -0.060772   0.003695  -0.010626   0.105964   0.227776  -0.045935
     2  C    0.458590  -0.050534   0.017952  -1.528190   0.745598   0.218148
     3  C   -0.069864  -0.080241   0.074329  -4.944265  -0.812772  -1.227582
     4  C   -0.050574   0.226301  -0.076990   3.954911  -0.105389   0.359825
     5  C   -0.003314   0.153935   0.309116  -2.000210  -0.008370  -0.308065
     6  H   -0.003216   0.000012  -0.000104   0.003860   0.000396   0.000028
     7  H    0.435811  -0.000106   0.000011  -0.000009  -0.005189  -0.001215
     8  H   -0.000106   0.433420  -0.003184   0.015336   0.028338   0.002945
     9  H    0.000011  -0.003184   0.435684   0.002494   0.001247   0.000011
    10  P   -0.000009   0.015336   0.002494  28.043949  -4.031162   2.591343
    11  C   -0.005189   0.028338   0.001247  -4.031162  16.725233  -5.760012
    12  C   -0.001215   0.002945   0.000011   2.591343  -5.760012  18.753180
    13  C   -0.002639  -0.018504  -0.002274  -0.778394  -3.910925  -5.908543
    14  C   -0.000590  -0.003007  -0.000027  -1.238829   1.459587  -3.033602
    15  H   -0.000000  -0.000000  -0.000000   0.039107  -0.005595   0.239824
    16  C    0.000282   0.005330  -0.000283  -0.392536   1.209410  -0.407851
    17  H   -0.000006  -0.000564  -0.000005  -0.028844  -0.063039  -0.064330
    18  H   -0.000000   0.000000  -0.000000  -0.000120   0.108377  -0.173278
    19  H   -0.000000  -0.000002  -0.000000  -0.001533   0.107273   0.007309
    20  C   -0.003539   0.035415  -0.001653   0.463259  -0.178715   0.781358
    21  C   -0.003029  -0.029357  -0.001229  -2.765273   0.423173  -0.420741
    22  C    0.005236   0.028289  -0.005953   0.842800  -0.118443   0.210310
    23  C   -0.000197  -0.022271   0.001552  -0.638991   0.103654  -0.398355
    24  H    0.000000  -0.000005   0.000000   0.049963   0.034140  -0.020741
    25  C    0.001337  -0.005433   0.011484  -0.696985   0.083396  -0.024827
    26  H   -0.000000  -0.000009  -0.000001  -0.000203  -0.000467   0.000924
    27  H   -0.000000   0.000028   0.000000   0.018646  -0.010471   0.002071
    28  H    0.000000   0.000007  -0.000010   0.001538  -0.000060  -0.000006
    29  C    0.010629   0.002308  -0.004013   0.221800   0.020025   0.032905
    30  H   -0.000106  -0.000113  -0.002875  -0.000709   0.000451   0.000009
    31  O    0.024889   0.001546   0.000030  -0.334991   0.145627  -0.187689
    32  C   -0.020934  -0.036024  -0.000724  -4.036993  -0.844129   1.319295
    33  C    0.027121   0.012762   0.000259   4.566019  -0.187328  -0.242159
    34  C   -0.005439  -0.007475  -0.000161  -0.599658   1.822288  -2.109596
    35  C   -0.001777   0.000737  -0.000137  -0.792218  -0.262875   0.296311
    36  H    0.000017   0.000020   0.000000   0.068264  -0.006950   0.002030
    37  C    0.001025  -0.000165   0.000021  -2.239383  -0.105736   0.598733
    38  H   -0.000000  -0.000002  -0.000000   0.020229  -0.016250   0.010563
    39  H   -0.000008  -0.000000  -0.000000   0.010960   0.000738  -0.000037
    40  H    0.000000   0.000000  -0.000000   0.017401  -0.009448   0.006593
    41  C   -0.006927  -0.000132   0.000043  -0.294130  -0.168992   0.338809
    42  H   -0.000218   0.000000   0.000000  -0.005498   0.015132  -0.015459
    43  H    0.000091   0.000000   0.000000   0.011486   0.010158   0.010765
    44  H   -0.001036  -0.000006  -0.000000   0.001069  -0.024144   0.027140
    45  N   -0.000005  -0.000048   0.000000   0.080799   0.035143  -0.288726
    46  H   -0.000000   0.000000   0.000000  -0.002065  -0.013132   0.044607
    47  C   -0.000025   0.018292  -0.003410   0.257335  -0.061268   0.060164
    48  H    0.000000  -0.000012   0.000000  -0.004104  -0.000665  -0.000229
    49  N   -0.000067  -0.000004  -0.000000   0.373211   0.042103  -0.078992
    50  H   -0.000000  -0.000000   0.000000  -0.015088   0.000988  -0.000507
              13         14         15         16         17         18
     1  C    0.075408  -0.019300  -0.000028  -0.001433   0.001641   0.000004
     2  C   -0.538839   0.115378   0.002726  -0.113710  -0.007332  -0.000050
     3  C    1.206682   0.369744   0.013743  -0.081960   0.022716   0.000694
     4  C   -0.442208  -0.180475  -0.004496   0.204902   0.011537   0.000088
     5  C    0.464749   0.041544  -0.000026   0.052734   0.036816   0.000034
     6  H   -0.000466  -0.000004  -0.000000  -0.000047   0.000000  -0.000000
     7  H   -0.002639  -0.000590  -0.000000   0.000282  -0.000006  -0.000000
     8  H   -0.018504  -0.003007  -0.000000   0.005330  -0.000564   0.000000
     9  H   -0.002274  -0.000027  -0.000000  -0.000283  -0.000005  -0.000000
    10  P   -0.778394  -1.238829   0.039107  -0.392536  -0.028844  -0.000120
    11  C   -3.910925   1.459587  -0.005595   1.209410  -0.063039   0.108377
    12  C   -5.908543  -3.033602   0.239824  -0.407851  -0.064330  -0.173278
    13  C   19.826391  -1.143081  -0.000780  -3.492749   0.391750   0.027620
    14  C   -1.143081   9.391442   0.025080  -0.005528   0.017856   0.403805
    15  H   -0.000780   0.025080   0.377878   0.000568  -0.000074  -0.001838
    16  C   -3.492749  -0.005528   0.000568   9.073693  -0.031665  -0.002629
    17  H    0.391750   0.017856  -0.000074  -0.031665   0.384889   0.000009
    18  H    0.027620   0.403805  -0.001838  -0.002629   0.000009   0.363821
    19  H   -0.180223   0.002327   0.000009   0.431368  -0.002082  -0.000073
    20  C   -1.050664   0.056134  -0.011304   0.162327   0.000650  -0.000660
    21  C    0.771500  -0.038022  -0.005158  -0.014900   0.001569   0.000664
    22  C   -0.403447  -0.003483  -0.001954   0.015427   0.004206  -0.000070
    23  C    0.302129   0.096565  -0.002199   0.016053   0.003099   0.000313
    24  H   -0.006765  -0.001083   0.000050  -0.003110  -0.000001  -0.000005
    25  C   -0.006338   0.000065  -0.000348   0.024114   0.000752   0.000011
    26  H   -0.000405  -0.000075   0.000000   0.000058   0.000000   0.000000
    27  H    0.007093  -0.000800   0.000000  -0.002352  -0.000002  -0.000000
    28  H    0.000024   0.000002   0.000000  -0.000003  -0.000000  -0.000000
    29  C   -0.070476  -0.001630   0.000011   0.000872   0.000283  -0.000002
    30  H   -0.000141   0.000002   0.000000  -0.000028  -0.000000  -0.000000
    31  O    0.024076   0.041575   0.006886   0.015914   0.000479  -0.000017
    32  C   -0.694176   0.128943  -0.030296  -0.022849   0.002078  -0.000429
    33  C    0.042385  -0.090828   0.001619  -0.055035  -0.000387  -0.000031
    34  C    1.396885  -0.027700   0.039787  -0.007359  -0.002950   0.001374
    35  C   -0.166659   0.003405   0.000725   0.006414   0.000262   0.000013
    36  H   -0.000680   0.000102  -0.000000   0.000028  -0.000000  -0.000000
    37  C   -0.358552   0.118600  -0.003317   0.006040   0.000355  -0.000521
    38  H    0.003642   0.001818  -0.000184  -0.002021   0.000000   0.000001
    39  H   -0.000099  -0.000017   0.000000   0.000002  -0.000000  -0.000000
    40  H   -0.000872   0.000741   0.000014  -0.000052  -0.000000  -0.000000
    41  C   -0.307272   0.082427  -0.005468  -0.007550  -0.002454  -0.000381
    42  H    0.008387   0.003023   0.000016  -0.000344   0.000000  -0.000000
    43  H   -0.004112  -0.021238   0.000039   0.002325  -0.000001  -0.000007
    44  H   -0.030107   0.003141   0.000037  -0.000220  -0.000057  -0.000000
    45  N   -0.131020   0.397688   0.003196   0.403109   0.005340  -0.048619
    46  H    0.019553  -0.039753  -0.000086  -0.041066  -0.000083  -0.002255
    47  C   -0.003535  -0.006622  -0.000065  -0.037316  -0.001338  -0.000025
    48  H    0.000661   0.000009   0.000000  -0.000020   0.000000   0.000000
    49  N    0.033016  -0.003755   0.000701  -0.000733  -0.000003   0.000008
    50  H    0.000081  -0.000032  -0.000000   0.000002   0.000000   0.000000
              19         20         21         22         23         24
     1  C    0.000038  -0.089909   0.054756   0.002958  -0.009657  -0.000441
     2  C    0.001248  -2.012854   1.066635  -0.597638  -0.099241  -0.002412
     3  C    0.003454  -1.689125   1.507119  -0.456114  -0.478414  -0.015618
     4  C   -0.003398   3.127627  -1.779168   0.375327   0.533926   0.007960
     5  C   -0.000206   0.084639   0.008660   0.523928   0.006589  -0.000132
     6  H   -0.000000   0.000124  -0.000113   0.000192   0.000024  -0.000000
     7  H   -0.000000  -0.003539  -0.003029   0.005236  -0.000197   0.000000
     8  H   -0.000002   0.035415  -0.029357   0.028289  -0.022271  -0.000005
     9  H   -0.000000  -0.001653  -0.001229  -0.005953   0.001552   0.000000
    10  P   -0.001533   0.463259  -2.765273   0.842800  -0.638991   0.049963
    11  C    0.107273  -0.178715   0.423173  -0.118443   0.103654   0.034140
    12  C    0.007309   0.781358  -0.420741   0.210310  -0.398355  -0.020741
    13  C   -0.180223  -1.050664   0.771500  -0.403447   0.302129  -0.006765
    14  C    0.002327   0.056134  -0.038022  -0.003483   0.096565  -0.001083
    15  H    0.000009  -0.011304  -0.005158  -0.001954  -0.002199   0.000050
    16  C    0.431368   0.162327  -0.014900   0.015427   0.016053  -0.003110
    17  H   -0.002082   0.000650   0.001569   0.004206   0.003099  -0.000001
    18  H   -0.000073  -0.000660   0.000664  -0.000070   0.000313  -0.000005
    19  H    0.363313   0.000828  -0.000092   0.000070  -0.000901   0.000001
    20  C    0.000828  10.567793  -1.374208  -0.498864  -0.778742   0.003582
    21  C   -0.000092  -1.374208  14.585361  -3.414060  -2.734052   0.181754
    22  C    0.000070  -0.498864  -3.414060  15.525150  -1.816139  -0.003819
    23  C   -0.000901  -0.778742  -2.734052  -1.816139  11.423301  -0.023281
    24  H    0.000001   0.003582   0.181754  -0.003819  -0.023281   0.455292
    25  C   -0.000021   0.340832   0.039534  -3.339902   0.605029  -0.008374
    26  H    0.000000   0.000987  -0.010518   0.191585   0.012848  -0.000111
    27  H   -0.000000   0.020838  -0.057466  -0.002831   0.316242  -0.003221
    28  H    0.000000   0.026365  -0.014483   0.028709   0.006469   0.000012
    29  C   -0.000027   0.008928  -0.076061   0.074045   0.040220   0.000141
    30  H    0.000000  -0.000025   0.000133   0.000128  -0.000052  -0.000000
    31  O    0.000027   0.038337  -0.059226   0.054264  -0.012260   0.000002
    32  C    0.000162   2.888210  -0.959777  -1.972303   0.696519   0.098220
    33  C    0.000019  -2.926803  -3.779242   4.013760  -0.153795   0.023489
    34  C   -0.000045  -3.393929   5.332313  -5.154208   0.257850  -0.042173
    35  C    0.000007   0.911375   0.108687   0.197297  -0.080391  -0.001494
    36  H    0.000000   0.008863  -0.000839  -0.054420   0.008289  -0.000004
    37  C    0.000035   0.846758  -0.605293   0.778669  -0.477974   0.018927
    38  H   -0.000000  -0.029561   0.005226  -0.001812  -0.001459   0.000301
    39  H   -0.000000   0.004126   0.002817  -0.010647  -0.000042   0.000000
    40  H    0.000000   0.004770  -0.013739   0.002010  -0.001146   0.000005
    41  C   -0.000087   0.064678  -0.034178   0.001041   0.000378   0.000140
    42  H    0.000000  -0.001136   0.000213  -0.000644  -0.000037   0.000000
    43  H    0.000000   0.002461  -0.002053   0.000694  -0.000147  -0.000000
    44  H    0.000000  -0.000851   0.000706   0.000751  -0.000077   0.000000
    45  N   -0.050623  -0.032548   0.021931  -0.007254   0.004475   0.000120
    46  H   -0.002302   0.000119   0.000085   0.000010  -0.000115   0.000001
    47  C   -0.000189  -0.668741  -0.110662   1.015845   0.024414  -0.007807
    48  H    0.000000  -0.006580   0.007357  -0.000989   0.006069  -0.000122
    49  N   -0.000000  -0.150874  -0.027782  -0.079109   0.001573   0.000070
    50  H   -0.000000   0.000548   0.001933   0.000819   0.000166  -0.000000
              25         26         27         28         29         30
     1  C   -0.076979   0.000235   0.000014   0.000353   0.598465   0.033212
     2  C    0.110648   0.006695   0.000235  -0.000312   0.867165  -0.035444
     3  C    0.596337  -0.018412   0.003328  -0.006598  -2.162234   0.000650
     4  C   -0.044819   0.021607  -0.004104   0.000355   0.497865   0.013526
     5  C   -0.301099  -0.011884  -0.003864   0.005283  -0.198268   0.013983
     6  H   -0.000051   0.000000   0.000000   0.000000  -0.013955  -0.002859
     7  H    0.001337  -0.000000  -0.000000   0.000000   0.010629  -0.000106
     8  H   -0.005433  -0.000009   0.000028   0.000007   0.002308  -0.000113
     9  H    0.011484  -0.000001   0.000000  -0.000010  -0.004013  -0.002875
    10  P   -0.696985  -0.000203   0.018646   0.001538   0.221800  -0.000709
    11  C    0.083396  -0.000467  -0.010471  -0.000060   0.020025   0.000451
    12  C   -0.024827   0.000924   0.002071  -0.000006   0.032905   0.000009
    13  C   -0.006338  -0.000405   0.007093   0.000024  -0.070476  -0.000141
    14  C    0.000065  -0.000075  -0.000800   0.000002  -0.001630   0.000002
    15  H   -0.000348   0.000000   0.000000   0.000000   0.000011   0.000000
    16  C    0.024114   0.000058  -0.002352  -0.000003   0.000872  -0.000028
    17  H    0.000752   0.000000  -0.000002  -0.000000   0.000283  -0.000000
    18  H    0.000011   0.000000  -0.000000  -0.000000  -0.000002  -0.000000
    19  H   -0.000021   0.000000  -0.000000   0.000000  -0.000027   0.000000
    20  C    0.340832   0.000987   0.020838   0.026365   0.008928  -0.000025
    21  C    0.039534  -0.010518  -0.057466  -0.014483  -0.076061   0.000133
    22  C   -3.339902   0.191585  -0.002831   0.028709   0.074045   0.000128
    23  C    0.605029   0.012848   0.316242   0.006469   0.040220  -0.000052
    24  H   -0.008374  -0.000111  -0.003221   0.000012   0.000141  -0.000000
    25  C    9.496657   0.063639   0.001961   0.256999  -0.007141  -0.000493
    26  H    0.063639   0.457659   0.000012  -0.003052   0.000166   0.000000
    27  H    0.001961   0.000012   0.445479  -0.000115  -0.000197   0.000000
    28  H    0.256999  -0.003052  -0.000115   0.444852   0.000961   0.000000
    29  C   -0.007141   0.000166  -0.000197   0.000961   6.158312   0.285745
    30  H   -0.000493   0.000000   0.000000   0.000000   0.285745   0.435567
    31  O    0.008287   0.000137   0.000000  -0.000001  -0.007925  -0.000011
    32  C    0.118164   0.004983   0.014236   0.005281  -0.127158   0.000723
    33  C   -0.783215   0.031358   0.002601   0.001104   0.105713  -0.000426
    34  C    0.296928  -0.014397  -0.008734   0.000445  -0.059965   0.000014
    35  C   -0.090603   0.017397  -0.000121   0.000325   0.022567   0.000047
    36  H   -0.002749   0.001886   0.000000  -0.000002   0.000631  -0.000000
    37  C    0.049657  -0.002225  -0.000665  -0.000146   0.002490   0.000003
    38  H   -0.006953  -0.000001   0.000009   0.000000   0.000000   0.000000
    39  H   -0.001184   0.000012   0.000000   0.000000   0.000356   0.000000
    40  H   -0.000247   0.000000   0.000000   0.000000   0.000002  -0.000000
    41  C    0.005093   0.000006   0.000003  -0.000001  -0.001357  -0.000008
    42  H   -0.000025  -0.000000  -0.000000  -0.000000  -0.000131   0.000000
    43  H   -0.000017  -0.000000   0.000000   0.000000   0.000117  -0.000000
    44  H    0.000072   0.000000   0.000000  -0.000000   0.001195   0.000000
    45  N   -0.000231   0.000001   0.000042   0.000000  -0.000361   0.000000
    46  H   -0.000007   0.000000  -0.000000   0.000000   0.000003   0.000000
    47  C   -0.301293   0.000465   0.013381  -0.002537   0.000479   0.000029
    48  H    0.020268  -0.000117  -0.002842  -0.002843  -0.000055  -0.000000
    49  N   -0.007202  -0.000206   0.000003   0.000003   0.000240  -0.000000
    50  H    0.000157  -0.000000  -0.000000  -0.000000  -0.000013   0.000000
              31         32         33         34         35         36
     1  C   -0.166799  -0.162024   0.217740  -0.024142   0.106082  -0.006399
     2  C   -0.800758   1.301783   0.816952   0.373647  -0.346605  -0.007745
     3  C    0.806722   0.723439  -0.814585   1.396706  -0.511106   0.012329
     4  C    0.303286  -1.314131  -0.799087  -1.207977   0.742731  -0.003034
     5  C    0.021442   0.159412  -0.241672   0.126662  -0.039894  -0.009174
     6  H    0.000179  -0.002574   0.001329  -0.000208   0.000327   0.000001
     7  H    0.024889  -0.020934   0.027121  -0.005439  -0.001777   0.000017
     8  H    0.001546  -0.036024   0.012762  -0.007475   0.000737   0.000020
     9  H    0.000030  -0.000724   0.000259  -0.000161  -0.000137   0.000000
    10  P   -0.334991  -4.036993   4.566019  -0.599658  -0.792218   0.068264
    11  C    0.145627  -0.844129  -0.187328   1.822288  -0.262875  -0.006950
    12  C   -0.187689   1.319295  -0.242159  -2.109596   0.296311   0.002030
    13  C    0.024076  -0.694176   0.042385   1.396885  -0.166659  -0.000680
    14  C    0.041575   0.128943  -0.090828  -0.027700   0.003405   0.000102
    15  H    0.006886  -0.030296   0.001619   0.039787   0.000725  -0.000000
    16  C    0.015914  -0.022849  -0.055035  -0.007359   0.006414   0.000028
    17  H    0.000479   0.002078  -0.000387  -0.002950   0.000262  -0.000000
    18  H   -0.000017  -0.000429  -0.000031   0.001374   0.000013  -0.000000
    19  H    0.000027   0.000162   0.000019  -0.000045   0.000007   0.000000
    20  C    0.038337   2.888210  -2.926803  -3.393929   0.911375   0.008863
    21  C   -0.059226  -0.959777  -3.779242   5.332313   0.108687  -0.000839
    22  C    0.054264  -1.972303   4.013760  -5.154208   0.197297  -0.054420
    23  C   -0.012260   0.696519  -0.153795   0.257850  -0.080391   0.008289
    24  H    0.000002   0.098220   0.023489  -0.042173  -0.001494  -0.000004
    25  C    0.008287   0.118164  -0.783215   0.296928  -0.090603  -0.002749
    26  H    0.000137   0.004983   0.031358  -0.014397   0.017397   0.001886
    27  H    0.000000   0.014236   0.002601  -0.008734  -0.000121   0.000000
    28  H   -0.000001   0.005281   0.001104   0.000445   0.000325  -0.000002
    29  C   -0.007925  -0.127158   0.105713  -0.059965   0.022567   0.000631
    30  H   -0.000011   0.000723  -0.000426   0.000014   0.000047  -0.000000
    31  O    8.733445  -0.098267  -0.017633   0.056967  -0.040787  -0.000990
    32  C   -0.098267  22.604877  -7.840587 -10.683060   2.803573  -0.036482
    33  C   -0.017633  -7.840587  23.193635  -2.851403  -4.910083   0.347761
    34  C    0.056967 -10.683060  -2.851403  32.021104  -3.587821   0.004870
    35  C   -0.040787   2.803573  -4.910083  -3.587821  10.544814  -0.019768
    36  H   -0.000990  -0.036482   0.347761   0.004870  -0.019768   0.417415
    37  C    0.138081   3.667385  -2.275435  -8.204768   1.252146  -0.007900
    38  H    0.000166  -0.012308   0.038203   0.293058   0.013004  -0.000075
    39  H    0.000168   0.018328  -0.086170   0.020267   0.391270  -0.002497
    40  H    0.000252   0.039638   0.029898  -0.121944   0.004676   0.000006
    41  C   -0.071832   0.242195  -0.144380  -0.185763   0.098661   0.000341
    42  H   -0.059848  -0.008385  -0.001406   0.010227  -0.003490  -0.000000
    43  H   -0.035569  -0.001963   0.004245  -0.008526   0.002043   0.000000
    44  H   -0.060721   0.008580  -0.000259  -0.003441  -0.000890  -0.000001
    45  N   -0.006606  -0.003830   0.002474   0.012336  -0.000388  -0.000001
    46  H   -0.000005  -0.000032  -0.000007  -0.000152   0.000000  -0.000000
    47  C   -0.003429  -0.645714   0.209066  -0.235799   0.053075  -0.004843
    48  H   -0.000000  -0.001217  -0.000524   0.000547   0.000011  -0.000000
    49  N   -0.002742  -0.738768   0.259723   0.537376   0.152477   0.010467
    50  H   -0.000300   0.039251  -0.000280   0.032690  -0.025496  -0.000094
              37         38         39         40         41         42
     1  C   -0.041393   0.000215   0.001817  -0.000003  -0.110384  -0.001670
     2  C    0.239716   0.004678   0.012001   0.000310  -0.196144   0.013524
     3  C    0.163737  -0.003782  -0.013469   0.000002   0.075755  -0.012769
     4  C   -0.200620  -0.004029  -0.002596  -0.000303   0.214275  -0.005964
     5  C    0.013322  -0.000080  -0.000113  -0.000014  -0.039414   0.000623
     6  H   -0.000037  -0.000000   0.000000  -0.000000   0.000055   0.000000
     7  H    0.001025  -0.000000  -0.000008   0.000000  -0.006927  -0.000218
     8  H   -0.000165  -0.000002  -0.000000   0.000000  -0.000132   0.000000
     9  H    0.000021  -0.000000  -0.000000  -0.000000   0.000043   0.000000
    10  P   -2.239383   0.020229   0.010960   0.017401  -0.294130  -0.005498
    11  C   -0.105736  -0.016250   0.000738  -0.009448  -0.168992   0.015132
    12  C    0.598733   0.010563  -0.000037   0.006593   0.338809  -0.015459
    13  C   -0.358552   0.003642  -0.000099  -0.000872  -0.307272   0.008387
    14  C    0.118600   0.001818  -0.000017   0.000741   0.082427   0.003023
    15  H   -0.003317  -0.000184   0.000000   0.000014  -0.005468   0.000016
    16  C    0.006040  -0.002021   0.000002  -0.000052  -0.007550  -0.000344
    17  H    0.000355   0.000000  -0.000000  -0.000000  -0.002454   0.000000
    18  H   -0.000521   0.000001  -0.000000  -0.000000  -0.000381  -0.000000
    19  H    0.000035  -0.000000  -0.000000   0.000000  -0.000087   0.000000
    20  C    0.846758  -0.029561   0.004126   0.004770   0.064678  -0.001136
    21  C   -0.605293   0.005226   0.002817  -0.013739  -0.034178   0.000213
    22  C    0.778669  -0.001812  -0.010647   0.002010   0.001041  -0.000644
    23  C   -0.477974  -0.001459  -0.000042  -0.001146   0.000378  -0.000037
    24  H    0.018927   0.000301   0.000000   0.000005   0.000140   0.000000
    25  C    0.049657  -0.006953  -0.001184  -0.000247   0.005093  -0.000025
    26  H   -0.002225  -0.000001   0.000012   0.000000   0.000006  -0.000000
    27  H   -0.000665   0.000009   0.000000   0.000000   0.000003  -0.000000
    28  H   -0.000146   0.000000   0.000000   0.000000  -0.000001  -0.000000
    29  C    0.002490   0.000000   0.000356   0.000002  -0.001357  -0.000131
    30  H    0.000003   0.000000   0.000000  -0.000000  -0.000008   0.000000
    31  O    0.138081   0.000166   0.000168   0.000252  -0.071832  -0.059848
    32  C    3.667385  -0.012308   0.018328   0.039638   0.242195  -0.008385
[...]
 6514,0.00000655,-0.00002816,0.00000240,0.00001779,-0.00005865,-0.00000
 204,0.00011737,-0.00005931,-0.00010942,-0.00002215,0.00000137,0.000029
 88,-0.00001843,0.00000658,0.00001650,-0.00000309,0.00001127,0.00000943
 ,-0.00009684,0.00008119,-0.00004705,0.00001108,-0.00001047,0.00000896,
 0.03140766,0.50604513,-0.00001608,-0.00002381,0.00000292,0.00003342,-0
 .00003416,0.00004184,-0.00001978,-0.00007132,-0.00006903,-0.00006751,0
 .00037913,-0.00011754,0.00001328,-0.00005380,0.00009450,-0.00000573,-0
 .00000052,-0.00000031,0.00000584,-0.00000002,0.00000063,0.00003069,0.0
 0001833,0.00023399,-0.00000834,-0.00000399,0.00001548,0.00005438,0.000
 29728,0.00010211,-0.00008682,-0.00005437,-0.00019491,0.00007379,-0.000
 00185,0.00003254,0.00007401,-0.00004691,0.00006179,-0.00004328,0.00004
 786,-0.00001032,-0.00001223,-0.00000011,-0.00000572,-0.00005912,-0.000
 00703,0.00001626,0.00000298,0.00000206,-0.00000875,0.00000170,0.000000
 34,-0.00000092,0.00001024,-0.00000354,-0.00000812,-0.01457264,-0.00112
 586,-0.00697551,0.02525339,-0.00059469,0.00987247,-0.00347245,0.028791
 59,-0.01731101,0.04761962,0.04291783,-0.09912726,0.00046254,0.00660748
 ,0.00215035,-0.10119073,0.08696171,-0.14636674,0.00129133,0.00580775,0
 .00247911,-0.01564636,-0.00405358,0.00640581,0.00483328,-0.00229463,0.
 00638003,0.00000139,0.00000545,-0.00001355,-0.00000226,0.,0.00000868,0
 .00020824,0.00002657,-0.00034276,-0.00051728,-0.00070645,0.00048483,0.
 00028400,0.00000941,-0.00016964,0.00006725,0.00005192,-0.00029916,-0.0
 0002452,-0.00013133,-0.00003074,0.00000855,-0.00003872,0.00008883,0.00
 009630,-0.00010186,0.00004451,-0.00003966,-0.00002070,-0.00003448,0.00
 000518,0.00001482,-0.00001173,-0.00001777,0.00003555,0.00000732,-0.000
 06037,0.00001674,0.00008685,0.00001351,0.00000320,-0.00001967,0.000014
 92,-0.00000025,-0.00001141,0.00000734,-0.00000621,-0.00001111,0.000047
 19,-0.00003257,0.00001878,-0.00001102,0.00000059,-0.00000910,0.0130120
 8,-0.30594018,0.40068067,0.00000271,0.00000343,0.00000002,-0.00000118,
 0.00000165,-0.00000166,-0.00000184,0.00000394,0.00000346,0.00000056,0.
 00001508,0.00000316,-0.00000134,-0.00000429,0.00000194,0.00000073,0.00
 000019,0.00000046,-0.00000066,-0.00000024,0.00000009,0.00000134,-0.000
 01158,-0.00000750,0.00000278,0.00000021,0.00000058,0.00000194,-0.00004
 219,-0.00012822,0.00000484,-0.00000684,-0.00002422,-0.00001191,0.00001
 286,0.00001848,-0.00000695,-0.00000358,-0.00000192,0.00001912,-0.00002
 017,0.00000728,0.00000287,0.00000143,-0.00000273,0.00000766,-0.0000036
 2,-0.00000083,0.00000037,-0.00000079,0.00000173,0.00000046,0.00000052,
 -0.00000056,-0.00000179,0.00000009,0.00000034,-0.00105855,0.00030881,-
 0.00028174,-0.00539620,-0.00101846,-0.00012822,-0.00311294,0.00197400,
 -0.00237362,-0.00205086,-0.02356386,0.01952121,-0.00025668,-0.00112392
 ,0.00101421,0.01009173,0.01818425,-0.01499244,0.00035566,0.00087313,-0
 .00074239,0.00125419,0.00061436,-0.00012641,0.00097422,-0.00034345,0.0
 0064782,0.00000467,-0.00000037,0.00000363,0.00000040,0.00000011,0.0000
 0017,-0.00002611,0.00000088,0.00005244,0.00017831,0.00007729,0.0000911
 5,-0.00002601,-0.00005087,-0.00001113,-0.00002182,-0.00002544,-0.00001
 109,0.00002806,-0.00001663,0.00001154,0.00002397,0.00000481,0.00002671
 ,-0.00000610,0.00003951,-0.00001974,0.00002808,0.00003586,0.00001261,0
 .00000108,-0.00000602,-0.00000100,-0.00000020,-0.00000189,0.00000057,0
 .00001079,-0.00000802,-0.00000675,-0.00000284,0.00000019,0.00000409,-0
 .00000147,0.00000036,0.00000076,-0.00000068,0.00000131,0.00000129,-0.0
 0001013,0.00001679,-0.00000707,0.00000309,-0.00000204,0.00000242,-0.07
 800723,-0.05312821,0.04234801,0.07697339,0.00000126,-0.00000263,0.0000
 0366,0.00000380,0.00000612,-0.00000662,-0.00002050,0.00002076,0.000011
 99,-0.00001121,-0.00000175,0.00000673,0.00000066,-0.00000206,0.0000117
 3,0.00000151,0.00000024,0.00000196,-0.00000145,-0.00000050,0.00000101,
 0.,-0.00001010,-0.00000304,0.00000043,0.00000107,-0.00000358,0.0001263
 0,-0.00003895,-0.00011107,0.00001564,-0.00002152,-0.00000990,0.0000049
 8,0.00000454,-0.00000068,-0.00000910,-0.00000092,-0.00000724,0.0000023
 2,-0.00000056,-0.00000185,0.00000116,0.00000091,0.00000059,0.00001054,
 0.00000021,0.00000530,0.00000273,-0.00000131,-0.00000237,-0.00000034,0
 .00000103,-0.00000064,0.00000010,-0.00000014,-0.00000048,0.00030217,-0
 .00004997,-0.00052466,-0.00153226,0.00382643,0.00278563,0.00253103,0.0
 0287082,0.00419071,0.00048883,-0.00096535,0.00434570,0.00004366,-0.000
 24869,0.00018152,-0.00587107,-0.00679412,0.00899096,-0.00030822,-0.000
 51815,0.00040264,0.00006745,-0.00129714,-0.00235728,0.00016806,-0.0012
 3824,-0.00259059,0.00000307,0.00000140,-0.00000336,0.00000165,0.000001
 06,0.00000146,-0.00004105,0.00000021,0.00007644,0.00001895,-0.00034662
 ,-0.00055463,-0.00002390,-0.00004258,0.00004229,-0.00004699,-0.0000467
 5,0.00009108,0.00002523,0.00003074,0.00001082,-0.00001848,0.00000879,-
 0.00002883,-0.00005239,0.00002452,-0.00005294,-0.00000716,0.00001840,-
 0.00000171,-0.00000034,-0.00000879,0.00000240,0.00001020,-0.00001870,-
 0.00000692,0.00002113,-0.00001331,-0.00001427,-0.00000424,-0.00000002,
 0.00000687,-0.00000299,0.00000036,0.00000199,-0.00000086,0.00000187,0.
 00000105,-0.00001139,-0.00000260,-0.00000177,0.00000321,-0.00000121,0.
 00000058,-0.05310017,-0.21353159,0.14318806,0.05721843,0.21842948,-0.0
 0000464,0.00000011,0.00000013,-0.00000477,-0.00001142,0.00001033,0.000
 02648,-0.00000351,-0.00001210,-0.00000135,-0.00001770,0.00001217,0.000
 00308,0.00001242,-0.00001153,-0.00000179,-0.00000112,-0.00000018,0.000
 00097,0.00000046,0.00000195,0.00000516,0.00003298,0.00000461,-0.000006
 90,-0.00000592,-0.00000622,0.00007578,0.00003004,0.00012976,-0.0000207
 0,-0.00001831,-0.00005938,0.00003217,-0.00001317,-0.00001144,0.0000381
 1,-0.00001287,0.00001050,-0.00002563,0.00002473,-0.00000772,-0.0000017
 4,-0.00000211,0.00000133,-0.00003018,0.00000183,0.00000297,0.00000014,
 0.00000197,-0.00000448,0.00000044,-0.00000048,0.00000038,0.00000456,-0
 .00000032,-0.00000041,-0.00026364,-0.00052168,-0.00032746,0.00016568,0
 .00298143,0.00471392,-0.00268575,0.00436805,0.00381631,-0.00094114,0.0
 0240752,0.00192217,-0.00005473,0.00005310,-0.00009951,0.00551495,0.010
 42574,-0.00421223,0.00028664,0.00041764,-0.00041282,0.00037347,-0.0023
 2312,-0.00208034,0.00016941,-0.00262264,-0.00208626,-0.00000604,-0.000
 00628,-0.00000159,-0.00000097,-0.00000046,-0.00000182,0.00006758,0.000
 00742,-0.00012670,-0.00005943,-0.00054451,-0.00035218,0.00003208,0.000
 05287,-0.00011507,-0.00002203,-0.00000817,-0.00001030,-0.00004822,-0.0
 0008486,-0.00000855,0.00001079,0.00001786,0.00003201,-0.00000640,0.000
 01498,-0.00002852,-0.00002826,-0.00000625,-0.00000522,-0.00000032,0.00
 000795,-0.00000022,0.00000674,0.00000043,-0.00000608,-0.00002111,0.000
 01017,0.00001940,0.00000477,-0.00000028,-0.00000716,0.00000382,-0.0000
 0098,-0.00000342,0.00000152,-0.00000273,-0.00000302,0.00002530,-0.0000
 2037,0.00001001,-0.00000481,0.00000312,-0.00000192,0.04229325,0.143402
 81,-0.15812330,-0.04494761,-0.15810229,0.15741933,0.00006628,-0.000251
 67,-0.00017748,-0.00017230,0.00041554,0.00007838,-0.00067989,0.0022563
 4,0.00135354,-0.00011194,-0.00014233,0.00028376,0.00027467,-0.00008491
 ,0.00009749,-0.00001076,0.00000940,0.00002559,-0.00002633,-0.00000221,
 0.00008020,-0.00005050,0.00007082,-0.00003241,0.00001031,0.00001255,-0
 .00000197,0.00949022,-0.00152428,0.00583092,0.00005061,-0.00120697,-0.
 00463822,0.00140491,-0.00115331,0.00041788,0.00110491,-0.00038323,0.00
 058834,-0.00102882,0.00123258,-0.00023566,-0.00020661,0.00026687,0.000
 15745,-0.00053633,0.00001929,0.00041905,0.00008659,0.00002144,-0.00022
 040,0.00006139,-0.00004676,-0.00007112,0.00009633,-0.00001648,-0.00000
 694,0.00185941,0.00026934,0.00124574,-0.00050043,-0.00030049,0.0003791
 2,-0.00044075,-0.00015496,-0.00000198,0.00030465,-0.00018397,0.0001871
 8,0.00019320,-0.00013149,-0.00003800,0.00020137,-0.00000707,-0.0002777
 8,0.00058036,0.00034568,-0.00015122,-0.00001188,-0.00000476,0.00007761
 ,-0.00001236,-0.00002027,-0.00001666,0.00008287,0.00019156,-0.00009569
 ,-0.00001917,0.00001969,0.00001228,-0.00122275,0.00055874,-0.00005714,
 -0.04295624,0.00040794,-0.01815576,0.00129443,-0.05812590,0.02394195,0
 .01488848,0.04268302,-0.02100483,-0.24197728,-0.07839801,-0.08260438,0
 .00453301,-0.00118249,-0.00290849,-0.20359182,0.00795347,-0.12149094,0
 .00482377,-0.00199550,-0.00207284,-0.01803969,-0.01945877,-0.00524165,
 -0.01595518,0.01351501,-0.01924322,-0.00065692,0.00014040,0.00008225,0
 .00003405,0.00003824,-0.00009219,0.00003064,-0.00004936,0.00006891,0.0
 0001666,0.00000833,0.00002152,0.00072073,-0.00101390,0.00018996,-0.000
 16712,0.00007276,-0.00007307,0.00014602,-0.00001966,0.00000112,0.00002
 637,-0.00000839,0.00004824,0.54183576,-0.00065921,-0.00007918,-0.00008
 435,-0.00055049,-0.00092219,0.00058509,0.00183619,0.00016916,-0.003502
 17,-0.00016858,0.00016189,-0.00042984,0.00011419,0.00008191,0.00008310
 ,-0.00017840,-0.00007731,-0.00009365,0.00024195,-0.00005751,-0.0000431
 4,0.00005168,0.00021778,0.00000418,-0.00007081,-0.00010653,0.00001192,
 0.00973835,-0.01720275,0.00265965,-0.00320370,0.00033906,-0.00844880,0
 .00259294,-0.00025654,0.00105350,0.00286766,-0.00208105,0.00198525,-0.
 00167213,0.00155648,0.00018963,0.00002566,-0.00000792,-0.00033534,-0.0
 0286546,-0.00017921,0.00011810,-0.00000466,0.00006216,-0.00033267,0.00
 010264,-0.00008711,-0.00005156,0.00021596,-0.00001329,-0.00016360,0.00
 224403,-0.00226495,-0.00210066,-0.00034691,0.00011924,-0.00067813,0.00
 006309,-0.00008890,0.00037258,-0.00018495,-0.00012638,0.00037161,-0.00
 018793,-0.00003587,-0.00024790,0.00015294,0.00009788,-0.00013575,0.000
 33962,0.00011660,-0.00007758,0.00002130,-0.00005863,0.00009544,-0.0000
 7024,-0.00006756,-0.00000020,-0.00027746,-0.00006465,-0.00043768,-0.00
 004247,-0.00005297,-0.00003257,0.00149311,0.00282623,-0.00389690,-0.01
 332632,0.02669073,0.00054726,-0.03456245,-0.05042467,0.00908615,0.0212
 2503,-0.02414219,0.03643628,-0.12041727,-0.19576333,-0.01502330,-0.000
 68020,-0.00367923,0.00577178,0.04340404,-0.15559411,0.07579157,-0.0031
 8773,-0.00428787,0.00403732,0.01180576,0.01156031,0.00269005,-0.015248
 36,0.01253292,-0.01705430,-0.00149188,0.00036802,0.00115360,0.00023697
 ,0.00003336,-0.00038218,0.00017743,-0.00009080,-0.00004864,0.00002817,
 -0.00012410,0.00003062,0.00248627,-0.00081033,0.00071837,-0.00038473,0
 .00021672,-0.00025882,0.00019783,-0.00022855,0.00018710,-0.00001056,-0
 .00005419,0.00006117,0.12474917,0.81471834,0.00054417,-0.00011513,-0.0
 0006765,0.00029869,0.00107143,-0.00031726,-0.00175382,0.00105154,0.003
 59447,-0.00000660,-0.00024092,0.00045752,0.00007955,-0.00011843,0.0000
 4919,0.00012610,0.00006566,0.00008721,-0.00016510,0.00006106,0.0000877
 4,-0.00004811,-0.00011418,-0.00002924,0.00005576,0.00008304,-0.0000126
 2,-0.00042863,0.01250793,0.00298429,0.00262688,-0.00180624,0.00290610,
 -0.00102965,-0.00074881,-0.00055957,-0.00122878,0.00134775,-0.00099166
 ,0.00051227,-0.00022134,-0.00034502,-0.00024100,0.00031922,0.00040606,
 0.00177248,0.00006923,0.00025644,0.00006018,-0.00003292,0.00006865,-0.
 00002363,0.00003092,-0.00002026,-0.00006968,-0.00000642,0.00011827,-0.
 00009760,0.00115668,0.00224859,-0.00021037,-0.00030270,0.00059514,-0.0
 0063325,-0.00008293,-0.00019640,0.00027129,-0.00007984,-0.00009847,0.0
 0025188,0.00001238,0.00017249,0.00022068,-0.00008699,-0.00012680,0.000
 41291,0.00000605,0.00006978,-0.00001557,0.00002908,-0.00001741,0.00003
 270,0.00002704,-0.00002287,0.00027544,0.00018044,0.00026082,0.00001748
 ,0.00005485,0.00003086,-0.00075897,-0.00139548,0.00076265,-0.01439333,
 -0.02242487,-0.02550469,0.00665269,-0.00599922,0.01975387,-0.00353851,
 0.05288298,-0.02007557,-0.07072487,0.00577180,-0.09797132,-0.00196440,
 0.00452019,0.00486438,-0.12988001,0.04470010,-0.17180915,-0.00252222,0
 .00389295,0.00519478,-0.01847998,-0.01591672,-0.00145314,-0.00781460,0
 .00618477,-0.00445190,0.00025087,-0.00032215,-0.00063326,-0.00009115,-
 0.00007634,0.00017855,-0.00008339,0.00003384,0.00009076,0.00004042,-0.
 00003358,-0.00006151,-0.00136779,-0.00014138,-0.00041283,0.00016294,-0
 .00010781,0.00014659,-0.00000916,0.00010484,-0.00005059,0.00003923,0.0
 0002578,0.00001016,0.26414072,-0.22381722,0.35395931,0.00001908,-0.000
 01029,-0.00000846,-0.00000359,0.00004746,-0.00000134,-0.00006243,0.000
 08738,0.00015988,-0.00000695,-0.00000013,0.00001841,0.00000261,-0.0000
 0727,0.00000510,0.00000372,0.00000152,0.00000270,-0.00000326,0.0000007
 8,0.00000628,-0.00000026,-0.00000225,-0.00000297,0.00000185,0.00000237
 ,-0.00000079,0.00010962,0.00034204,0.00005625,0.00007530,-0.00004716,0
 .00003047,-0.00004178,-0.00002576,0.00000163,-0.00002415,0.00002344,-0
 .00001557,0.00002320,-0.00001517,-0.00000372,-0.00000139,0.00001330,0.
 00000364,0.00003498,0.00000030,0.00000577,0.00000483,-0.00000129,-0.00
 000051,-0.00000044,0.00000358,-0.00000254,-0.00000102,-0.00000003,0.00
 000282,0.00006573,0.00022122,0.00020943,-0.00002360,-0.00000412,0.0000
 2041,-0.00006216,0.00000143,0.00000725,0.00000257,-0.00002695,0.000027
 55,0.00003244,-0.00000891,-0.00000765,0.00001079,0.00002470,-0.0000293
 3,0.00003248,-0.00000034,-0.00001685,-0.00000123,0.00000197,-0.0000017
 6,0.00000141,0.00000213,-0.00000080,0.00001529,0.00001069,0.00000720,0
 .00000028,0.00000146,0.00000094,-0.00005566,-0.00008120,0.00009653,-0.
 00126814,-0.00036700,-0.00061053,-0.00334742,-0.00282679,-0.00341018,-
 0.00203471,0.00023802,-0.00486426,0.00106398,-0.02727222,0.01401168,0.
 00038981,-0.00132664,0.00001529,0.00373140,0.02674767,-0.00399114,0.00
 071525,0.00081131,-0.00095753,-0.00019666,0.00066181,0.00124668,-0.000
 49436,0.00031968,0.00129754,0.00001161,-0.00000318,-0.00002406,-0.0000
 0018,0.00000399,0.00001151,-0.00000939,0.00000232,0.00000561,-0.000002
 67,-0.00000360,0.00000062,-0.00003086,0.00000469,-0.00000977,0.0000040
 2,-0.00000141,0.00000226,0.00003622,0.00000757,-0.00000161,0.00000410,
 -0.00000203,-0.00000297,-0.05584293,-0.02661905,-0.02126515,0.05712271
 ,0.00008686,0.00000785,0.00000612,0.00007789,0.00013734,-0.00008215,-0
 .00028605,0.00005009,0.00049965,0.00002214,-0.00003929,0.00007214,-0.0
 0000228,-0.00000736,-0.00000607,0.00002469,0.00000991,0.00001384,-0.00
 003354,0.00000449,0.00000117,-0.00001029,-0.00002919,-0.00000077,0.000
 01162,0.00001612,-0.00000196,-0.00100667,0.00195052,-0.00022133,0.0004
 9139,-0.00012154,0.00104248,-0.00032317,-0.00001201,-0.00014798,-0.000
 37845,0.00029894,-0.00026903,0.00020829,-0.00018077,-0.00003006,-0.000
 01348,0.00001461,0.00005402,0.00040517,0.00002847,0.00000479,0.0000016
 7,-0.00000759,0.00003936,-0.00001206,0.00001064,0.00000626,-0.00002741
 ,0.00000069,0.00002331,-0.00025626,0.00015805,0.00038143,0.00006143,0.
 00000161,0.00008197,-0.00004977,0.00005114,-0.00007351,0.00002406,0.00
 000596,-0.00006562,0.00001576,0.00000400,0.00004851,0.00001927,-0.0000
 2407,0.00000569,0.00000316,-0.00001870,0.00001729,-0.00000302,0.000011
 94,-0.00001525,0.00001136,0.00001346,-0.00000353,0.00004062,0.00001720
 ,0.00005499,0.00000640,0.00000868,0.00000473,-0.00020676,-0.00027710,0
 .00052620,0.00120935,-0.00325580,-0.00170816,-0.00308014,0.00367441,-0
 .00215893,0.00124440,0.00485273,0.00002456,-0.00006074,-0.01427310,0.0
 0367168,-0.00003337,-0.00011914,0.00064867,0.00183193,-0.00512565,0.00
 153223,-0.00042662,0.00014385,0.00016447,0.00062272,0.00065729,-0.0007
 0703,0.00029929,0.00058068,-0.00079518,0.00019112,-0.00005330,-0.00020
 353,-0.00003152,-0.00000792,0.00004290,-0.00002645,0.00001077,0.000012
 99,-0.00000483,0.00001903,0.00000405,-0.00034549,0.00008311,-0.0001017
 0,0.00005297,-0.00002973,0.00003519,-0.00002768,0.00003543,-0.00002232
 ,0.00000356,0.00000950,-0.00000528,-0.02939102,-0.41283893,0.13800010,
 0.02906996,0.42355268,-0.00003300,-0.00000216,-0.00000322,-0.00002638,
 -0.00006781,0.00004124,0.00011177,-0.00000505,-0.00023224,0.00000234,0
 .00000335,-0.00003764,0.00001203,0.00000586,-0.00000104,-0.00001267,-0
 .00000679,-0.00000710,0.00001333,-0.00000450,-0.00000670,-0.00000072,0
 .00001495,0.00000113,-0.00000508,-0.00000612,0.00000111,0.00054479,-0.
 00088654,0.00034778,-0.00018613,-0.00001037,-0.00058216,0.00021278,-0.
 00005813,0.00005802,0.00018769,-0.00012688,0.00011692,-0.00014137,0.00
 014549,-0.00000606,-0.00000483,0.00000642,-0.00000488,-0.00016819,-0.0
 0000540,0.00002023,-0.00000227,0.00000481,-0.00002273,0.00000675,-0.00
 000635,-0.00000341,0.00001353,-0.00000137,-0.00000834,0.00028534,-0.00
 037876,-0.00021230,-0.00008550,-0.00001370,0.00000722,-0.00000346,-0.0
 0000033,0.00000699,0.00003640,-0.00000167,0.00001240,0.00001171,-0.000
 00920,0.00000313,0.00004782,-0.00002245,0.00000840,0.00006149,0.000018
 54,-0.00000346,-0.00000003,-0.00000701,0.00001350,-0.00000693,-0.00000
 656,0.00000113,-0.00002905,-0.00000390,-0.00002453,-0.00000295,-0.0000
 0334,-0.00000167,0.00013451,0.00018263,-0.00034543,-0.00117431,0.00108
 539,-0.00036630,-0.00328077,-0.00145311,0.00289868,-0.00500577,0.00032
 250,0.00010149,0.00456066,-0.01191480,0.00256630,-0.00062827,-0.000166
 11,0.00119565,0.00518789,0.02079120,-0.00906852,-0.00044177,0.00113892
 ,0.00060399,0.00111825,-0.00083997,-0.00152535,0.00147391,-0.00082870,
 -0.00104068,-0.00010063,0.00000473,0.00011463,0.00001600,-0.00000005,-
 0.00003669,0.00002099,-0.00000657,-0.00001304,0.00000809,-0.00000524,-
 0.00000418,0.00016316,-0.00009448,0.00004635,-0.00002799,0.00001407,-0
 .00001415,-0.00002144,-0.00002738,0.00001308,0.00000144,-0.00000225,0.
 00000972,-0.02081916,0.13363562,-0.07412546,0.01797604,-0.14040141,0.0
 7950819\\-0.00001672,0.00001200,0.00000311,-0.00001115,0.00001726,0.00
 002554,0.00004879,-0.00003559,0.00002782,0.00001024,-0.00003774,-0.000
 01925,-0.00000387,0.00000406,0.00001020,0.00001325,-0.00001293,-0.0000
 0274,0.00000275,-0.00003561,-0.00000064,-0.00001141,-0.00006625,0.0000
 1188,-0.00000038,0.00000169,-0.00000594,-0.00004298,0.00008167,-0.0001
 5036,-0.00001980,0.00000831,0.00020215,0.00009273,0.00002113,-0.000055
 19,0.00016616,0.00001799,-0.00002304,-0.00000379,-0.00002646,-0.000017
 58,-0.00004284,0.00001277,0.00003867,0.00001570,-0.00005977,0.00002370
 ,-0.00002042,-0.00001108,-0.00000707,-0.00001053,0.00001024,0.00001942
 ,-0.00000751,0.00000838,0.00000557,0.00000412,0.00006776,0.00004671,-0
 .00003452,0.00008264,0.00009148,-0.00001315,-0.00004056,-0.00005602,-0
 .00001460,-0.00001452,-0.00002014,-0.00002662,-0.00000834,-0.00002473,
 -0.00000912,0.00002486,0.00000613,0.00000460,0.00000236,0.00002617,-0.
 00001025,0.00001192,0.00001507,-0.00000579,-0.00000166,-0.00000932,0.0
 0000674,-0.00001130,0.00000398,-0.00000524,0.00000748,0.00000344,0.000
 07015,0.00000789,-0.00000100,-0.00006406,-0.00002601,-0.00003979,0.000
 00993,0.00002056,-0.00005239,-0.00006062,-0.00004414,-0.00001299,0.000
 03167,0.00000122,0.00000705,-0.00001469,0.00002055,0.00001089,-0.00002
 104,0.00000215,0.00001604,0.00000701,-0.00001068,-0.00001309,-0.000006
 75,-0.00000559,-0.00001060,0.00001759,0.00000659,-0.00001033,-0.000022
 46,-0.00001994,-0.00005654,0.00002411,-0.00000127,-0.00000098,0.000009
 16,-0.00000884,0.00003208,0.00002124,0.00001461,0.00000530,-0.00003837
 ,0.00001476,0.00000674,0.00000514,0.00000953,0.00001280,-0.00000346,0.
 00000908,-0.00000766,-0.00000866,-0.00000050,-0.00000045,0.00000995,-0
 .00002471,-0.00006027,-0.00002023,0.00000404,0.00000618\\\@


 HE WHO LOVES TO READ, AND KNOWS HOW TO REFLECT,
 HAS LAID BY A PERPETUAL FEAST FOR HIS OLD AGE.
 -- UNCLE ESEK, "SCRIBNER'S MONTHLY", SEPT. 1880
 Job cpu time:       1 days 10 hours  8 minutes 28.8 seconds.
 Elapsed time:       0 days  1 hours 25 minutes 34.5 seconds.
 File lengths (MBytes):  RWF=   2320 Int=      0 D2E=      0 Chk=     48 Scr=     16
 Normal termination of Gaussian 16 at Wed Apr  4 19:26:05 2018.
