Job Start Time: Fri Apr  6 13:06:53 MDT 2018
SLURM Job ID: 760601
SLURM Job Name: TS2_Int3_1Pyrax_SMD_b_freq_DLPNO
SLURM Job Nodes:

                                 *****************
                                 * O   R   C   A *
                                 *****************

           --- An Ab Initio, DFT and Semiempirical electronic structure package ---

                  #######################################################
                  #                        -***-                        #
                  #  Department of molecular theory and spectroscopy    #
                  #              Directorship: Frank Neese              #
                  # Max Planck Institute for Chemical Energy Conversion #
                  #                  D-45470 Muelheim/Ruhr              #
                  #                       Germany                       #
                  #                                                     #
                  #                  All rights reserved                #
                  #                        -***-                        #
                  #######################################################


                         Program Version 4.0.1.2 - RELEASE -


 With contributions from (in alphabetic order):
   Daniel Aravena         : Magnetic Properties
   Michael Atanasov       : Ab Initio Ligand Field Theory
   Ute Becker             : Parallelization
   Martin Brehm           : Molecular dynamics
   Dmytro Bykov           : SCF Hessian
   Vijay G. Chilkuri      : MRCI spin determinant printing
   Dipayan Datta          : RHF DLPNO-CCSD density
   Achintya Kumar Dutta   : EOM-CC, STEOM-CC
   Dmitry Ganyushin       : Spin-Orbit,Spin-Spin,Magnetic field MRCI
   Yang Guo               : DLPNO-NEVPT2, CIM, IAO-localization
   Andreas Hansen         : Spin unrestricted coupled pair/coupled cluster methods
   Lee Huntington         : MR-EOM, pCC
   Robert Izsak           : Overlap fitted RIJCOSX, COSX-SCS-MP3, EOM
   Christian Kollmar      : KDIIS, OOCD, Brueckner-CCSD(T), CCSD density
   Simone Kossmann        : Meta GGA functionals, TD-DFT gradient, OOMP2, MP2 Hessian
   Martin Krupicka        : AUTO-CI
   Dagmar Lenk            : GEPOL surface
   Dimitrios Liakos       : Extrapolation schemes; parallel MDCI
   Dimitrios Manganas     : ROCIS; embedding schemes
   Dimitrios Pantazis     : SARC Basis sets
   Taras Petrenko         : DFT Hessian,TD-DFT gradient, ASA, ECA, R-Raman, ABS, FL, XAS/XES, NRVS
   Peter Pinski           : DLPNO-MP2
   Christoph Reimann      : Effective Core Potentials
   Marius Retegan         : Local ZFS, SOC
   Christoph Riplinger    : Optimizer, TS searches, QM/MM, DLPNO-CCSD(T), (RO)-DLPNO pert. Triples
   Tobias Risthaus        : Range-separated hybrids, TD-DFT gradient, RPA, STAB
   Michael Roemelt        : Restricted open shell CIS
   Masaaki Saitow         : Open-shell DLPNO
   Barbara Sandhoefer     : DKH picture change effects
   Kantharuban Sivalingam : CASSCF convergence, NEVPT2, FIC-MRCI
   Georgi Stoychev        : AutoAux
   Boris Wezisla          : Elementary symmetry handling
   Frank Wennmohs         : Technical directorship


 We gratefully acknowledge several colleagues who have allowed us to
 interface, adapt or use parts of their codes:
   Stefan Grimme, W. Hujo, H. Kruse,             : VdW corrections, initial TS optimization,
                  C. Bannwarth                     DFT functionals, gCP, sTDA/sTD-DF
   Ed Valeev                                     : LibInt (2-el integral package), F12 methods
   Garnet Chan, S. Sharma, J. Yang, R. Olivares  : DMRG
   Ulf Ekstrom                                   : XCFun DFT Library
   Mihaly Kallay                                 : mrcc  (arbitrary order and MRCC methods)
   Andreas Klamt, Michael Diedenhofen            : otool_cosmo (COSMO solvation model)
   Jiri Pittner, Ondrej Demel                    : Mk-CCSD
   Frank Weinhold                                : gennbo (NPA and NBO analysis)
   Christopher J. Cramer and Donald G. Truhlar   : smd solvation model


 Your calculation uses the libint2 library for the computation of 2-el integrals
 For citations please refer to: http://libint.valeyev.net

 This ORCA versions uses:
   CBLAS   interface :  Fast vector & matrix operations
   LAPACKE interface :  Fast linear algebra routines
   SCALAPACK package :  Parallel linear algebra routines


Your calculation utilizes the SMD solvation module
Please cite in your paper:
A.V. Marenich, C.J. Cramer, D.G. Truhlar J. Phys. Chem. B, 113, (2009), 6378 

Your calculation utilizes the basis: cc-pVDZ 
       H, B-Ne : Obtained from the ccRepo (grant-hill.group.shef.ac.uk/ccrepo) Feb. 2017
                 T. H. Dunning, Jr., J. Chem. Phys. 90, 1007 (1989)
            He : Obtained from the ccRepo (grant-hill.group.shef.ac.uk/ccrepo) Feb. 2017
                 D. E. Woon, T. H. Dunning, Jr., J. Chem. Phys. 100, 2975 (1994)
  Li-Be, Na-Mg : Obtained from the ccRepo (grant-hill.group.shef.ac.uk/ccrepo) Feb. 2017
                 B. P. Prascher, D. E. Woon, K. A. Peterson, T. H. Dunning, Jr., A. K. Wilson, Theor. Chem. Acc. 128, 69 (2011)
         Al-Ar : Obtained from the ccRepo (grant-hill.group.shef.ac.uk/ccrepo) Feb. 2017
                 D. E. Woon, T. H. Dunning, Jr., J. Chem. Phys. 98, 1358 (1993)
            Ca : Obtained from the Peterson Research Group Website (tyr0.chem.wsu.edu/~kipeters) Feb. 2017
                 J. Koput, K. A. Peterson, J. Phys. Chem. 106, 9595 (2002)
         Sc-Zn : Obtained from the ccRepo (grant-hill.group.shef.ac.uk/ccrepo) Feb. 2017
                 N. B. Balabanov, K. A. Peterson, J. Chem. Phys. 123, 064107 (2005)
                 N. B. Balabanov, K. A. Peterson, J. Chem. Phys. 125, 074110 (2006)
         Ga-Kr : Obtained from the ccRepo (grant-hill.group.shef.ac.uk/ccrepo) Feb. 2017
                 A. K. Wilson, D. E. Woon, K. A. Peterson, T. H. Dunning, Jr., J. Chem. Phys. 110, 7667 (1999)

Your calculation utilizes the auxiliary basis: def2/J
   F. Weigend, Phys. Chem. Chem. Phys. 8, 1057 (2006).

================================================================================
                                        WARNINGS
                       Please study these warnings very carefully!
================================================================================

Warning: TCutStore was < 0. Adjusted to Thresh (uncritical)

WARNING: MDCI localization requested with randomization but with NAttempts smaller than number of processes
  ===> : Setting NAttempts = Number of parallel processes!

WARNING: Post HF methods need fully converged wavefunctions
  ===> : Setting SCFConvForced true
         You can overwrite this default with %scf ConvForced false 


INFO   : the flag for use of LIBINT has been found!

================================================================================
                                       INPUT FILE
================================================================================
NAME = /scratch/summit/user/760601/TS2_Int3_1Pyrax_SMD_b_freq_DLPNO.inp
|  1> !CPCM DLPNO-CCSD(T) Extrapolate(2/3,cc)  RIJCOSX GRIDX5 TightSCF KDIIS
|  2> %cpcm
|  3> smd true
|  4> solvent "Ethanol"
|  5> end
|  6> # Number of processors
|  7> %pal nprocs 24 end
|  8> # Memory per core
|  9> %maxcore 4000
| 10> %scf maxiter 500
| 11>     end
| 12> % mdci
| 13>    # Loose cut-off
| 14>    #  TCutPairs 1e-3
| 15>    #  TCutPNO 1e-6
| 16>    #  TCutMKN 1e-3
| 17>    # Normal cut-off
| 18>      TCutPairs 1e-4
| 19>      TCutPNO 3.33e-7
| 20>      TCutMKN 1e-3
| 21>    # Tight cut-off
| 22>    #TCutPairs 1e-5
| 23>    #TCutPNO 1e-7
| 24>    #TCutMKN 1e-4
| 25>    # Faster/less disk-IO for large jobs
| 26>    #LocalTrafo 3
| 27>    Density None
| 28> end
| 29> % output
| 30>    printlevel mini
| 31>    print[ P_SCFInfo ] 1
| 32>    print[ P_SCFIterInfo ] 1
| 33>    print[ P_OrbEn ] 0
| 34>    print[ P_Cartesian ] 0
| 35> end
| 36> % elprop
| 37>    Dipole False
| 38> end
| 39> * xyz 2 1
| 40>  C                  3.46528400    1.76221400   -1.17492100
| 41>  C                  2.33235700    0.96063600   -1.06941300
| 42>  C                  1.11321000    1.51820300   -0.65940300
| 43>  C                  1.03584900    2.88641200   -0.36715300
| 44>  C                  2.17414400    3.68138700   -0.47040100
| 45>  H                  4.40750900    1.32562800   -1.49324900
| 46>  H                  2.40068900   -0.09554200   -1.31701100
| 47>  H                  0.09365200    3.33593000   -0.06798600
| 48>  H                  2.11111300    4.74183600   -0.24382200
| 49>  P                 -0.32118900    0.41593400   -0.58736200
| 50>  C                 -1.57783100    1.13083600    0.49016000
| 51>  C                 -2.92714300    0.98847600    0.14174900
| 52>  C                 -1.23455200    1.67570600    1.73586400
| 53>  C                 -3.92109900    1.41830200    1.01808500
| 54>  H                 -3.20327300    0.55117600   -0.81395600
| 55>  C                 -2.23275100    2.09860800    2.60767500
| 56>  H                 -0.19178400    1.77592600    2.02603700
| 57>  H                 -4.96558300    1.31507300    0.73826400
| 58>  H                 -1.96132200    2.52965300    3.56705700
| 59>  C                  1.07415900   -1.86354700    0.60308000
| 60>  C                  1.20423700   -1.18166000    1.82129800
| 61>  C                  2.17528400   -2.58386400    0.12819800
| 62>  C                  2.40121800   -1.20524800    2.49939600
| 63>  H                  0.38522200   -0.61935800    2.25422300
| 64>  C                  3.35649500   -2.57986100    0.84092500
| 65>  H                  2.13662100   -3.15734300   -0.78927000
| 66>  H                  2.57028300   -0.69177700    3.43741000
| 67>  H                  4.24630700   -3.11049500    0.52626300
| 68>  C                  3.38747200    3.12054400   -0.86909100
| 69>  H                  4.27324000    3.74496100   -0.94582100
| 70>  O                 -0.96425800    0.33103000   -2.06856800
| 71>  C                 -0.22522300   -1.83287400   -0.16325100
| 72>  C                 -0.25955200   -2.41638100   -1.49379100
| 73>  C                 -1.42794500   -2.08788600    0.61886600
| 74>  C                 -1.41650300   -2.89419400   -2.01630000
| 75>  H                  0.61819300   -2.38847800   -2.12856800
| 76>  C                 -2.54991300   -2.57773400    0.03183700
| 77>  H                 -1.45977700   -1.84678000    1.67497600
| 78>  H                 -1.48617700   -3.27813500   -3.02687300
| 79>  H                 -3.47159900   -2.73712500    0.57847200
| 80>  C                 -1.19122700    1.51542600   -2.85870800
| 81>  H                 -0.23455600    1.94309500   -3.17083400
| 82>  H                 -1.75574800    1.18641900   -3.73200900
| 83>  H                 -1.77030800    2.25445600   -2.29712100
| 84>  N                  3.43797300   -1.89351900    1.99064000
| 85>  N                 -2.56047900   -2.93277500   -1.28035400
| 86>  C                 -3.57573800    1.97303300    2.24905300
| 87>  H                 -4.35244600    2.30680700    2.93141800
| 88>  H                 -3.40137700   -3.32740700   -1.68518900
| 89>  H                  4.31913900   -1.90092400    2.50203200
| 90> *
| 91> 
| 92>                          ****END OF INPUT****
================================================================================

                   *****************************************
                   * Extrapolated Single Point Calculation *
                   *****************************************

Your calculation utilizes the basis: cc-pVDZ 
       H, B-Ne : Obtained from the ccRepo (grant-hill.group.shef.ac.uk/ccrepo) Feb. 2017
                 T. H. Dunning, Jr., J. Chem. Phys. 90, 1007 (1989)
            He : Obtained from the ccRepo (grant-hill.group.shef.ac.uk/ccrepo) Feb. 2017
                 D. E. Woon, T. H. Dunning, Jr., J. Chem. Phys. 100, 2975 (1994)
  Li-Be, Na-Mg : Obtained from the ccRepo (grant-hill.group.shef.ac.uk/ccrepo) Feb. 2017
                 B. P. Prascher, D. E. Woon, K. A. Peterson, T. H. Dunning, Jr., A. K. Wilson, Theor. Chem. Acc. 128, 69 (2011)
         Al-Ar : Obtained from the ccRepo (grant-hill.group.shef.ac.uk/ccrepo) Feb. 2017
                 D. E. Woon, T. H. Dunning, Jr., J. Chem. Phys. 98, 1358 (1993)
            Ca : Obtained from the Peterson Research Group Website (tyr0.chem.wsu.edu/~kipeters) Feb. 2017
                 J. Koput, K. A. Peterson, J. Phys. Chem. 106, 9595 (2002)
         Sc-Zn : Obtained from the ccRepo (grant-hill.group.shef.ac.uk/ccrepo) Feb. 2017
                 N. B. Balabanov, K. A. Peterson, J. Chem. Phys. 123, 064107 (2005)
                 N. B. Balabanov, K. A. Peterson, J. Chem. Phys. 125, 074110 (2006)
         Ga-Kr : Obtained from the ccRepo (grant-hill.group.shef.ac.uk/ccrepo) Feb. 2017
                 A. K. Wilson, D. E. Woon, K. A. Peterson, T. H. Dunning, Jr., J. Chem. Phys. 110, 7667 (1999)

Your calculation utilizes the auxiliary basis: def2/JK
   H-Ba, Hf-Rn: F. Weigend, J. Comput. Chem. 29, 167 (2008).

Your calculation utilizes the auxiliary basis: cc-pVDZ/C 
  H-He, B, Ne, Al-Ar, Ga-Br : Obtained from the EMSL Basis Set Exchange (bse.pnl.gov) Feb. 2017
                              F. Weigend, A. Kohn, C. Hattig, J. Chem. Phys. 116, 3175 (2002)
               Li-Be, Na-Mg : Obtained from the EMSL Basis Set Exchange (bse.pnl.gov) Feb. 2017
                              C. Haettig, Phys. Chem. Chem. Phys. 7, 59 (2005)
                        C-F : Obtained from the EMSL Basis Set Exchange (bse.pnl.gov) Feb. 2017
                              C. Haettig, Phys. Chem. Chem. Phys. 7, 59 (2005)
                              F. Weigend, A. Kohn, C. Hattig, J. Chem. Phys. 116, 3175 (2002)
                         Kr : Obtained from the TURBOMOLE 7.0 basis set library
                              F. Weigend, A. Kohn, C. Hattig, J. Chem. Phys. 116, 3175 (2002)
                              S function revised in Sep. 2009

Your calculation utilizes the auxiliary basis: def2/JK
   H-Ba, Hf-Rn: F. Weigend, J. Comput. Chem. 29, 167 (2008).

All done

                     -----------------------------------------
                     Extrapolated Energy 1 Basis=     cc-pVDZ
                     -----------------------------------------



           ************************************************************
           *        Program running with 24 parallel MPI-processes    *
           *              working on a common directory               *
           ************************************************************
 One Electron integrals                  ... done
 Pre-screening matrix                    ... done


           ************************************************************
           *        Program running with 24 parallel MPI-processes    *
           *              working on a common directory               *
           ************************************************************
------------
SCF SETTINGS
------------
Hamiltonian:
 Ab initio Hamiltonian  Method          .... Hartree-Fock(GTOs)
 RI-approximation to the Coulomb term is turned on
   Number of auxiliary basis functions  .... 2498
   RIJ-COSX (HFX calculated with COS-X)).... on


General Settings:
 Integral files         IntName         .... /scratch/summit/user/760601/TS2_Int3_1Pyrax_SMD_b_freq_DLPNO
 Hartree-Fock type      HFTyp           .... RHF
 Total Charge           Charge          ....    2
 Multiplicity           Mult            ....    1
 Number of Electrons    NEL             ....  196
 Basis Dimension        Dim             ....  497
 Nuclear Repulsion      ENuc            ....   2685.9742064241 Eh

Convergence Acceleration:
 DIIS                   CNVDIIS         .... off
 Newton-Raphson         CNVNR           .... off
 SOSCF                  CNVSOSCF        .... off
 Level Shifting         CNVShift        .... off
 Zerner damping         CNVZerner       .... off
 Static damping         CNVDamp         .... off
 Fernandez-Rico         CNVRico         .... off

SCF Procedure:
 Maximum # iterations   MaxIter         ....   500
 SCF integral mode      SCFMode         .... Direct
   Integral package                     .... LIBINT
 Reset frequeny         DirectResetFreq ....    20
 Integral Threshold     Thresh          ....  2.500e-11 Eh
 Primitive CutOff       TCut            ....  2.500e-12 Eh

Convergence Tolerance:
 Convergence Check Mode ConvCheckMode   .... Total+1el-Energy
 Convergence forced     ConvForced      .... 1
 Energy Change          TolE            ....  1.000e-08 Eh
 1-El. energy change                    ....  1.000e-05 Eh


Diagonalization of the overlap matrix:
Smallest eigenvalue                        ... 3.128e-04
Time for diagonalization                   ...    0.139 sec
Threshold for overlap eigenvalues          ... 1.000e-08
Number of eigenvalues below threshold      ... 0
Time for construction of square roots      ...    0.058 sec
Total time needed                          ...    0.198 sec

-------------------
DFT GRID GENERATION
-------------------

General Integration Accuracy     IntAcc      ...  4.340
Radial Grid Type                 RadialGrid  ... Gauss-Chebyshev
Angular Grid (max. acc.)         AngularGrid ... Lebedev-110
Angular grid pruning method      GridPruning ... 3 (G Style)
Weight generation scheme         WeightScheme... Becke
Basis function cutoff            BFCut       ...    1.0000e-11
Integration weight cutoff        WCut        ...    1.0000e-14
Grids for H and He will be reduced by one unit

# of grid points (after initial pruning)     ...  63276 (   0.0 sec)
# of grid points (after weights+screening)   ...  55433 (   0.1 sec)
nearest neighbour list constructed           ...    0.0 sec
Grid point re-assignment to atoms done       ...    0.0 sec
Grid point division into batches done        ...    0.0 sec
Reduced shell lists constructed in    0.1 sec

Total number of grid points                  ...    55433
Total number of batches                      ...      888
Average number of points per batch           ...       62
Average number of grid points per atom       ...     1109
Average number of shells per batch           ...   128.50 (55.15%)
Average number of basis functions per batch  ...   259.92 (52.30%)
Average number of large shells per batch     ...    80.05 (62.30%)
Average number of large basis fcns per batch ...   165.21 (63.56%)
Maximum spatial batch extension              ...   9.14,  6.62, 17.25 au
Average spatial batch extension              ...   0.10,  0.08,  0.11 au

Time for grid setup =    0.294 sec

Loading Hartree-Fock densities                     ... done
Calculating cut-offs                               ... done
Setting up the integral package                    ... done
Initializing the effective Hamiltonian             ... done
Starting the Coulomb interaction                   ... done (   0.2 sec)
Reading the grid                                   ... done
Mapping shells                                     ... done
Starting the XC term evaluation                    ... done (   0.1 sec)
Transforming the Hamiltonian                       ... done (   0.0 sec)
Diagonalizing the Hamiltonian                      ... done (   0.1 sec)
Back transforming the eigenvectors                 ... done (   0.0 sec)
Now organizing SCF variables                       ... done
--------------------
COSX GRID GENERATION
--------------------

General Integration Accuracy     IntAcc      ...  3.670
Radial Grid Type                 RadialGrid  ... Gauss-Chebyshev
Angular Grid (max. acc.)         AngularGrid ... Lebedev-50
Angular grid pruning method      GridPruning ... 3 (G Style)
Weight generation scheme         WeightScheme... Becke
Basis function cutoff            BFCut       ...    1.0000e-11
Integration weight cutoff        WCut        ...    1.0000e-14
Grids for H and He will be reduced by one unit

# of grid points (after initial pruning)     ...  29254 (   0.0 sec)
# of grid points (after weights+screening)   ...  25940 (   0.0 sec)
nearest neighbour list constructed           ...    0.0 sec
Grid point re-assignment to atoms done       ...    0.0 sec
Grid point division into batches done        ...    0.0 sec
Reduced shell lists constructed in    0.0 sec

Total number of grid points                  ...    25940
Total number of batches                      ...      425
Average number of points per batch           ...       61
Average number of grid points per atom       ...      519
Average number of shells per batch           ...   131.32 (56.36%)
Average number of basis functions per batch  ...   267.95 (53.91%)
Average number of large shells per batch     ...    81.16 (61.80%)
Average number of large basis fcns per batch ...   167.26 (62.42%)
Maximum spatial batch extension              ...   7.85,  5.04, 25.75 au
Average spatial batch extension              ...   0.11,  0.10,  0.17 au

Overlap Fitting                  UseSFitting ... on
Constructing numerical overlap ... done (      0.0 sec)
Inverting numerical overlap    ... done (      0.0 sec)
Obtaining analytic overlap     ... done (      0.0 sec)
Final contraction and storage  ... done (      0.0 sec)


General Integration Accuracy     IntAcc      ...  4.010
Radial Grid Type                 RadialGrid  ... Gauss-Chebyshev
Angular Grid (max. acc.)         AngularGrid ... Lebedev-50
Angular grid pruning method      GridPruning ... 3 (G Style)
Weight generation scheme         WeightScheme... Becke
Basis function cutoff            BFCut       ...    1.0000e-11
Integration weight cutoff        WCut        ...    1.0000e-14
Grids for H and He will be reduced by one unit

# of grid points (after initial pruning)     ...  35616 (   0.0 sec)
# of grid points (after weights+screening)   ...  31526 (   0.1 sec)
nearest neighbour list constructed           ...    0.0 sec
Grid point re-assignment to atoms done       ...    0.0 sec
Grid point division into batches done        ...    0.0 sec
Reduced shell lists constructed in    0.1 sec

Total number of grid points                  ...    31526
Total number of batches                      ...      521
Average number of points per batch           ...       60
Average number of grid points per atom       ...      631
Average number of shells per batch           ...   131.48 (56.43%)
Average number of basis functions per batch  ...   267.48 (53.82%)
Average number of large shells per batch     ...    80.87 (61.51%)
Average number of large basis fcns per batch ...   166.61 (62.29%)
Maximum spatial batch extension              ...   9.77,  6.98, 16.93 au
Average spatial batch extension              ...   0.11,  0.10,  0.14 au

Overlap Fitting                  UseSFitting ... on
Constructing numerical overlap ... done (      0.0 sec)
Inverting numerical overlap    ... done (      0.0 sec)
Obtaining analytic overlap     ... done (      0.0 sec)
Final contraction and storage  ... done (      0.0 sec)


General Integration Accuracy     IntAcc      ...  4.670
Radial Grid Type                 RadialGrid  ... Gauss-Chebyshev
Angular Grid (max. acc.)         AngularGrid ... Lebedev-194
Angular grid pruning method      GridPruning ... 3 (G Style)
Weight generation scheme         WeightScheme... Becke
Basis function cutoff            BFCut       ...    1.0000e-11
Integration weight cutoff        WCut        ...    1.0000e-14
Grids for H and He will be reduced by one unit

# of grid points (after initial pruning)     ... 142786 (   0.0 sec)
# of grid points (after weights+screening)   ... 123345 (   0.2 sec)
nearest neighbour list constructed           ...    0.0 sec
Grid point re-assignment to atoms done       ...    0.0 sec
Grid point division into batches done        ...    0.2 sec
Reduced shell lists constructed in    0.4 sec

Total number of grid points                  ...   123345
Total number of batches                      ...     1949
Average number of points per batch           ...       63
Average number of grid points per atom       ...     2467
Average number of shells per batch           ...   123.24 (52.89%)
Average number of basis functions per batch  ...   247.31 (49.76%)
Average number of large shells per batch     ...    76.41 (62.00%)
Average number of large basis fcns per batch ...   158.72 (64.18%)
Maximum spatial batch extension              ...  13.04,  8.80, 16.07 au
Average spatial batch extension              ...   0.07,  0.06,  0.07 au

Overlap Fitting                  UseSFitting ... on
Constructing numerical overlap ... done (      0.1 sec)
Inverting numerical overlap    ... done (      0.0 sec)
Obtaining analytic overlap     ... done (      0.0 sec)
Final contraction and storage  ... done (      0.0 sec)

Time for X-Grid setup             =    1.390 sec

------------------------------------------------------------------------------
                           CPCM SOLVATION MODEL                               
------------------------------------------------------------------------------
CPCM parameters:
  Epsilon                                         ...      24.8520
  Refrac                                          ...       1.3300
  Rsolv                                           ...       1.3000
  Surface type                                    ...    GEPOL SES
  Epsilon function type                           ...         CPCM
Solvent:                                     ... ETHANOL
SMD-CDS solvent descriptors:
  Soln                                       ...    1.3611
  Soln25                                     ...    1.3593
  Sola                                       ...    0.3700
  Solb                                       ...    0.4800
  Solg                                       ...   31.6200
  Solc                                       ...    0.0000
  Solh                                       ...    0.0000
Radii:
 Radius for C  used is    3.4960 Bohr (=   1.8500 Ang.)
 Radius for H  used is    2.2677 Bohr (=   1.2000 Ang.)
 Radius for P  used is    4.0062 Bohr (=   2.1200 Ang.)
 Radius for O  used is    3.0765 Bohr (=   1.6280 Ang.)
 Radius for N  used is    3.5716 Bohr (=   1.8900 Ang.)
Calculating surface                               ...        done! (  0.3s)
GEPOL surface points                              ...         2075
GEPOL Volume                                      ...    2774.3321
GEPOL Surface-area                                ...    1285.1117
Calculating surface distance matrix               ...        done! (  0.1s)
Performing Cholesky decomposition & store         ...        done! (  0.3s)
Overall time for CPCM initialization              ...                 0.6s
--------------
SCF ITERATIONS
--------------
ITER       Energy         Delta-E        Max-DP      RMS-DP      [F,P]   Gradient Norm
               ***  Starting incremental Fock matrix formation  ***
                             ****Resetting KDIIS****
                             ****Turning on KDIIS(Cayley)****
  0  -1407.8858967738   0.000000000000 0.01798675  0.00054167  0.0754356   0.098885235
  1  -1408.0713330508  -0.185436276998 0.02587506  0.00087151  0.0657349   0.087121872
  2  -1408.2722088776  -0.200875826805 0.04208050  0.00140997  0.0536719   0.070598102
  3  -1408.5125272039  -0.240318326312 0.07180325  0.00213491  0.0335433   0.043140909
  4  -1408.6603052817  -0.147778077755 0.00944654  0.00010343  0.0028563   0.001516279
  5  -1408.6607863401  -0.000481058387 0.00660002  0.00005526  0.0009022   0.000500340
  6  -1408.6608506671  -0.000064327031 0.00116150  0.00001194  0.0002824   0.000260472
  7  -1408.6608618933  -0.000011226226 0.00123977  0.00001076  0.0001660   0.000099166
  8  -1408.6608647833  -0.000002889973 0.00026172  0.00000324  0.0000814   0.000052552
  9  -1408.6608655307  -0.000000747364 0.00007741  0.00000191  0.0000283   0.000018785
 10  -1408.6608655461  -0.000000015420 0.00003643  0.00000075  0.0000203   0.000008168
 11  -1408.6608656097  -0.000000063595 0.00001781  0.00000029  0.0000064   0.000005490
 12  -1408.6608656162  -0.000000006482 0.00001011  0.00000023  0.0000043   0.000003035
 13  -1408.6608656358  -0.000000019625 0.00000515  0.00000008  0.0000022   0.000001350
 14  -1408.6608656722  -0.000000036391 0.00000273  0.00000004  0.0000007   0.000000646
 15  -1408.6608657380  -0.000000065812 0.00000099  0.00000002  0.0000006   0.000000386
 16  -1408.6608656937   0.000000044237 0.00000084  0.00000002  0.0000003   0.000000158
 17  -1408.6608657582  -0.000000064411 0.00000095  0.00000002  0.0000002   0.000000108
 18  -1408.6608658673  -0.000000109167 0.00000030  0.00000000  0.0000002   0.000000062
 19  -1408.6608658520   0.000000015325 0.00000044  0.00000001  0.0000001   0.000000041
               *** Restarting incremental Fock matrix formation ***
                             ****Resetting KDIIS****
 20  -1408.6608343949   0.000031457060 0.00001828  0.00000058  0.0000106   0.000024114
                 **** Energy Check signals convergence ****
                    *** KDIIS BlockDiag ( 0.082 sec) ***

               *****************************************************
               *                     SUCCESS                       *
               *           SCF CONVERGED AFTER  21 CYCLES          *
               *****************************************************

Old exchange energy                            =   -171.305174299 Eh
New exchange energy                            =   -171.306724468 Eh
Exchange energy change after final integration =     -0.001550169 Eh
Total energy after final integration           =  -1408.662384558 Eh
Final COS-X integration done in                =    14.401 sec

SMD CDS free energy correction energy :                -0.89200     Kcal/mol
Total Energy after SMD CDS correction =             -1408.663806050 Eh
Total Energy       :        -1408.66380605 Eh          -38331.69091 eV
  Last Energy change         ...    6.5422e-09  Tolerance :   1.0000e-08
  Last MAX-Density change    ...    2.4279e-13  Tolerance :   1.0000e-07
             **** THE GBW FILE WAS UPDATED (/scratch/summit/user/760601/TS2_Int3_1Pyrax_SMD_b_freq_DLPNO.gbw) ****
             **** DENSITY FILE WAS UPDATED (/scratch/summit/user/760601/TS2_Int3_1Pyrax_SMD_b_freq_DLPNO.scfp.tmp) ****
             **** ENERGY FILE WAS UPDATED (/scratch/summit/user/760601/TS2_Int3_1Pyrax_SMD_b_freq_DLPNO.en.tmp) ****
Total SCF time: 0 days 0 hours 1 min 55 sec 


           ************************************************************
           *        Program running with 24 parallel MPI-processes    *
           *              working on a common directory               *
           ************************************************************

   <<< Auxbasis replaced with /scratch/summit/user/760601/TS2_Int3_1Pyrax_SMD_b_freq_DLPNO.AUXC.tmp (Dim=1854) >>> 



------------------------------------------------------------------------------- 
                              ORCA-MATRIX DRIVEN CI                            
------------------------------------------------------------------------------- 


Wavefunction type
-----------------
Correlation treatment                      ...      CCSD     
Single excitations                         ... ON
Orbital optimization                       ... OFF
Calculation of Z vector                    ... OFF
Calculation of Brueckner orbitals          ... OFF
Perturbative triple excitations            ... ON
Calculation of F12 correction              ... OFF
Frozen core treatment                      ... chemical core (62 el)
Reference Wavefunction                     ... RHF
  Internal Orbitals:    31 ...   97 ( 67 MO's/134 electrons)
  Virtual  Orbitals:    98 ...  496 (399 MO's              )
Number of AO's                             ...    497
Number of electrons                        ...    196
Number of correlated electrons             ...    134

Algorithmic settings
--------------------
Integral transformation                    ... All integrals via the RI transformation
K(C) Formation                             ... RI-DLPNO
   PNO-Integral Storage                    ... ON DISK
   PNO occupation number cut-off           ... 3.330e-07
   Singles PNO occupation number cut-off   ... 9.990e-09
   PNO Mulliken prescreening cut-off       ... 1.000e-03
   Domain cut-off (Mulliken population)    ... 1.000e-03
   PNO Normalization                       ...    1
Maximum number of iterations               ...        50
Convergence tolerance (max. residuum)      ... 1.000e-05
Level shift for amplitude update           ... 2.000e-01
Maximum number of DIIS vectors             ...         7
DIIS turned on at iteration                ...         0
Damping before turning on DIIS             ...     0.500
Damping after turning on DIIS              ...     0.000
Pair specific amplitude update             ... OFF
Natural orbital iterations                 ... OFF
Perturbative natural orbital generation    ... OFF
Printlevel                                 ... 2

Singles Fock matrix elements calculated using PNOs.

Memory handling:
----------------
Maximum memory for working arrays          ...   4000 MB
Data storage in matrix containers          ... UNCOMPRESSED
Data type for integral storage             ... DOUBLE
In-Core Storage of quantities:
   Amplitudes+Sigma Vector      ... NO
   J+K operators                ... NO
   DIIS vectors                 ... NO
   3-external integrals         ... NO
   4-external integrals         ... NO

Localization treatment:
-----------------------
Localization option                        ...    2
Using relative localization threshhold     ... 1.0e-08
Neglect threshold for strong pairs         ... 1.000e-04 Eh
Prescreening threshold for very weak pairs ... 1.000e-06 Eh
Using randomized seed for localization     ... on
Number of localization attempts            ...   24

Initializing the integral package          ... done
Localizing the valence orbitals
Localization sum:  2968.416438471 
Localization sum:  2968.416413825 
Localization sum:  2968.365081906 
Localization sum:  2968.152992065 
Localization sum:  2968.416421902 
Localization sum:  2968.416410710 
Localization sum:  2968.339208283 
Localization sum:  2968.416425170 
Localization sum:  2968.365099432 
Localization sum:  2968.416415462 
Localization sum:  2968.416412827 
Localization sum:  2968.178920702 
Localization sum:  2968.416426245 
Localization sum:  2968.416406999 
Localization sum:  2968.416409227 
Localization sum:  2968.178921224 
Localization sum:  2968.416418643 
Localization sum:  2968.390521101 
Localization sum:  2968.416411527 
Localization sum:  2968.416428187 
Localization sum:  2968.416421102 
Localization sum:  2968.390534784 
Localization sum:  2968.365093467 
Localization sum:  2968.365092281 
------------------------------------------------------------------------------
                           ORCA ORBITAL LOCALIZATION
------------------------------------------------------------------------------

Input orbitals are from                  ... /scratch/summit/user/760601/TS2_Int3_1Pyrax_SMD_b_freq_DLPNO.proc22.gbw
Output orbitals are to                   ... /scratch/summit/user/760601/TS2_Int3_1Pyrax_SMD_b_freq_DLPNO.proc22.loc
Max. number of iterations                ... 128
Localizations seeded randomly            ... on
Convergence tolerance                    ... 1.000e-06
Using relative localization threshhold   ... 1.000e-08
Treshold for strong local MOs            ... 9.500e-01
Treshold for bond MOs                    ... 8.500e-01
Operator                                 ... 0
Orbital range for localization           ... 31 to 97
Localization criterion                   ... FOSTER-BOYS
Doing the dipole integrals     ... o.k.
Entering Jacobi type localization:
Using Cholesky decomposition as initial guess.
Initial value of the localization sum :  2862.745517
ITERATION   0 : L= 2964.1051408373 DL=  1.01e+02 (MAX-T)=  44.595 
ITERATION   1 : L= 2967.3925763562 DL=  3.29e+00 (MAX-T)=  28.021 
ITERATION   2 : L= 2968.2698737635 DL=  8.77e-01 (MAX-T)=   8.888 
ITERATION   3 : L= 2968.4027952825 DL=  1.33e-01 (MAX-T)=   1.258 
ITERATION   4 : L= 2968.4146966899 DL=  1.19e-02 (MAX-T)=   0.638 
ITERATION   5 : L= 2968.4162220922 DL=  1.53e-03 (MAX-T)=   0.183 
ITERATION   6 : L= 2968.4164103572 DL=  1.88e-04 (MAX-T)=   0.064 
ITERATION   7 : L= 2968.4164384712 DL=  2.81e-05 (MAX-T)=   0.083 
LOCALIZATION SUM CONVERGED


------------------------------------------------------------------------------- 
                    LOCALIZED MOLECULAR ORBITAL COMPOSITIONS                   
------------------------------------------------------------------------------- 

The Mulliken populations for each LMO on each atom are computed
The LMO`s will be ordered according to atom index and type
  (A) Strongly localized MO`s have populations of >=0.950 on one atom
  (B) Two center bond orbitals have populations of >=0.850 on two atoms
  (C) Other MO`s are considered to be `delocalized`

FOUND  -   2 strongly local MO`s
       -  64 two center bond MO`s
       -   1 significantly delocalized MO`s

Rather strongly localized orbitals:
MO  32:  30O  -   0.961390
MO  31:  30O  -   0.962914
Bond-like localized orbitals:
MO  96:  49H  -   0.393251  and  44N  -   0.601540
MO  95:  48H  -   0.408729  and  45N  -   0.588340
MO  94:  47H  -   0.478130  and  46C  -   0.534641
MO  93:  46C  -   0.514851  and  15C  -   0.516558
MO  92:  46C  -   0.438079  and  13C  -   0.482400
MO  91:  46C  -   0.440530  and  13C  -   0.486002
MO  90:  45N  -   0.629817  and  36C  -   0.394413
MO  89:  45N  -   0.802537  and  36C  -   0.089532
MO  88:  45N  -   0.631565  and  34C  -   0.392039
MO  87:  44N  -   0.697021  and  24C  -   0.230147
MO  86:  44N  -   0.663251  and  24C  -   0.319604
MO  85:  44N  -   0.633038  and  22C  -   0.386721
MO  84:  43H  -   0.481112  and  40C  -   0.536312
MO  83:  42H  -   0.467950  and  40C  -   0.546095
MO  82:  41H  -   0.477967  and  40C  -   0.541368
MO  81:  40C  -   0.296637  and  30O  -   0.709119
MO  80:  39H  -   0.453172  and  36C  -   0.550777
MO  79:  38H  -   0.454488  and  34C  -   0.548063
MO  78:  37H  -   0.464722  and  33C  -   0.541389
MO  77:  36C  -   0.432283  and  33C  -   0.540186
MO  76:  36C  -   0.406378  and  33C  -   0.563520
MO  75:  35H  -   0.465997  and  32C  -   0.536325
MO  74:  34C  -   0.407539  and  32C  -   0.560673
MO  73:  34C  -   0.433540  and  32C  -   0.539428
MO  72:  33C  -   0.443706  and  31C  -   0.588527
MO  71:  32C  -   0.452877  and  31C  -   0.587249
MO  70:  31C  -   0.536888  and  19C  -   0.526893
MO  69:  31C  -   0.302813  and   9P  -   0.761053
MO  68:  30O  -   0.711178  and   9P  -   0.271291
MO  67:  29H  -   0.476483  and  28C  -   0.534566
MO  66:  28C  -   0.517005  and   4C  -   0.513501
MO  65:  28C  -   0.433384  and   0C  -   0.487448
MO  64:  28C  -   0.429535  and   0C  -   0.490100
MO  63:  27H  -   0.438227  and  24C  -   0.563920
MO  62:  26H  -   0.439613  and  22C  -   0.563508
MO  61:  25H  -   0.454127  and  21C  -   0.549544
MO  60:  24C  -   0.508007  and  21C  -   0.518372
MO  59:  23H  -   0.453794  and  20C  -   0.551279
MO  58:  22C  -   0.417809  and  20C  -   0.520757
MO  57:  22C  -   0.387235  and  20C  -   0.514983
MO  56:  21C  -   0.479344  and  19C  -   0.525473
MO  55:  20C  -   0.489712  and  19C  -   0.531460
MO  54:  18H  -   0.480533  and  15C  -   0.528695
MO  53:  17H  -   0.479309  and  13C  -   0.530665
MO  52:  16H  -   0.474068  and  12C  -   0.533438
MO  51:  15C  -   0.464240  and  12C  -   0.467039
MO  50:  15C  -   0.468659  and  12C  -   0.458435
MO  49:  14H  -   0.473909  and  11C  -   0.535489
MO  48:  13C  -   0.494903  and  11C  -   0.536468
MO  47:  12C  -   0.475679  and  10C  -   0.543536
MO  46:  11C  -   0.399298  and  10C  -   0.528354
MO  45:  11C  -   0.401326  and  10C  -   0.527012
MO  44:  10C  -   0.584728  and   9P  -   0.454047
MO  43:   9P  -   0.472439  and   2C  -   0.566134
MO  42:   8H  -   0.477385  and   4C  -   0.532268
MO  41:   7H  -   0.473606  and   3C  -   0.535514
MO  40:   6H  -   0.478866  and   1C  -   0.531478
MO  39:   5H  -   0.480728  and   0C  -   0.528563
MO  38:   4C  -   0.472392  and   3C  -   0.454665
MO  37:   4C  -   0.471427  and   3C  -   0.454949
MO  36:   3C  -   0.466804  and   2C  -   0.553544
MO  35:   2C  -   0.529696  and   1C  -   0.398388
MO  34:   2C  -   0.530843  and   1C  -   0.398818
MO  33:   1C  -   0.537772  and   0C  -   0.492522
More delocalized orbitals:
MO  97:  19C - 0.259 21C - 0.510 24C - 0.197
Localized MO's were stored in: /scratch/summit/user/760601/TS2_Int3_1Pyrax_SMD_b_freq_DLPNO.proc22.loc


   <<< Auxbasis replaced with /scratch/summit/user/760601/TS2_Int3_1Pyrax_SMD_b_freq_DLPNO.AUXC.tmp (Dim=1854) >>> 

Localizing the core orbitals
Localization sum:  1115.684814153 
Localization sum:  1115.684886978 
Localization sum:  1115.685001461 
Localization sum:  1115.684849397 
Localization sum:  1115.684845869 
Localization sum:  1115.684861754 
Localization sum:  1115.684933952 
Localization sum:  1115.684896328 
Localization sum:  1115.684892815 
Localization sum:  1115.684938140 
Localization sum:  1115.684811775 
Localization sum:  1115.684980807 
Localization sum:  1115.684813957 
Localization sum:  1115.684887342 
Localization sum:  1115.684832457 
Localization sum:  1115.684831063 
Localization sum:  1115.684889487 
Localization sum:  1115.684924030 
Localization sum:  1115.684883877 
Localization sum:  1115.684906661 
Localization sum:  1115.684886769 
Localization sum:  1115.684860900 
Localization sum:  1115.684898136 
Localization sum:  1115.684946275 
------------------------------------------------------------------------------
                           ORCA ORBITAL LOCALIZATION
------------------------------------------------------------------------------

Input orbitals are from                  ... /scratch/summit/user/760601/TS2_Int3_1Pyrax_SMD_b_freq_DLPNO.proc11.loc
Output orbitals are to                   ... /scratch/summit/user/760601/TS2_Int3_1Pyrax_SMD_b_freq_DLPNO.proc11.loc
Max. number of iterations                ... 128
Localizations seeded randomly            ... on
Convergence tolerance                    ... 1.000e-06
Using relative localization threshhold   ... 1.000e-08
Treshold for strong local MOs            ... 9.500e-01
Treshold for bond MOs                    ... 8.500e-01
Operator                                 ... 0
Orbital range for localization           ... 0 to 30
Localization criterion                   ... FOSTER-BOYS
Doing the dipole integrals     ... o.k.
Entering Jacobi type localization:
Using Cholesky decomposition as initial guess.
Initial value of the localization sum :  1115.438849
ITERATION   0 : L= 1115.6849159466 DL=  2.46e-01 (MAX-T)=  44.998 
ITERATION   1 : L= 1115.6850011235 DL=  8.52e-05 (MAX-T)=   0.978 
ITERATION   2 : L= 1115.6850014611 DL=  3.38e-07 (MAX-T)=   0.043 
LOCALIZATION SUM CONVERGED


------------------------------------------------------------------------------- 
                    LOCALIZED MOLECULAR ORBITAL COMPOSITIONS                   
------------------------------------------------------------------------------- 

The Mulliken populations for each LMO on each atom are computed
The LMO`s will be ordered according to atom index and type
  (A) Strongly localized MO`s have populations of >=0.950 on one atom
  (B) Two center bond orbitals have populations of >=0.850 on two atoms
  (C) Other MO`s are considered to be `delocalized`

FOUND  -  31 strongly local MO`s
       -   0 two center bond MO`s
       -   0 significantly delocalized MO`s

Rather strongly localized orbitals:
MO  30:  46C  -   0.999105
MO  29:  45N  -   0.999164
MO  28:  44N  -   0.999183
MO  27:  40C  -   0.999776
MO  26:  36C  -   1.000112
MO  25:  34C  -   1.000378
MO  24:  33C  -   0.999075
MO  23:  32C  -   0.998841
MO  22:  31C  -   0.997789
MO  21:  30O  -   0.999644
MO  20:  28C  -   0.999337
MO  19:  24C  -   1.000544
MO  18:  22C  -   1.000702
MO  17:  21C  -   0.999112
MO  16:  20C  -   0.998780
MO  15:  19C  -   0.999142
MO  14:  15C  -   0.999125
MO  13:  13C  -   0.998871
MO  12:  12C  -   0.999013
MO  11:  11C  -   0.998942
MO  10:  10C  -   0.998637
MO   9:   9P  -   0.999998
MO   8:   9P  -   1.000399
MO   7:   9P  -   0.999827
MO   6:   9P  -   0.999547
MO   5:   9P  -   0.999273
MO   4:   4C  -   0.999324
MO   3:   3C  -   0.998852
MO   2:   2C  -   0.998971
MO   1:   1C  -   0.999324
MO   0:   0C  -   0.998938
Localized MO's were stored in: /scratch/summit/user/760601/TS2_Int3_1Pyrax_SMD_b_freq_DLPNO.proc11.loc


   <<< Auxbasis replaced with /scratch/summit/user/760601/TS2_Int3_1Pyrax_SMD_b_freq_DLPNO.AUXC.tmp (Dim=1854) >>> 

Warning: internal orbitals are localized - no re-canonicalization of internal orbitals

--------------------------
CLOSED-SHELL FOCK OPERATOR
--------------------------

MDCI_FockCPCM: ediel   =  -0.250381254000
MDCI_FockCPCM: <VCPCM> =  19.962350537681
Entering RIJCOSX section for the Fock matrix
Retrieving the Coulomb fitting basis              ... done
Trying to retrieve the full J-matrix              ... done
Updating the Fock matrix                          ... done
Making the frozen core Coulomb matrix             ... done
Retrieving the full K-matrix                      ... done
Calculating the frozen core K-matrix              ... done
Updating the Fock matrix                          ... done
Time needed for Fock operator              ...            9.402 sec
Reference energy                           ...  -1408.662386011

--------------
DLPNO SETTINGS (2015 fully linear scaling implementation)
--------------

TCutMKN:           1.000e-03
TCutPAO:           1.000e-03
TCutPNO:           3.330e-07
TCutPNOSingles:    9.990e-09
TCutPAOExt:        1.000e-01
TCutPairs:         1.000e-04
TCutPre:           1.000e-06
TCutOSV:           1.000e-06
TCutDOij:          1.000e-05
TCutDO:            1.000e-02
TCutC:             1.000e-04
TCutCPAO:          1.000e-03
TCutCMO:           1.000e-03
TScaleDOMP2PreScr: 2.000e+00
TScaleMKNMP2PreScr:1.000e+01
TScalePNOMP2PreScr:1.000e+00
PAO overlap thresh 1.000e-08
Using PNOs for Singles Fock computation
Use new domains
Use fully linear algorithm
TCutTNO:           1.000e-09
TCutMP2Pairs:      1.000e-05
TCutDOStrong:     2.000e-03
TCutMKNStrong:     1.000e-02
TCutMKNWeak:       1.000e-01
TCutDOWeak:       4.000e-03
NTCutTNO:          1

--------------------------
Calculating differential overlap integrals ... ok
--------------------------
ELECTRON PAIR PRESCREENING
--------------------------

Dipole-based pair screening          .... used

   TCutDOij = 1.000000e-05
   TCutPre  = 1.000000e-06
   .... Finished loop over pairs
Total time spent in the prescreening                  ...     0.002 sec
sum of pair energies estimated for screened out pairs ...       0.000000000000 Eh
Thresholds for map construction and integral transformation for crude MP2:
   TCutMKN                    ...     1.0e-02
   TCutDO                     ...     2.0e-02
   TCutPairs                     ...     1.0e-04
   TCutPNO_CrudeMP2           ...     3.3e-07
   TCutPNOSingles_CrudeMP2    ...     1.0e-08
Total Time for RHF_SetMaps: MO_PAO:            0.000
Total Time for RHF_SetMaps: MO_Aux:            0.000
Total Time for RHF_SetMaps: MO_AO:            0.001
Total Time for RHF_SetMaps: PAO_AO:            0.011
Total Time for RHF_SetMaps:            0.013
Time for crude MP2 maps preparation:            0.019

------------------------------
LOCAL RI (xy|k) TRANSFORMATION
------------------------------

Dimension of OBS basis                 ... 497
Dimension of (OBS)PAOs                 ... 497
Dimension of the aux-basis             ... 1854
Integral mode                          ... Direct

First Phase: integral generation and first transformation of MO indices
 number of shell sets computed                       =           17174430
 number of shell sets in domains (without screening) =           17174430
 number of shell sets without domains or screening   =           17174430
Closing buffer /scratch/summit/user/760601/TS2_Int3_1Pyrax_SMD_b_freq_DLPNO.kxy_op0.tmp.proc0 ( 0.01 GB; CompressionRatio= 1.00)
Local 3-center integral transformation (op=0) completed in     3.492 sec
--------------------------------
INITIAL GUESS AND PNO GENERATION
--------------------------------

PNO truncation parameters                   .... 
    PAOOverlapThresh   =        1.000e-08

    TCutPairs          =        1.000e-04
    TCutPNO            =        3.330e-07
    TCutPNOSingles     =        9.990e-09
    TCutMP2Pairs       =        1.000e-05
    TCutMKN            =        1.000e-03
    TCutDO             =        1.000e-02

Pair selection                          .... not used
Type of local MP2 treatment                 .... semi-local MP2
Strategy for PNO selection                  .... occupation number selection
Pair density normalization                  .... MP2 norm
Spin component scaling                      .... not used

   .... Finished loop over pairs
Making pair pair interaction lists          ... done

                       ===========================
                        743 OF 2278 PAIRS ARE KEPT CCSD PAIRS
                        719 OF 2278 PAIRS ARE KEPT MP2 PAIRS FOR (T)
                        816 OF 2278 PAIRS ARE SKIPPED
                       ===========================

Total time spent in the initial guess                 ...     7.443 sec
SL-MP2 correlation energy (all non-screened pairs)    ...      -3.450954359832 Eh

Initial PNO correlation energy                        ...      -3.418280991095 Eh
sum of pair energies prescreened and skipped MP2 pairs...      -0.003078727988 Eh
sum of pair energies of crude MP2 skipped pairs only  ...      -0.003078727988 Eh
sum of MP2 pair energies for pairs that were not kept ...      -0.027375948444 Eh
sum of PNO error estimates for the kept pairs         ...      -0.005297420293 Eh
                                                          --------------------
sum of all corrections                                         -0.032673368737
Initial total correlation energy                               -3.450954359832
Thresholds for map construction and integral transformation for fine MP2 and CCSD(T) calculation:
   TCutMKN   ...     1.0e-03
   TCutDO    ...     1.0e-02
   TCutPairs ...     1.0e-04
   TCutCMO   ...     1.0e-03
   TCutCPAO  ...     1.0e-03

Total Time for RHF_SetMaps: MO_PAO:            0.001
Total Time for RHF_SetMaps: MO_Aux:            0.000
Total Time for RHF_SetMaps: MO_AO:            0.001
Total Time for RHF_SetMaps: PAO_AO:            0.013
Total Time for RHF_SetMaps:            0.016
Time for fine MP2 maps preparation, CCSD part:            0.036
Thresholds for map construction and integral transformation for strong Triples:
   TCutMKN   ...     1.0e-02
   TCutDO    ...     2.0e-02
   TCutCMO   ...     1.0e-03
   TCutCPAO  ...     1.0e-03

Total Time for RHF_SetMaps: MO_PAO:            0.000
Total Time for RHF_SetMaps: MO_Aux:            0.000
Total Time for RHF_SetMaps:            0.001
Thresholds for map construction and integral transformation for weak Triples:
   TCutMKN   ...     1.0e-01
   TCutDO    ...     4.0e-02
   TCutCMO   ...     1.0e-03
   TCutCPAO  ...     1.0e-03

Total Time for RHF_SetMaps: MO_PAO:            0.000
Total Time for RHF_SetMaps: MO_Aux:            0.000
Total Time for RHF_SetMaps:            0.001
Time for fine MP2 maps preparation, T part:            0.077
Time for fine MP2 maps preparation, extend MO-MO and trafo maps:            0.010

------------------------------
LOCAL RI (xy|k) TRANSFORMATION
------------------------------

Dimension of OBS basis                 ... 497
Dimension of (OBS)PAOs                 ... 497
Dimension of the aux-basis             ... 1854
Integral mode                          ... Direct

First Phase: integral generation and first transformation of MO indices
 number of shell sets computed                       =           17174430
 number of shell sets in domains (without screening) =           17174430
 number of shell sets without domains or screening   =           17174430
Closing buffer /scratch/summit/user/760601/TS2_Int3_1Pyrax_SMD_b_freq_DLPNO.kxy_op0.tmp.proc0 ( 0.01 GB; CompressionRatio= 1.00)
Local 3-center integral transformation (op=0) completed in     3.518 sec
--------------------------------
INITIAL GUESS AND PNO GENERATION
--------------------------------

PNO truncation parameters                   .... 
    PAOOverlapThresh   =        1.000e-08

    TCutPairs          =        1.000e-04
    TCutPNO            =        3.330e-07
    TCutPNOSingles     =        9.990e-09
    TCutMP2Pairs       =        1.000e-05
    TCutMKN            =        1.000e-03
    TCutDO             =        1.000e-02

Pair selection                          .... not used
Type of local MP2 treatment                 .... semi-local MP2
Strategy for PNO selection                  .... occupation number selection
Pair density normalization                  .... MP2 norm
Spin component scaling                      .... not used

   .... Finished loop over pairs
Making pair pair interaction lists          ... done

                       ===========================
                        743 OF 1462 PAIRS ARE KEPT
                       ===========================

Total time spent in the initial guess                 ...    18.878 sec
SL-MP2 correlation energy (all non-screened pairs)    ...      -3.454627263100 Eh

Initial PNO correlation energy                        ...      -3.424711647696 Eh
sum of pair energies estimated for screened out pairs ...      -0.003078727988 Eh
sum of MP2 pair energies for pairs that were not kept ...      -0.024554117875 Eh
sum of PNO error estimates for the kept pairs         ...      -0.005457676138 Eh
                                                          --------------------
sum of all corrections                                         -0.033090522002
Initial total correlation energy                               -3.457802169697
Thresholds for map construction and integral transformation for fine MP2 and CCSD(T) calculation:
   TCutMKN   ...     1.0e-03
   TCutDO    ...     1.0e-02
   TCutPairs ...     1.0e-04
   TCutCMO   ...     1.0e-03
   TCutCPAO  ...     1.0e-03

Time for aux screen maps:            0.011
Time for maps after fine MP2:            0.078

------------------------------
LOCAL RI (xy|k) TRANSFORMATION
------------------------------

Dimension of OBS basis                 ... 497
Dimension of (OBS)PAOs                 ... 497
Dimension of the aux-basis             ... 1854
Integral mode                          ... Direct

First Phase: integral generation and first transformation of MO indices
 number of shell sets computed                       =           17174286
 number of shell sets in domains (without screening) =           17174286
 number of shell sets without domains or screening   =           17174430
Closing buffer /scratch/summit/user/760601/TS2_Int3_1Pyrax_SMD_b_freq_DLPNO.kxy_op0.tmp.proc0 ( 0.00 GB; CompressionRatio= 1.00)
Local 3-center integral transformation (op=0) completed in     1.544 sec

------------------------------
LOCAL RI (xy|k) TRANSFORMATION
------------------------------

Dimension of OBS basis                 ... 497
Dimension of (OBS)PAOs                 ... 497
Dimension of the aux-basis             ... 1854
Integral mode                          ... Direct

First Phase: integral generation and first transformation of MO indices
 number of shell sets computed                       =           17174430
 number of shell sets in domains (without screening) =           17174430
 number of shell sets without domains or screening   =           17174430
Closing buffer /scratch/summit/user/760601/TS2_Int3_1Pyrax_SMD_b_freq_DLPNO.VABPAO.tmp.proc0 ( 0.04 GB; CompressionRatio= 1.00)
Local 3-center integral transformation (op=0) completed in     5.619 sec


-------------------------------------
Pair Pair Term precalculation with     
RI-(ij|mn) and (im|jn) transformation  
ON THE FLY                             
-------------------------------------

   IBatch   1 (of   1)              ... done (   62.903 sec)
Total EXT                           ...          62.903 sec

---------------------
RI-PNO TRANSFORMATION
---------------------

Total Number of PNOs                   ... 18418
Average number of PNOs per pair        ...    24
Maximal number of PNOs per pair        ...    52
   #pairs with  1 -  5 PNOs   :    0
   #pairs with  6 - 10 PNOs   :   28
   #pairs with 11 - 15 PNOs   :  131
   #pairs with 16 - 20 PNOs   :  106
   #pairs with 21 - 25 PNOs   :  138
   #pairs with 26 - 30 PNOs   :  162
   #pairs with 31 - 35 PNOs   :   81
   #pairs with 36 - 40 PNOs   :   42
   #pairs with 41 - 45 PNOs   :   22
   #pairs with 46 - 50 PNOs   :   31
   #pairs with 51 - 55 PNOs   :    2

Generation of (ij|ab)[P] integrals            ... on
Generation of (ia|bc)[P],(ja|bc)[P] integrals ... on
Storage of 3 and 4 external integrals         ... on
Generation of ALL (ka|bc)[P] integrals        ... on
Keep RI integrals in memory                   ... off

Ibatch:  1 (of  1)
Starting 2-4 index PNO integral generation ... done

Timings:
Total PNO integral transformation time     ...         54.937 sec
Size of the 3-external file                ...       132 MB
Size of the 4-external file                ...       593 MB
Size of the IKJL file                      ...         0 MB
Size of the all 3-external file            ...      4093 MB
Size of the 1-external file                ...        26 MB

Making pair/pair overlap matrices          ... done (   43.258 sec)
Size of the pair overlap file              ... 1730 MB
Redoing the guess amplitudes               ... done (    0.017 sec)

-------------------------
FINAL STARTUP INFORMATION
-------------------------

E(0)                                       ...  -1408.662386011
E(SL-MP2)                                  ...     -3.454627263
E(SL-MP2) including corrections            ...     -3.457802170
Initial E(tot)                             ...  -1412.120188181
<T|T>                                      ...      1.147627997
Number of pairs included                   ... 743
Total number of pairs                      ... 2278

------------------------------------------------
                  RHF COUPLED CLUSTER ITERATIONS
------------------------------------------------

Number of PNO amplitudes to be optimized   ...       526288
Number of non-PNO amplitudes               ...    118286343
Untruncated number of regular amplitudes   ...    362659878

Iter       E(tot)           E(Corr)          Delta-E          Residual     Time
  0  -1412.120209997     -3.424733464      0.029893799      0.020973459  605.32
                           *** Turning on DIIS ***
  1  -1412.300783670     -3.605307137     -0.180573673      0.008170589  606.90
  2  -1412.407928496     -3.712451963     -0.107144826      0.004185280  605.47
  3  -1412.427108752     -3.731632219     -0.019180256      0.002765857  606.54
  4  -1412.433678074     -3.738201540     -0.006569321      0.001381239  606.80
  5  -1412.436068058     -3.740591524     -0.002389984      0.000737993  605.14
  6  -1412.436756468     -3.741279935     -0.000688410      0.000357954  606.68
  7  -1412.436896329     -3.741419796     -0.000139861      0.000187632  607.67
  8  -1412.436921092     -3.741444558     -0.000024763      0.000138481  608.30
  9  -1412.436926468     -3.741449935     -0.000005377      0.000083950  606.45
 10  -1412.436932752     -3.741456218     -0.000006283      0.000042120  609.67
 11  -1412.436932681     -3.741456148      0.000000071      0.000018416  607.45
 12  -1412.436931987     -3.741455453      0.000000694      0.000009103  606.86
               --- The Coupled-Cluster iterations have converged ---

----------------------
COUPLED CLUSTER ENERGY
----------------------

E(0)                                       ...  -1408.662386011
E(CORR)(strong-pairs)                      ...     -3.741455453
E(CORR)(weak-pairs)                        ...     -0.033090522
E(CORR)(corrected)                         ...     -3.774545975
E(TOT)                                     ...  -1412.436931987
Singles Norm <S|S>**1/2                    ...      0.139915137
T1 diagnostic                              ...      0.012086827

------------------
LARGEST AMPLITUDES
------------------
  97-> 99  97-> 99       0.055079
  69-> 98  69-> 98       0.053334
  97-> 98  97-> 98       0.047334
  87-> 98  87-> 98       0.047200
  57-> 99  57-> 99       0.044482
  83->105  83->105       0.043346
  74-> 99  74-> 99       0.042875
  70->100  70->100       0.041370
  50-> 99  50-> 99       0.040608
  84->105  84->105       0.040290
  37-> 99  37-> 99       0.039984
  38-> 99  38-> 99       0.039960
  76-> 99  76-> 99       0.039769
  51-> 99  51-> 99       0.039627
  68-> 98  68-> 98       0.039361
  77-> 99  77-> 99       0.038551


-------------------------------------------
DLPNO BASED TRIPLES CORRECTION
-------------------------------------------

Singles multiplier          ...  1.000000
TCutTNO                     ... 1.000e-09
TCutMP2Pairs                ... 1.000e-05
TCutDOStrong                ... 2.000e-03
TCutMKNStrong               ... 1.000e-02
TCutDOWeak                  ... 4.000e-03
TCutMKNWeak                 ... 1.000e-01
NTCutTNO                    ... 1

Fragment selection                          .... not used
TCutTNO
       1.000e-09
Number of Triples that are to be computed         ...      8887

 . . . . . . . . .
10% done  
20% done  
30% done  
40% done  
50% done  
60% done  
70% done  
80% done  
90% done  
          Batch   1   done (    143.636 sec)

Triples-Correction TCutTNO=   1.000e-09 (NWeakPairs = 0  1  2  3)  -0.150583974238   -0.003609091815    0.000000000000    0.000000000000

Triples timings:
Total time                      ...   153.307 sec

Triples List generation         ...     0.000 sec
TNO generation                  ...     9.569 sec
Pair density generation         ...     0.026 sec
Look up tables                  ...     0.001 sec
Generating 3-index integrals    ...    73.461 sec
  Make 4-ind.int. from 3-ind.int...    17.706 sec
  Projecting amplitudes (D + S) ...    33.910 sec
  Downprojecting integrals      ...     0.003 sec
  Energy contr. (sum over a,b,c)...     1.987 sec
Fitting ET(->0)                 ...     0.000 sec

Everything after 3-index        ...    70.175 sec

Timing details:
 TNO integrals                  ...    89.468 sec
   Reading 3-index integrals    ...     4.805 sec
   Sorting integrals            ...    13.031 sec
       Sorting integrals 1      ...     0.003 sec
       Sorting integrals 2      ...     8.388 sec
       Sorting integrals 3      ...     0.533 sec
       Sorting integrals 4      ...     0.162 sec
       Sorting integrals 5      ...     0.398 sec
       Sorting integrals 6      ...     3.548 sec
   Calculating local VM**-1/2   ...     1.299 sec
   Orthogonal. integrals        ...     1.833 sec
   Multipl. 3-index integrals   ...    68.500 sec
   All concerning IRIab (w/TNO) ...    10.144 sec

 Calculate W0/W1                ...    16.558 sec
 W 3-ext contribution           ...     9.576 sec
 W 3-int contribution           ...     4.453 sec
 Sorting W                      ...     2.232 sec

 V exchange contribution        ...     0.771 sec

 Timings for Triples without generation
     of 3-index integrals       ...    70.170 sec
       0 weak pairs             ...    42.249 sec
       1 weak pair              ...    27.921 sec
       2 weak pairs             ...     0.000 sec
       3 weak pairs             ...     0.000 sec
  Extra time for extrapolation  ...     0.000 sec

Number of Triples   (0, 1, 2, 3 weak pairs; overall):   4567    4320       0       0  (  8887)
Number of Atoms     (0, 1, 2, 3 weak pairs; overall):   15.9    13.7     0.0     0.0  (    50)
Number of PAOs      (0, 1, 2, 3 weak pairs; overall):  178.4   165.3     0.0     0.0  (   497)
Number of AuxFcns   (0, 1, 2, 3 weak pairs; overall):  364.0   300.8     0.0     0.0  (  1854)
Number of TNOs EP 0 (0, 1, 2, 3 weak pairs         ):   64.2    50.6     0.0     0.0
Aver. Number of NTNO, Atoms, PAOs, AuxFcns / Triples:   8887    57.6    14.9   172.0   333.3

Triples Correction (T)                     ...     -0.154193066
Final correlation energy                   ...     -3.928739041
E(CCSD)                                    ...  -1412.436931987
E(CCSD(T))                                 ...  -1412.591125053


Maximum memory used throughout the entire calculation: 3444.8 MB


------------------------------------------------------------------------------- 
                                     TIMINGS                                   
------------------------------------------------------------------------------- 


Total execution time                   ...     8272.147 sec

Localization of occupied MO's          ...        2.265 sec (  0.0%)
Fock Matrix Formation                  ...        9.402 sec (  0.1%)
Global overlap, Fock, MKN matrices     ...        0.444 sec (  0.0%)
Differential overlap integrals         ...        0.603 sec (  0.0%)
Organizing maps                        ...        0.212 sec (  0.0%)
RI 3-index integral generations        ...       16.995 sec (  0.2%)
RI-PNO integral transformation         ...      167.356 sec (  2.0%)
Initial Guess                          ...       26.440 sec (  0.3%)
DIIS Solver                            ...        1.565 sec (  0.0%)
State Vector Update                    ...        0.086 sec (  0.0%)
Sigma-vector construction              ...     7887.580 sec ( 95.4%)
  <0|H|D>                              ...        0.002 sec (  0.0% of sigma)
  <D|H|D>(0-ext)                       ...     1066.701 sec ( 13.5% of sigma)
  <D|H|D>(2-ext Fock)                  ...        0.023 sec (  0.0% of sigma)
  <D|H|D>(2-ext)                       ...       77.738 sec (  1.0% of sigma)
  <D|H|D>(4-ext)                       ...        8.984 sec (  0.1% of sigma)
  <D|H|D>(4-ext-corr)                  ...       52.893 sec (  0.7% of sigma)
  CCSD doubles correction              ...       71.584 sec (  0.9% of sigma)
  <S|H|S>                              ...      168.400 sec (  2.1% of sigma)
  <S|H|D>(1-ext)                       ...       15.633 sec (  0.2% of sigma)
  <D|H|S>(1-ext)                       ...        0.159 sec (  0.0% of sigma)
  <S|H|D>(3-ext)                       ...        3.159 sec (  0.0% of sigma)
  CCSD singles correction              ...        0.005 sec (  0.0% of sigma)
  Fock-dressing                        ...     4655.278 sec ( 59.0% of sigma)
  Singles amplitudes                   ...      178.775 sec (  2.3% of sigma)
  (ik|jl)-dressing                     ...     1201.068 sec ( 15.2% of sigma)
  (ij|ab),(ia|jb)-dressing             ...      227.015 sec (  2.9% of sigma)
  Pair energies                        ...        0.024 sec (  0.0% of sigma)
Total Time for computing (T)           ...      158.708 sec (  1.9% of ALL)

Your calculation utilizes the basis: cc-pVTZ 
       H, B-Ne : Obtained from the ccRepo (grant-hill.group.shef.ac.uk/ccrepo) Feb. 2017
                 T. H. Dunning, Jr., J. Chem. Phys. 90, 1007 (1989)
            He : Obtained from the ccRepo (grant-hill.group.shef.ac.uk/ccrepo) Feb. 2017
                 D. E. Woon, T. H. Dunning, Jr., J. Chem. Phys. 100, 2975 (1994)
  Li-Be, Na-Mg : Obtained from the ccRepo (grant-hill.group.shef.ac.uk/ccrepo) Feb. 2017
                 B. P. Prascher, D. E. Woon, K. A. Peterson, T. H. Dunning, Jr., A. K. Wilson, Theor. Chem. Acc. 128, 69 (2011)
         Al-Ar : Obtained from the ccRepo (grant-hill.group.shef.ac.uk/ccrepo) Feb. 2017
                 D. E. Woon, T. H. Dunning, Jr., J. Chem. Phys. 98, 1358 (1993)
            Ca : Obtained from the Peterson Research Group Website (tyr0.chem.wsu.edu/~kipeters) Feb. 2017
                 J. Koput, K. A. Peterson, J. Phys. Chem. 106, 9595 (2002)
         Sc-Zn : Obtained from the ccRepo (grant-hill.group.shef.ac.uk/ccrepo) Feb. 2017
                 N. B. Balabanov, K. A. Peterson, J. Chem. Phys. 123, 064107 (2005)
                 N. B. Balabanov, K. A. Peterson, J. Chem. Phys. 125, 074110 (2006)
         Ga-Kr : Obtained from the ccRepo (grant-hill.group.shef.ac.uk/ccrepo) Feb. 2017
                 A. K. Wilson, D. E. Woon, K. A. Peterson, T. H. Dunning, Jr., J. Chem. Phys. 110, 7667 (1999)
             Y : Obtained from the ccRepo (grant-hill.group.shef.ac.uk/ccrepo) Feb. 2017
                 K. A. Peterson, D. Figgen, M. Dolg, H. Stoll, J. Chem. Phys. 126, 124101 (2007)
        Ag, Au : Obtained from the Peterson Research Group Website (tyr0.chem.wsu.edu/~kipeters) Feb. 2017
                 K. A. Peterson, C. Puzzarini, Theor. Chem. Acc. 114, 283 (2005)

Your calculation utilizes the auxiliary basis: def2/JK
   H-Ba, Hf-Rn: F. Weigend, J. Comput. Chem. 29, 167 (2008).

Your calculation utilizes the auxiliary basis: cc-pVTZ/C 
  Obtained from the EMSL Basis Set Exchange (bse.pnl.gov) Feb. 2017
  H-He, B-F, Al-Ar, Ga-Kr : F. Weigend, A. Kohn, C. Hattig, J. Chem. Phys. 116, 3175 (2002)
             Li-Be, Na-Mg : C. Haettig, Phys. Chem. Chem. Phys. 7, 59 (2005)
                       Ne : C. Haettig, Phys. Chem. Chem. Phys. 7, 59 (2005)
                            F. Weigend, A. Kohn, C. Hattig, J. Chem. Phys. 116, 3175 (2002)
                    Sc-Zn : J. G. Hill, J. A. Platts, J. Chem. Phys. 128, 044104 (2008)

Your calculation utilizes the auxiliary basis: def2/JK
   H-Ba, Hf-Rn: F. Weigend, J. Comput. Chem. 29, 167 (2008).

All done

                     -----------------------------------------
                     Extrapolated Energy 2 Basis=     cc-pVTZ
                     -----------------------------------------


Checking for AutoStart:
The File: /scratch/summit/user/760601/TS2_Int3_1Pyrax_SMD_b_freq_DLPNO.gbw exists
Trying to determine its content:
     ... Fine, the file contains calculation information
     ... Fine, the calculation information was read
     ... Fine, the file contains a basis set
     ... Fine, the basis set was read
     ... Fine, the file contains a geometry
     ... Fine, the geometry was read
     ... Fine, the file contains a set of orbitals
     ... Fine, the orbitals can be read
     => possible old guess file was deleted
     => GBW file was renamed to GES file
     => GES file is set as startup file
     => Guess is set to MORead
     ... now leaving AutoStart



           ************************************************************
           *        Program running with 24 parallel MPI-processes    *
           *              working on a common directory               *
           ************************************************************
 One Electron integrals                  ... done
 Pre-screening matrix                    ... done


           ************************************************************
           *        Program running with 24 parallel MPI-processes    *
           *              working on a common directory               *
           ************************************************************
------------
SCF SETTINGS
------------
Hamiltonian:
 Ab initio Hamiltonian  Method          .... Hartree-Fock(GTOs)
 RI-approximation to the Coulomb term is turned on
   Number of auxiliary basis functions  .... 2498
   RIJ-COSX (HFX calculated with COS-X)).... on


General Settings:
 Integral files         IntName         .... /scratch/summit/user/760601/TS2_Int3_1Pyrax_SMD_b_freq_DLPNO
 Hartree-Fock type      HFTyp           .... RHF
 Total Charge           Charge          ....    2
 Multiplicity           Mult            ....    1
 Number of Electrons    NEL             ....  196
 Basis Dimension        Dim             .... 1136
 Nuclear Repulsion      ENuc            ....   2685.9742064241 Eh

Convergence Acceleration:
 DIIS                   CNVDIIS         .... off
 Newton-Raphson         CNVNR           .... off
 SOSCF                  CNVSOSCF        .... off
 Level Shifting         CNVShift        .... off
 Zerner damping         CNVZerner       .... off
 Static damping         CNVDamp         .... off
 Fernandez-Rico         CNVRico         .... off

SCF Procedure:
 Maximum # iterations   MaxIter         ....   500
 SCF integral mode      SCFMode         .... Direct
   Integral package                     .... LIBINT
 Reset frequeny         DirectResetFreq ....    20
 Integral Threshold     Thresh          ....  2.500e-11 Eh
 Primitive CutOff       TCut            ....  2.500e-12 Eh

Convergence Tolerance:
 Convergence Check Mode ConvCheckMode   .... Total+1el-Energy
 Convergence forced     ConvForced      .... 1
 Energy Change          TolE            ....  1.000e-08 Eh
 1-El. energy change                    ....  1.000e-05 Eh


Diagonalization of the overlap matrix:
Smallest eigenvalue                        ... 2.862e-05
Time for diagonalization                   ...    0.308 sec
Threshold for overlap eigenvalues          ... 1.000e-08
Number of eigenvalues below threshold      ... 0
Time for construction of square roots      ...    0.226 sec
Total time needed                          ...    0.538 sec

Atom 0: N(Shells)= 10 and 6 - projection required
--------------------
COSX GRID GENERATION
--------------------

General Integration Accuracy     IntAcc      ...  3.670
Radial Grid Type                 RadialGrid  ... Gauss-Chebyshev
Angular Grid (max. acc.)         AngularGrid ... Lebedev-50
Angular grid pruning method      GridPruning ... 3 (G Style)
Weight generation scheme         WeightScheme... Becke
Basis function cutoff            BFCut       ...    1.0000e-11
Integration weight cutoff        WCut        ...    1.0000e-14
Grids for H and He will be reduced by one unit

# of grid points (after initial pruning)     ...  29254 (   0.0 sec)
# of grid points (after weights+screening)   ...  25940 (   0.0 sec)
nearest neighbour list constructed           ...    0.0 sec
Grid point re-assignment to atoms done       ...    0.0 sec
Grid point division into batches done        ...    0.0 sec
Reduced shell lists constructed in    0.1 sec

Total number of grid points                  ...    25940
Total number of batches                      ...      425
Average number of points per batch           ...       61
Average number of grid points per atom       ...      519
Average number of shells per batch           ...   204.37 (49.85%)
Average number of basis functions per batch  ...   513.32 (45.19%)
Average number of large shells per batch     ...   126.68 (61.99%)
Average number of large basis fcns per batch ...   322.58 (62.84%)
Maximum spatial batch extension              ...   7.85,  5.04, 25.75 au
Average spatial batch extension              ...   0.11,  0.10,  0.17 au

Overlap Fitting                  UseSFitting ... on
Constructing numerical overlap ... done (      0.2 sec)
Inverting numerical overlap    ... done (      0.1 sec)
Obtaining analytic overlap     ... done (      0.0 sec)
Final contraction and storage  ... done (      0.2 sec)


General Integration Accuracy     IntAcc      ...  4.010
Radial Grid Type                 RadialGrid  ... Gauss-Chebyshev
Angular Grid (max. acc.)         AngularGrid ... Lebedev-50
Angular grid pruning method      GridPruning ... 3 (G Style)
Weight generation scheme         WeightScheme... Becke
Basis function cutoff            BFCut       ...    1.0000e-11
Integration weight cutoff        WCut        ...    1.0000e-14
Grids for H and He will be reduced by one unit

# of grid points (after initial pruning)     ...  35616 (   0.0 sec)
# of grid points (after weights+screening)   ...  31526 (   0.1 sec)
nearest neighbour list constructed           ...    0.0 sec
Grid point re-assignment to atoms done       ...    0.0 sec
Grid point division into batches done        ...    0.0 sec
Reduced shell lists constructed in    0.1 sec

Total number of grid points                  ...    31526
Total number of batches                      ...      521
Average number of points per batch           ...       60
Average number of grid points per atom       ...      631
Average number of shells per batch           ...   203.57 (49.65%)
Average number of basis functions per batch  ...   511.65 (45.04%)
Average number of large shells per batch     ...   126.09 (61.94%)
Average number of large basis fcns per batch ...   321.13 (62.76%)
Maximum spatial batch extension              ...   9.77,  6.98, 16.93 au
Average spatial batch extension              ...   0.11,  0.10,  0.14 au

Overlap Fitting                  UseSFitting ... on
Constructing numerical overlap ... done (      0.2 sec)
Inverting numerical overlap    ... done (      0.1 sec)
Obtaining analytic overlap     ... done (      0.0 sec)
Final contraction and storage  ... done (      0.2 sec)


General Integration Accuracy     IntAcc      ...  4.670
Radial Grid Type                 RadialGrid  ... Gauss-Chebyshev
Angular Grid (max. acc.)         AngularGrid ... Lebedev-194
Angular grid pruning method      GridPruning ... 3 (G Style)
Weight generation scheme         WeightScheme... Becke
Basis function cutoff            BFCut       ...    1.0000e-11
Integration weight cutoff        WCut        ...    1.0000e-14
Grids for H and He will be reduced by one unit

# of grid points (after initial pruning)     ... 142786 (   0.0 sec)
# of grid points (after weights+screening)   ... 123345 (   0.2 sec)
nearest neighbour list constructed           ...    0.0 sec
Grid point re-assignment to atoms done       ...    0.0 sec
Grid point division into batches done        ...    0.2 sec
Reduced shell lists constructed in    0.5 sec

Total number of grid points                  ...   123345
Total number of batches                      ...     1949
Average number of points per batch           ...       63
Average number of grid points per atom       ...     2467
Average number of shells per batch           ...   191.81 (46.78%)
Average number of basis functions per batch  ...   476.14 (41.91%)
Average number of large shells per batch     ...   117.37 (61.19%)
Average number of large basis fcns per batch ...   296.75 (62.32%)
Maximum spatial batch extension              ...  13.04,  8.80, 16.07 au
Average spatial batch extension              ...   0.07,  0.06,  0.07 au

Overlap Fitting                  UseSFitting ... on
Constructing numerical overlap ... done (      0.5 sec)
Inverting numerical overlap    ... done (      0.1 sec)
Obtaining analytic overlap     ... done (      0.0 sec)
Final contraction and storage  ... done (      0.2 sec)

Time for X-Grid setup             =    2.905 sec

------------------------------------------------------------------------------
                           CPCM SOLVATION MODEL                               
------------------------------------------------------------------------------
CPCM parameters:
  Epsilon                                         ...      24.8520
  Refrac                                          ...       1.3300
  Rsolv                                           ...       1.3000
  Surface type                                    ...    GEPOL SES
  Epsilon function type                           ...         CPCM
Solvent:                                     ... ETHANOL
SMD-CDS solvent descriptors:
  Soln                                       ...    1.3611
  Soln25                                     ...    1.3593
  Sola                                       ...    0.3700
  Solb                                       ...    0.4800
  Solg                                       ...   31.6200
  Solc                                       ...    0.0000
[...]
Thresholds for map construction and integral transformation for fine MP2 and CCSD(T) calculation:
   TCutMKN   ...     1.0e-03
   TCutDO    ...     1.0e-02
   TCutPairs ...     1.0e-04
   TCutCMO   ...     1.0e-03
   TCutCPAO  ...     1.0e-03

Total Time for RHF_SetMaps: MO_PAO:            0.001
Total Time for RHF_SetMaps: MO_Aux:            0.001
Total Time for RHF_SetMaps: MO_AO:            0.001
Total Time for RHF_SetMaps: PAO_AO:            0.069
Total Time for RHF_SetMaps:            0.072
Time for fine MP2 maps preparation, CCSD part:            0.090
Thresholds for map construction and integral transformation for strong Triples:
   TCutMKN   ...     1.0e-02
   TCutDO    ...     2.0e-02
   TCutCMO   ...     1.0e-03
   TCutCPAO  ...     1.0e-03

Total Time for RHF_SetMaps: MO_PAO:            0.001
Total Time for RHF_SetMaps: MO_Aux:            0.001
Total Time for RHF_SetMaps:            0.001
Thresholds for map construction and integral transformation for weak Triples:
   TCutMKN   ...     1.0e-01
   TCutDO    ...     4.0e-02
   TCutCMO   ...     1.0e-03
   TCutCPAO  ...     1.0e-03

Total Time for RHF_SetMaps: MO_PAO:            0.001
Total Time for RHF_SetMaps: MO_Aux:            0.000
Total Time for RHF_SetMaps:            0.001
Time for fine MP2 maps preparation, T part:            0.089
Time for fine MP2 maps preparation, extend MO-MO and trafo maps:            0.024

------------------------------
LOCAL RI (xy|k) TRANSFORMATION
------------------------------

Dimension of OBS basis                 ... 1136
Dimension of (OBS)PAOs                 ... 1136
Dimension of the aux-basis             ... 2918
Integral mode                          ... Direct

First Phase: integral generation and first transformation of MO indices
 number of shell sets computed                       =           72459300
 number of shell sets in domains (without screening) =           72459300
 number of shell sets without domains or screening   =           72459300
Closing buffer /scratch/summit/user/760601/TS2_Int3_1Pyrax_SMD_b_freq_DLPNO.kxy_op0.tmp.proc0 ( 0.06 GB; CompressionRatio= 1.00)
Local 3-center integral transformation (op=0) completed in    14.229 sec
--------------------------------
INITIAL GUESS AND PNO GENERATION
--------------------------------

PNO truncation parameters                   .... 
    PAOOverlapThresh   =        1.000e-08

    TCutPairs          =        1.000e-04
    TCutPNO            =        3.330e-07
    TCutPNOSingles     =        9.990e-09
    TCutMP2Pairs       =        1.000e-05
    TCutMKN            =        1.000e-03
    TCutDO             =        1.000e-02

Pair selection                          .... not used
Type of local MP2 treatment                 .... semi-local MP2
Strategy for PNO selection                  .... occupation number selection
Pair density normalization                  .... MP2 norm
Spin component scaling                      .... not used

   .... Finished loop over pairs
Making pair pair interaction lists          ... done

                       ===========================
                        776 OF 1516 PAIRS ARE KEPT
                       ===========================

Total time spent in the initial guess                 ...   108.439 sec
SL-MP2 correlation energy (all non-screened pairs)    ...      -4.236859844793 Eh

Initial PNO correlation energy                        ...      -4.196861960993 Eh
sum of pair energies estimated for screened out pairs ...      -0.002939695245 Eh
sum of MP2 pair energies for pairs that were not kept ...      -0.025857634931 Eh
sum of PNO error estimates for the kept pairs         ...      -0.014232325034 Eh
                                                          --------------------
sum of all corrections                                         -0.043029655210
Initial total correlation energy                               -4.239891616202
Thresholds for map construction and integral transformation for fine MP2 and CCSD(T) calculation:
   TCutMKN   ...     1.0e-03
   TCutDO    ...     1.0e-02
   TCutPairs ...     1.0e-04
   TCutCMO   ...     1.0e-03
   TCutCPAO  ...     1.0e-03

Time for aux screen maps:            0.022
Time for maps after fine MP2:            0.137

------------------------------
LOCAL RI (xy|k) TRANSFORMATION
------------------------------

Dimension of OBS basis                 ... 1136
Dimension of (OBS)PAOs                 ... 1136
Dimension of the aux-basis             ... 2918
Integral mode                          ... Direct

First Phase: integral generation and first transformation of MO indices
 number of shell sets computed                       =           72459300
 number of shell sets in domains (without screening) =           72459300
 number of shell sets without domains or screening   =           72459300
Closing buffer /scratch/summit/user/760601/TS2_Int3_1Pyrax_SMD_b_freq_DLPNO.kxy_op0.tmp.proc0 ( 0.00 GB; CompressionRatio= 1.00)
Local 3-center integral transformation (op=0) completed in     6.016 sec

------------------------------
LOCAL RI (xy|k) TRANSFORMATION
------------------------------

Dimension of OBS basis                 ... 1136
Dimension of (OBS)PAOs                 ... 1136
Dimension of the aux-basis             ... 2918
Integral mode                          ... Direct

First Phase: integral generation and first transformation of MO indices
 number of shell sets computed                       =           72459300
 number of shell sets in domains (without screening) =           72459300
 number of shell sets without domains or screening   =           72459300
Closing buffer /scratch/summit/user/760601/TS2_Int3_1Pyrax_SMD_b_freq_DLPNO.VABPAO.tmp.proc0 ( 0.50 GB; CompressionRatio= 1.00)
Local 3-center integral transformation (op=0) completed in    64.377 sec


-------------------------------------
Pair Pair Term precalculation with     
RI-(ij|mn) and (im|jn) transformation  
ON THE FLY                             
-------------------------------------

   IBatch   1 (of   4)              ... done (   85.218 sec)
   IBatch   2 (of   4)              ... done (  143.286 sec)
   IBatch   3 (of   4)              ... done (  244.873 sec)
   IBatch   4 (of   4)              ... done (   61.663 sec)
Total EXT                           ...         535.040 sec

---------------------
RI-PNO TRANSFORMATION
---------------------

Total Number of PNOs                   ... 26913
Average number of PNOs per pair        ...    34
Maximal number of PNOs per pair        ...    81
   #pairs with  1 -  5 PNOs   :    0
   #pairs with  6 - 10 PNOs   :   31
   #pairs with 11 - 15 PNOs   :   96
   #pairs with 16 - 20 PNOs   :   98
   #pairs with 21 - 25 PNOs   :   58
   #pairs with 26 - 30 PNOs   :   54
   #pairs with 31 - 35 PNOs   :   94
   #pairs with 36 - 40 PNOs   :   56
   #pairs with 41 - 45 PNOs   :   61
   #pairs with 46 - 50 PNOs   :   78
   #pairs with 51 - 55 PNOs   :   42
   #pairs with 56 - 60 PNOs   :   47
   #pairs with 61 - 65 PNOs   :   19
   #pairs with 66 - 70 PNOs   :    4
   #pairs with 71 - 75 PNOs   :   29
   #pairs with 76 - 80 PNOs   :    6
   #pairs with 81 - 85 PNOs   :    3

Generation of (ij|ab)[P] integrals            ... on
Generation of (ia|bc)[P],(ja|bc)[P] integrals ... on
Storage of 3 and 4 external integrals         ... on
Generation of ALL (ka|bc)[P] integrals        ... on
Keep RI integrals in memory                   ... off

Ibatch:  1 (of  1)
Starting 2-4 index PNO integral generation ... done

Timings:
Total PNO integral transformation time     ...        432.902 sec
Size of the 3-external file                ...       462 MB
Size of the 4-external file                ...      3288 MB
Size of the IKJL file                      ...         0 MB
Size of the all 3-external file            ...     14755 MB
Size of the 1-external file                ...        39 MB

Making pair/pair overlap matrices          ... done (  134.939 sec)
Size of the pair overlap file              ... 4036 MB
Redoing the guess amplitudes               ... done (    0.061 sec)

-------------------------
FINAL STARTUP INFORMATION
-------------------------

E(0)                                       ...  -1408.952256266
E(SL-MP2)                                  ...     -4.236859845
E(SL-MP2) including corrections            ...     -4.239891616
Initial E(tot)                             ...  -1413.192147882
<T|T>                                      ...      1.278542219
Number of pairs included                   ... 776
Total number of pairs                      ... 2278

------------------------------------------------
                  RHF COUPLED CLUSTER ITERATIONS
------------------------------------------------

Number of PNO amplitudes to be optimized   ...      1174119
Number of non-PNO amplitudes               ...    836096544
Untruncated number of regular amplitudes   ...   2454417432

Iter       E(tot)           E(Corr)          Delta-E          Residual     Time
  0  -1413.192420335     -4.197134413      0.039725431      0.015680726  876.30
                           *** Turning on DIIS ***
  1  -1413.318052852     -4.322766930     -0.125632517      0.008886543  875.40
  2  -1413.421683800     -4.426397878     -0.103630948      0.003947438  876.49
  3  -1413.443153977     -4.447868055     -0.021470177      0.002531698  877.56
  4  -1413.449634721     -4.454348799     -0.006480744      0.001334904  878.01
  5  -1413.451789254     -4.456503333     -0.002154534      0.000754187  880.06
  6  -1413.452458365     -4.457172444     -0.000669111      0.000374752  885.36
  7  -1413.452586961     -4.457301040     -0.000128596      0.000188278  879.81
  8  -1413.452606423     -4.457320501     -0.000019462      0.000118805  883.48
  9  -1413.452604286     -4.457318364      0.000002137      0.000072108  879.92
 10  -1413.452607806     -4.457321884     -0.000003520      0.000037745  882.67
 11  -1413.452609138     -4.457323216     -0.000001332      0.000016977  885.80
 12  -1413.452609391     -4.457323469     -0.000000253      0.000008885  881.51
               --- The Coupled-Cluster iterations have converged ---

----------------------
COUPLED CLUSTER ENERGY
----------------------

E(0)                                       ...  -1408.952256266
E(CORR)(strong-pairs)                      ...     -4.457323469
E(CORR)(weak-pairs)                        ...     -0.043029655
E(CORR)(corrected)                         ...     -4.500353125
E(TOT)                                     ...  -1413.452609391
Singles Norm <S|S>**1/2                    ...      0.136887071
T1 diagnostic                              ...      0.011825242

------------------
LARGEST AMPLITUDES
------------------
  69-> 98  69-> 98       0.056638
  97-> 99  97-> 99       0.054247
  70->100  70->100       0.048594
  97-> 98  97-> 98       0.046371
  86-> 98  86-> 98       0.045743
  58-> 99  58-> 99       0.043682
  94->102  94->102       0.042290
  67->102  67->102       0.042224
  54->102  54->102       0.041966
  95-> 98  95-> 98       0.041817
  42->102  42->102       0.041671
  39->102  39->102       0.041643
  96-> 99  96-> 99       0.041425
  53->102  53->102       0.040976
  79->102  79->102       0.040577
  74-> 99  74-> 99       0.040475


-------------------------------------------
DLPNO BASED TRIPLES CORRECTION
-------------------------------------------

Singles multiplier          ...  1.000000
TCutTNO                     ... 1.000e-09
TCutMP2Pairs                ... 1.000e-05
TCutDOStrong                ... 2.000e-03
TCutMKNStrong               ... 1.000e-02
TCutDOWeak                  ... 4.000e-03
TCutMKNWeak                 ... 1.000e-01
NTCutTNO                    ... 1

Fragment selection                          .... not used
TCutTNO
       1.000e-09
Number of Triples that are to be computed         ...      9874

 . . . . . . . . .
10% done  
20% done  
          Batch   1   done (    475.560 sec)
 . . . . . . . . .
30% done  
40% done  
50% done  
60% done  
70% done  
          Batch   2   done (    697.128 sec)
 . . . . . . . . .
80% done  
90% done  
          Batch   3   done (    248.836 sec)

Triples-Correction TCutTNO=   1.000e-09 (NWeakPairs = 0  1  2  3)  -0.221329169057   -0.004386610046    0.000000000000    0.000000000000

Triples timings:
Total time                      ...  1501.986 sec

Triples List generation         ...     0.000 sec
TNO generation                  ...    79.729 sec
Pair density generation         ...     0.036 sec
Look up tables                  ...     0.001 sec
Generating 3-index integrals    ...   996.169 sec
  Make 4-ind.int. from 3-ind.int...    67.886 sec
  Projecting amplitudes (D + S) ...   285.467 sec
  Downprojecting integrals      ...     0.007 sec
  Energy contr. (sum over a,b,c)...     7.779 sec
Fitting ET(->0)                 ...     0.000 sec

Everything after 3-index        ...   425.355 sec

Timing details:
 TNO integrals                  ...  1059.906 sec
   Reading 3-index integrals    ...    91.097 sec
   Sorting integrals            ...   141.694 sec
       Sorting integrals 1      ...     0.005 sec
       Sorting integrals 2      ...   125.769 sec
       Sorting integrals 3      ...     1.864 sec
       Sorting integrals 4      ...     0.381 sec
       Sorting integrals 5      ...     1.773 sec
       Sorting integrals 6      ...    11.901 sec
   Calculating local VM**-1/2   ...     4.539 sec
   Orthogonal. integrals        ...     7.129 sec
   Multipl. 3-index integrals   ...   815.446 sec
   All concerning IRIab (w/TNO) ...    42.015 sec

 Calculate W0/W1                ...    64.202 sec
 W 3-ext contribution           ...    40.377 sec
 W 3-int contribution           ...    14.503 sec
 Sorting W                      ...     8.290 sec

 V exchange contribution        ...     2.655 sec

 Timings for Triples without generation
     of 3-index integrals       ...   425.350 sec
       0 weak pairs             ...   270.845 sec
       1 weak pair              ...   154.505 sec
       2 weak pairs             ...     0.000 sec
       3 weak pairs             ...     0.000 sec
  Extra time for extrapolation  ...     0.000 sec

Number of Triples   (0, 1, 2, 3 weak pairs; overall):   4951    4923       0       0  (  9874)
Number of Atoms     (0, 1, 2, 3 weak pairs; overall):   16.7    14.5     0.0     0.0  (    50)
Number of PAOs      (0, 1, 2, 3 weak pairs; overall):  427.8   381.0     0.0     0.0  (  1136)
Number of AuxFcns   (0, 1, 2, 3 weak pairs; overall):  566.9   443.1     0.0     0.0  (  2918)
Number of TNOs EP 0 (0, 1, 2, 3 weak pairs         ):   94.4    63.3     0.0     0.0
Aver. Number of NTNO, Atoms, PAOs, AuxFcns / Triples:   9874    78.9    15.6   404.5   505.2

Triples Correction (T)                     ...     -0.225715779
Final correlation energy                   ...     -4.726068904
E(CCSD)                                    ...  -1413.452609391
E(CCSD(T))                                 ...  -1413.678325170


Maximum memory used throughout the entire calculation: 3966.0 MB


------------------------------------------------------------------------------- 
                                     TIMINGS                                   
------------------------------------------------------------------------------- 


Total execution time                   ...    14469.674 sec

Localization of occupied MO's          ...        6.759 sec (  0.0%)
Fock Matrix Formation                  ...       38.227 sec (  0.3%)
Global overlap, Fock, MKN matrices     ...        1.915 sec (  0.0%)
Differential overlap integrals         ...        1.240 sec (  0.0%)
Organizing maps                        ...        0.392 sec (  0.0%)
RI 3-index integral generations        ...      112.317 sec (  0.8%)
RI-PNO integral transformation         ...     1135.578 sec (  7.8%)
Initial Guess                          ...      147.078 sec (  1.0%)
DIIS Solver                            ...       13.270 sec (  0.1%)
State Vector Update                    ...        0.161 sec (  0.0%)
Sigma-vector construction              ...    11428.939 sec ( 79.0%)
  <0|H|D>                              ...        0.003 sec (  0.0% of sigma)
  <D|H|D>(0-ext)                       ...     1354.223 sec ( 11.8% of sigma)
  <D|H|D>(2-ext Fock)                  ...        0.167 sec (  0.0% of sigma)
  <D|H|D>(2-ext)                       ...      248.251 sec (  2.2% of sigma)
  <D|H|D>(4-ext)                       ...       48.322 sec (  0.4% of sigma)
  <D|H|D>(4-ext-corr)                  ...      280.018 sec (  2.5% of sigma)
  CCSD doubles correction              ...      103.489 sec (  0.9% of sigma)
  <S|H|S>                              ...      444.082 sec (  3.9% of sigma)
  <S|H|D>(1-ext)                       ...       35.340 sec (  0.3% of sigma)
  <D|H|S>(1-ext)                       ...        0.258 sec (  0.0% of sigma)
  <S|H|D>(3-ext)                       ...        9.642 sec (  0.1% of sigma)
  CCSD singles correction              ...        0.003 sec (  0.0% of sigma)
  Fock-dressing                        ...     6231.174 sec ( 54.5% of sigma)
  Singles amplitudes                   ...      431.305 sec (  3.8% of sigma)
  (ik|jl)-dressing                     ...     1525.792 sec ( 13.4% of sigma)
  (ij|ab),(ia|jb)-dressing             ...      409.846 sec (  3.6% of sigma)
  Pair energies                        ...        0.039 sec (  0.0% of sigma)
Total Time for computing (T)           ...     1582.460 sec ( 10.9% of ALL)


-------------------
EXTRAPOLATED ENERGY
-------------------


-----------------------------------------------------------------
                      EP1 - MDCI extrapolation:
-----------------------------------------------------------------
NOTE: We use as reference SCF energy, for the extrapolation, the one from the MDCI module and not the one 
from the SCF calculation. In case the first step is a DFT calculation these two might be different.

NOTE: For the SCF part we extrapolate based on the scheme proposed in J. Chem. Phys. 2008, 129, 184116
using the exponents from J. Chem. Theory Comput., 7, 33-43 (2011)

NOTE: For the correlation part we extrapolate based on the scheme proposed in J. Chem. Phys. 1997, 106, 9639
using the exponents from J. Chem. Theory Comput., 7, 33-43 (2011)


Alpha(2/3)     :  4.420 (SCF Extrapolation)
Beta(2/3)      :  2.460 (correlation extrapolation)

SCF energy with basis cc-pVDZ:                        -1408.662386011
SCF energy with basis cc-pVTZ:                        -1408.952256266
Extrapolated CBS SCF energy (2/3) :                   -1409.046526779 (-0.094270513) 

MDCI energy with basis cc-pVDZ:                          -3.928739041
MDCI energy with basis cc-pVTZ:                          -4.726068904
Extrapolated CBS correlation energy (2/3) :              -5.191977701 (-0.465908797)

Estimated CBS total energy (2/3) :                    -1414.238504480



-------------------------   --------------------
FINAL SINGLE POINT ENERGY     -1414.238504479933
-------------------------   --------------------


                            ***************************************
                            *     ORCA property calculations      *
                            ***************************************

                                    ---------------------
                                    Active property flags
                                    ---------------------



Timings for individual modules:

Sum of individual times         ...    23403.576 sec (= 390.060 min)
GTO integral calculation        ...        8.572 sec (=   0.143 min)   0.0 %
SCF iterations                  ...      649.421 sec (=  10.824 min)   2.8 %
MDCI module                     ...    22745.583 sec (= 379.093 min)  97.2 %
                             ****ORCA TERMINATED NORMALLY****
TOTAL RUN TIME: 0 days 6 hours 30 minutes 6 seconds 370 msec
