 Entering Gaussian System, Link 0=/projects/jvalegre@colostate.edu/g16/g16
 Initial command:
 /projects/jvalegre@colostate.edu/g16/l1.exe "/gpfs/summit/scratch/jvalegre@colostate.edu/1580876/Gau-170632.inp" -scrdir="/gpfs/summit/scratch/jvalegre@colostate.edu/1580876/"
 Entering Link 1 = /projects/jvalegre@colostate.edu/g16/l1.exe PID=    170633.
  
 Copyright (c) 1988,1990,1992,1993,1995,1998,2003,2009,2016,
            Gaussian, Inc.  All Rights Reserved.
  
 This is part of the Gaussian(R) 16 program.  It is based on
 the Gaussian(R) 09 system (copyright 2009, Gaussian, Inc.),
 the Gaussian(R) 03 system (copyright 2003, Gaussian, Inc.),
 the Gaussian(R) 98 system (copyright 1998, Gaussian, Inc.),
 the Gaussian(R) 94 system (copyright 1995, Gaussian, Inc.),
 the Gaussian 92(TM) system (copyright 1992, Gaussian, Inc.),
 the Gaussian 90(TM) system (copyright 1990, Gaussian, Inc.),
 the Gaussian 88(TM) system (copyright 1988, Gaussian, Inc.),
 the Gaussian 86(TM) system (copyright 1986, Carnegie Mellon
 University), and the Gaussian 82(TM) system (copyright 1983,
 Carnegie Mellon University). Gaussian is a federally registered
 trademark of Gaussian, Inc.
  
 This software contains proprietary and confidential information,
 including trade secrets, belonging to Gaussian, Inc.
  
 This software is provided under written license and may be
 used, copied, transmitted, or stored only in accord with that
 written license.
  
 The following legend is applicable only to US Government
 contracts under FAR:
  
                    RESTRICTED RIGHTS LEGEND
  
 Use, reproduction and disclosure by the US Government is
 subject to restrictions as set forth in subparagraphs (a)
 and (c) of the Commercial Computer Software - Restricted
 Rights clause in FAR 52.227-19.
  
 Gaussian, Inc.
 340 Quinnipiac St., Bldg. 40, Wallingford CT 06492
  
  
 ---------------------------------------------------------------
 Warning -- This program may not be used in any manner that
 competes with the business of Gaussian, Inc. or will provide
 assistance to any competitor of Gaussian, Inc.  The licensee
 of this program is prohibited from giving any competitor of
 Gaussian, Inc. access to this program.  By using this program,
 the user acknowledges that Gaussian, Inc. is engaged in the
 business of creating and licensing software in the field of
 computational chemistry and represents and warrants to the
 licensee that it is not a competitor of Gaussian, Inc. and that
 it will not use this program in any manner prohibited above.
 ---------------------------------------------------------------
  

 Cite this work as:
 Gaussian 16, Revision A.03,
 M. J. Frisch, G. W. Trucks, H. B. Schlegel, G. E. Scuseria, 
 M. A. Robb, J. R. Cheeseman, G. Scalmani, V. Barone, 
 G. A. Petersson, H. Nakatsuji, X. Li, M. Caricato, A. V. Marenich, 
 J. Bloino, B. G. Janesko, R. Gomperts, B. Mennucci, H. P. Hratchian, 
 J. V. Ortiz, A. F. Izmaylov, J. L. Sonnenberg, D. Williams-Young, 
 F. Ding, F. Lipparini, F. Egidi, J. Goings, B. Peng, A. Petrone, 
 T. Henderson, D. Ranasinghe, V. G. Zakrzewski, J. Gao, N. Rega, 
 G. Zheng, W. Liang, M. Hada, M. Ehara, K. Toyota, R. Fukuda, 
 J. Hasegawa, M. Ishida, T. Nakajima, Y. Honda, O. Kitao, H. Nakai, 
 T. Vreven, K. Throssell, J. A. Montgomery, Jr., J. E. Peralta, 
 F. Ogliaro, M. J. Bearpark, J. J. Heyd, E. N. Brothers, K. N. Kudin, 
 V. N. Staroverov, T. A. Keith, R. Kobayashi, J. Normand, 
 K. Raghavachari, A. P. Rendell, J. C. Burant, S. S. Iyengar, 
 J. Tomasi, M. Cossi, J. M. Millam, M. Klene, C. Adamo, R. Cammi, 
 J. W. Ochterski, R. L. Martin, K. Morokuma, O. Farkas, 
 J. B. Foresman, and D. J. Fox, Gaussian, Inc., Wallingford CT, 2016.
 
 ******************************************
 Gaussian 16:  ES64L-G16RevA.03 25-Dec-2016
                31-Dec-2018 
 ******************************************
 %mem=96GB
 %nprocshared=24
 Will use up to   24 processors via shared memory.
 ----------------------------------------------------------------------
 #opt=(maxcycles=200) freq=noraman def2tzvpp empiricaldispersion=gd3 m0
 62x scrf=(solvent=Chloroform,smd)
 ----------------------------------------------------------------------
 1/6=200,18=20,19=15,26=3,38=1/1,3;
 2/9=110,12=2,17=6,18=5,40=1/2;
 3/5=44,7=202,11=2,25=1,30=1,70=32201,71=1,72=7,74=-55,124=31/1,2,3;
 4//1;
 5/5=2,38=5,53=7/2;
 6/7=2,8=2,9=2,10=2,28=1/1;
 7//1,2,3,16;
 1/6=200,18=20,19=15,26=3/3(2);
 2/9=110/2;
 99//99;
 2/9=110/2;
 3/5=44,7=202,11=2,25=1,30=1,70=32205,71=1,72=7,74=-55,124=31/1,2,3;
 4/5=5,16=3,69=1/1;
 5/5=2,38=5,53=7/2;
 7//1,2,3,16;
 1/6=200,18=20,19=15,26=3/3(-5);
 2/9=110/2;
 6/7=2,8=2,9=2,10=2,19=2,28=1/1;
 99/9=1/99;
 ------------------
 aminox_cat_conf212
 ------------------
 Symbolic Z-matrix:
 Charge =  0 Multiplicity = 1
 H                     1.5153    1.4765   -0.8198 
 C                     2.0794    0.6907   -0.3281 
 C                     1.4469   -0.3487    0.2295 
 N                     0.0942   -0.6001    0.287 
 C                    -0.972     0.2579   -0.2714 
 C                    -2.2075   -0.6439   -0.2747 
 C                    -1.9823   -1.5483    0.9274 
 C                    -0.4786   -1.7967    0.9073 
 H                    -0.2427   -2.675     0.2957 
 H                    -0.7238    0.5681   -1.2931 
 C                    -1.2293    1.5011    0.5857 
 H                    -2.2252   -1.2486   -1.1897 
 H                    -3.152    -0.0955   -0.207 
 H                    -2.5584   -2.4763    0.8726 
 H                    -2.2666   -1.0289    1.8502 
 H                    -0.0928   -1.9571    1.9195 
 O                    -1.2287    1.5906    1.8042 
 O                    -1.5428    2.587    -0.1594 
 H                    -1.6695    3.2881    0.5143 
 H                     2.0316   -1.1275    0.7186 
 C                     3.5637    0.8576   -0.3229 
 H                     3.8316    1.7902    0.1831 
 H                     4.0729    0.0341    0.1877 
 H                     3.9366    0.9044   -1.3506 
 

 GradGradGradGradGradGradGradGradGradGradGradGradGradGradGradGradGradGrad
 Berny optimization.
 Initialization pass.
                           ----------------------------
                           !    Initial Parameters    !
                           ! (Angstroms and Degrees)  !
 --------------------------                            --------------------------
 ! Name  Definition              Value          Derivative Info.                !
 --------------------------------------------------------------------------------
 ! R1    R(1,2)                  1.0851         estimate D2E/DX2                !
 ! R2    R(2,3)                  1.3384         estimate D2E/DX2                !
 ! R3    R(2,21)                 1.4937         estimate D2E/DX2                !
 ! R4    R(3,4)                  1.3771         estimate D2E/DX2                !
 ! R5    R(3,20)                 1.0898         estimate D2E/DX2                !
 ! R6    R(4,5)                  1.4781         estimate D2E/DX2                !
 ! R7    R(4,8)                  1.4645         estimate D2E/DX2                !
 ! R8    R(5,6)                  1.5296         estimate D2E/DX2                !
 ! R9    R(5,10)                 1.0962         estimate D2E/DX2                !
 ! R10   R(5,11)                 1.5318         estimate D2E/DX2                !
 ! R11   R(6,7)                  1.5211         estimate D2E/DX2                !
 ! R12   R(6,12)                 1.0969         estimate D2E/DX2                !
 ! R13   R(6,13)                 1.0943         estimate D2E/DX2                !
 ! R14   R(7,8)                  1.5242         estimate D2E/DX2                !
 ! R15   R(7,14)                 1.0937         estimate D2E/DX2                !
 ! R16   R(7,15)                 1.0964         estimate D2E/DX2                !
 ! R17   R(8,9)                  1.096          estimate D2E/DX2                !
 ! R18   R(8,16)                 1.095          estimate D2E/DX2                !
 ! R19   R(11,17)                1.2218         estimate D2E/DX2                !
 ! R20   R(11,18)                1.3537         estimate D2E/DX2                !
 ! R21   R(18,19)                0.9805         estimate D2E/DX2                !
 ! R22   R(21,22)                1.0943         estimate D2E/DX2                !
 ! R23   R(21,23)                1.0946         estimate D2E/DX2                !
 ! R24   R(21,24)                1.0943         estimate D2E/DX2                !
 ! A1    A(1,2,3)              120.3643         estimate D2E/DX2                !
 ! A2    A(1,2,21)             115.929          estimate D2E/DX2                !
 ! A3    A(3,2,21)             123.7066         estimate D2E/DX2                !
 ! A4    A(2,3,4)              128.5641         estimate D2E/DX2                !
 ! A5    A(2,3,20)             119.2364         estimate D2E/DX2                !
 ! A6    A(4,3,20)             112.1994         estimate D2E/DX2                !
 ! A7    A(3,4,5)              125.932          estimate D2E/DX2                !
 ! A8    A(3,4,8)              123.4398         estimate D2E/DX2                !
 ! A9    A(5,4,8)              110.6205         estimate D2E/DX2                !
 ! A10   A(4,5,6)              103.9589         estimate D2E/DX2                !
 ! A11   A(4,5,10)             110.6735         estimate D2E/DX2                !
 ! A12   A(4,5,11)             112.3892         estimate D2E/DX2                !
 ! A13   A(6,5,10)             110.3466         estimate D2E/DX2                !
 ! A14   A(6,5,11)             110.122          estimate D2E/DX2                !
 ! A15   A(10,5,11)            109.2613         estimate D2E/DX2                !
 ! A16   A(5,6,7)              103.2529         estimate D2E/DX2                !
 ! A17   A(5,6,12)             109.8675         estimate D2E/DX2                !
 ! A18   A(5,6,13)             113.6769         estimate D2E/DX2                !
 ! A19   A(7,6,12)             109.5024         estimate D2E/DX2                !
 ! A20   A(7,6,13)             112.1402         estimate D2E/DX2                !
 ! A21   A(12,6,13)            108.298          estimate D2E/DX2                !
 ! A22   A(6,7,8)              103.4464         estimate D2E/DX2                !
 ! A23   A(6,7,14)             112.7635         estimate D2E/DX2                !
 ! A24   A(6,7,15)             110.1872         estimate D2E/DX2                !
 ! A25   A(8,7,14)             112.379          estimate D2E/DX2                !
 ! A26   A(8,7,15)             110.1273         estimate D2E/DX2                !
 ! A27   A(14,7,15)            107.9116         estimate D2E/DX2                !
 ! A28   A(4,8,7)              104.9686         estimate D2E/DX2                !
 ! A29   A(4,8,9)              109.5269         estimate D2E/DX2                !
 ! A30   A(4,8,16)             111.9256         estimate D2E/DX2                !
 ! A31   A(7,8,9)              110.5065         estimate D2E/DX2                !
 ! A32   A(7,8,16)             111.0545         estimate D2E/DX2                !
 ! A33   A(9,8,16)             108.821          estimate D2E/DX2                !
 ! A34   A(5,11,17)            128.1272         estimate D2E/DX2                !
 ! A35   A(5,11,18)            112.4544         estimate D2E/DX2                !
 ! A36   A(17,11,18)           119.3585         estimate D2E/DX2                !
 ! A37   A(11,18,19)           103.0208         estimate D2E/DX2                !
 ! A38   A(2,21,22)            109.8835         estimate D2E/DX2                !
 ! A39   A(2,21,23)            112.3235         estimate D2E/DX2                !
 ! A40   A(2,21,24)            109.886          estimate D2E/DX2                !
 ! A41   A(22,21,23)           108.1541         estimate D2E/DX2                !
 ! A42   A(22,21,24)           108.3237         estimate D2E/DX2                !
 ! A43   A(23,21,24)           108.1645         estimate D2E/DX2                !
 ! D1    D(1,2,3,4)             -0.1553         estimate D2E/DX2                !
 ! D2    D(1,2,3,20)          -179.9971         estimate D2E/DX2                !
 ! D3    D(21,2,3,4)           179.7779         estimate D2E/DX2                !
 ! D4    D(21,2,3,20)           -0.0639         estimate D2E/DX2                !
 ! D5    D(1,2,21,22)           59.5129         estimate D2E/DX2                !
 ! D6    D(1,2,21,23)          179.9554         estimate D2E/DX2                !
 ! D7    D(1,2,21,24)          -59.5872         estimate D2E/DX2                !
 ! D8    D(3,2,21,22)         -120.423          estimate D2E/DX2                !
 ! D9    D(3,2,21,23)            0.0195         estimate D2E/DX2                !
 ! D10   D(3,2,21,24)          120.4768         estimate D2E/DX2                !
 ! D11   D(2,3,4,5)             -0.1786         estimate D2E/DX2                !
 ! D12   D(2,3,4,8)            178.7159         estimate D2E/DX2                !
 ! D13   D(20,3,4,5)           179.6723         estimate D2E/DX2                !
 ! D14   D(20,3,4,8)            -1.4332         estimate D2E/DX2                !
 ! D15   D(3,4,5,6)            165.1096         estimate D2E/DX2                !
 ! D16   D(3,4,5,10)            46.6376         estimate D2E/DX2                !
 ! D17   D(3,4,5,11)           -75.8264         estimate D2E/DX2                !
 ! D18   D(8,4,5,6)            -13.9047         estimate D2E/DX2                !
 ! D19   D(8,4,5,10)          -132.3768         estimate D2E/DX2                !
 ! D20   D(8,4,5,11)           105.1592         estimate D2E/DX2                !
 ! D21   D(3,4,8,7)            171.6252         estimate D2E/DX2                !
 ! D22   D(3,4,8,9)            -69.7178         estimate D2E/DX2                !
 ! D23   D(3,4,8,16)            51.062          estimate D2E/DX2                !
 ! D24   D(5,4,8,7)             -9.3313         estimate D2E/DX2                !
 ! D25   D(5,4,8,9)            109.3258         estimate D2E/DX2                !
 ! D26   D(5,4,8,16)          -129.8944         estimate D2E/DX2                !
 ! D27   D(4,5,6,7)             31.4571         estimate D2E/DX2                !
 ! D28   D(4,5,6,12)           -85.2733         estimate D2E/DX2                !
 ! D29   D(4,5,6,13)           153.1957         estimate D2E/DX2                !
 ! D30   D(10,5,6,7)           150.1535         estimate D2E/DX2                !
 ! D31   D(10,5,6,12)           33.4232         estimate D2E/DX2                !
 ! D32   D(10,5,6,13)          -88.1078         estimate D2E/DX2                !
 ! D33   D(11,5,6,7)           -89.1448         estimate D2E/DX2                !
 ! D34   D(11,5,6,12)          154.1248         estimate D2E/DX2                !
 ! D35   D(11,5,6,13)           32.5938         estimate D2E/DX2                !
 ! D36   D(4,5,11,17)          -38.431          estimate D2E/DX2                !
 ! D37   D(4,5,11,18)          144.4361         estimate D2E/DX2                !
 ! D38   D(6,5,11,17)           76.9594         estimate D2E/DX2                !
 ! D39   D(6,5,11,18)         -100.1736         estimate D2E/DX2                !
 ! D40   D(10,5,11,17)        -161.6893         estimate D2E/DX2                !
 ! D41   D(10,5,11,18)          21.1778         estimate D2E/DX2                !
 ! D42   D(5,6,7,8)            -37.2012         estimate D2E/DX2                !
 ! D43   D(5,6,7,14)          -158.8597         estimate D2E/DX2                !
 ! D44   D(5,6,7,15)            80.5005         estimate D2E/DX2                !
 ! D45   D(12,6,7,8)            79.787          estimate D2E/DX2                !
 ! D46   D(12,6,7,14)          -41.8714         estimate D2E/DX2                !
 ! D47   D(12,6,7,15)         -162.5112         estimate D2E/DX2                !
 ! D48   D(13,6,7,8)          -159.969          estimate D2E/DX2                !
 ! D49   D(13,6,7,14)           78.3725         estimate D2E/DX2                !
 ! D50   D(13,6,7,15)          -42.2672         estimate D2E/DX2                !
 ! D51   D(6,7,8,4)             28.8833         estimate D2E/DX2                !
 ! D52   D(6,7,8,9)            -89.1117         estimate D2E/DX2                !
 ! D53   D(6,7,8,16)           150.0206         estimate D2E/DX2                !
 ! D54   D(14,7,8,4)           150.7997         estimate D2E/DX2                !
 ! D55   D(14,7,8,9)            32.8046         estimate D2E/DX2                !
 ! D56   D(14,7,8,16)          -88.0631         estimate D2E/DX2                !
 ! D57   D(15,7,8,4)           -88.8603         estimate D2E/DX2                !
 ! D58   D(15,7,8,9)           153.1446         estimate D2E/DX2                !
 ! D59   D(15,7,8,16)           32.2769         estimate D2E/DX2                !
 ! D60   D(5,11,18,19)        -179.5877         estimate D2E/DX2                !
 ! D61   D(17,11,18,19)          2.9998         estimate D2E/DX2                !
 --------------------------------------------------------------------------------
 Trust Radius=3.00D-01 FncErr=1.00D-07 GrdErr=1.00D-06 EigMax=2.50D+02 EigMin=1.00D-04
 Number of steps in this run=    144 maximum allowed number of steps=    144.
 GradGradGradGradGradGradGradGradGradGradGradGradGradGradGradGradGradGrad

                          Input orientation:                          
 ---------------------------------------------------------------------
 Center     Atomic      Atomic             Coordinates (Angstroms)
 Number     Number       Type             X           Y           Z
 ---------------------------------------------------------------------
      1          1           0        1.515300    1.476500   -0.819800
      2          6           0        2.079400    0.690700   -0.328100
      3          6           0        1.446900   -0.348700    0.229500
      4          7           0        0.094200   -0.600100    0.287000
      5          6           0       -0.972000    0.257900   -0.271400
      6          6           0       -2.207500   -0.643900   -0.274700
      7          6           0       -1.982300   -1.548300    0.927400
      8          6           0       -0.478600   -1.796700    0.907300
      9          1           0       -0.242700   -2.675000    0.295700
     10          1           0       -0.723800    0.568100   -1.293100
     11          6           0       -1.229300    1.501100    0.585700
     12          1           0       -2.225200   -1.248600   -1.189700
     13          1           0       -3.152000   -0.095500   -0.207000
     14          1           0       -2.558400   -2.476300    0.872600
     15          1           0       -2.266600   -1.028900    1.850200
     16          1           0       -0.092800   -1.957100    1.919500
     17          8           0       -1.228700    1.590600    1.804200
     18          8           0       -1.542800    2.587000   -0.159400
     19          1           0       -1.669500    3.288100    0.514300
     20          1           0        2.031600   -1.127500    0.718600
     21          6           0        3.563700    0.857600   -0.322900
     22          1           0        3.831600    1.790200    0.183100
     23          1           0        4.072900    0.034100    0.187700
     24          1           0        3.936600    0.904400   -1.350600
 ---------------------------------------------------------------------
                    Distance matrix (angstroms):
                    1          2          3          4          5
     1  H    0.000000
     2  C    1.085108   0.000000
     3  C    2.106434   1.338404   0.000000
     4  N    2.748963   2.446535   1.377064   0.000000
     5  C    2.823542   3.082462   2.543608   1.478092   0.000000
     6  C    4.318851   4.490158   3.700811   2.369651   1.529612
     7  C    4.943210   4.804873   3.699394   2.370875   2.391691
     8  C    4.203849   3.775809   2.502732   1.464487   2.419537
     9  H    4.644336   4.136328   2.875900   2.102091   3.074961
    10  H    2.462270   2.967185   2.805490   2.128504   1.096220
    11  C    3.083645   3.526936   3.272718   2.501183   1.531787
    12  H    4.642665   4.799252   4.038350   2.825033   2.164100
    13  H    4.962902   5.291533   4.626502   3.322119   2.209398
    14  H    5.923164   5.742888   4.580686   3.301415   3.361733
    15  H    5.263905   5.156523   4.108457   2.863711   2.798755
    16  H    4.677538   4.096462   2.795304   2.131073   3.237169
    17  O    3.798412   4.037332   3.660519   2.975084   2.479939
    18  O    3.319836   4.092034   4.208074   3.610630   2.400638
    19  H    3.899316   4.637928   4.797851   4.275559   3.207171
    20  H    3.068233   2.098504   1.089781   2.053764   3.452687
    21  C    2.196791   1.493663   2.498229   3.812387   4.575464
    22  H    2.543514   2.130829   3.203723   4.437622   5.062518
    23  H    3.104334   2.161299   2.654083   4.030152   5.070688
    24  H    2.543962   2.130813   3.203995   4.439515   5.067247
                    6          7          8          9         10
     6  C    0.000000
     7  C    1.521085   0.000000
     8  C    2.390642   1.524211   0.000000
     9  H    2.882909   2.166727   1.095954   0.000000
    10  H    2.169665   3.315659   3.239469   3.643273   0.000000
    11  C    2.509619   3.159527   3.397420   4.300848   2.157755
    12  H    1.096905   2.151960   2.783601   2.858555   2.359087
    13  H    1.094261   2.183046   3.358990   3.920530   2.741557
    14  H    2.190232   1.093654   2.188293   2.394736   4.162257
    15  H    2.160305   1.096432   2.162295   3.036822   3.848503
    16  H    3.318277   2.172922   1.095043   1.781734   4.134682
    17  O    3.205131   3.345054   3.583417   4.630671   3.300560
    18  O    3.300581   4.298256   4.635428   5.439303   2.456012
    19  H    4.046306   4.864079   5.237164   6.135316   3.399918
    20  H    4.380694   4.041295   2.604715   2.783171   3.809754
    21  C    5.963520   6.173307   4.989879   5.229781   4.405423
    22  H    6.527262   6.745443   5.654038   6.045710   4.942101
    23  H    6.333792   6.302110   4.958408   5.096596   5.048391
    24  H    6.426878   6.799882   5.646950   5.743601   4.672872
                   11         12         13         14         15
    11  C    0.000000
    12  H    3.421215   0.000000
    13  H    2.621885   1.776034   0.000000
    14  H    4.203395   2.423087   2.680691   0.000000
    15  H    3.012615   3.048110   2.426364   1.770823   0.000000
    16  H    3.876829   3.836173   4.164884   2.728507   2.364691
    17  O    1.221783   4.244703   3.253758   4.379002   2.818002
    18  O    1.353749   4.029766   3.128513   5.266258   4.199656
    19  H    1.841804   4.877916   3.763885   5.843529   4.558250
    20  H    4.190545   4.666543   5.365768   4.786552   4.445758
    21  C    4.920619   6.220835   6.783985   7.072780   6.501819
    22  H    5.085113   6.914023   7.244219   7.714307   6.922037
    23  H    5.515779   6.573326   7.236834   7.123576   6.639513
    24  H    5.549039   6.529095   7.249543   7.652240   7.243097
                   16         17         18         19         20
    16  H    0.000000
    17  O    3.726894   0.000000
    18  O    5.203188   2.224229   0.000000
    19  H    5.654440   2.177074   0.980544   0.000000
    20  H    2.577493   4.381341   5.229219   5.765189   0.000000
    21  C    5.130388   5.294237   5.393876   5.830490   2.715267
    22  H    5.697215   5.317372   5.443930   5.710998   3.469832
    23  H    4.931234   5.756972   6.178500   6.608354   2.407919
    24  H    5.926027   6.091302   5.854394   6.370890   3.469760
                   21         22         23         24
    21  C    0.000000
    22  H    1.094326   0.000000
    23  H    1.094600   1.772607   0.000000
    24  H    1.094263   1.774233   1.772672   0.000000
 Stoichiometry    C8H13NO2
 Framework group  C1[X(C8H13NO2)]
 Deg. of freedom    66
 Full point group                 C1      NOp   1
 Largest Abelian subgroup         C1      NOp   1
 Largest concise Abelian subgroup C1      NOp   1
                         Standard orientation:                         
 ---------------------------------------------------------------------
 Center     Atomic      Atomic             Coordinates (Angstroms)
 Number     Number       Type             X           Y           Z
 ---------------------------------------------------------------------
      1          1           0        2.034162    1.025774   -0.757243
      2          6           0        2.400642    0.137510   -0.253121
      3          6           0        1.551502   -0.827096    0.120810
      4          7           0        0.184826   -0.877574   -0.040290
      5          6           0       -0.652349    0.160485   -0.677728
      6          6           0       -1.984675   -0.545917   -0.933887
      7          6           0       -2.076949   -1.542361    0.211663
      8          6           0       -0.637412   -2.009896    0.391562
      9          1           0       -0.432419   -2.876283   -0.247551
     10          1           0       -0.207251    0.489460   -1.623964
     11          6           0       -0.866241    1.375939    0.229627
     12          1           0       -1.942577   -1.086810   -1.887230
     13          1           0       -2.843316    0.131876   -0.961071
     14          1           0       -2.759928   -2.369627   -0.001052
     15          1           0       -2.427408   -1.041242    1.121729
     16          1           0       -0.440271   -2.284670    1.433076
     17          8           0       -1.043563    1.393066    1.438352
     18          8           0       -0.906635    2.537998   -0.463642
     19          1           0       -1.038980    3.209604    0.238425
     20          1           0        1.939502   -1.711360    0.625940
     21          6           0        3.874576    0.081352   -0.017759
     22          1           0        4.186304    0.932627    0.595189
     23          1           0        4.179206   -0.837072    0.493950
     24          1           0        4.406217    0.132123   -0.972847
 ---------------------------------------------------------------------
 Rotational constants (GHZ):           1.3892601           0.8610419           0.6226879
 Standard basis: def2TZVPP (5D, 7F)
 There are   591 symmetry adapted cartesian basis functions of A   symmetry.
 There are   523 symmetry adapted basis functions of A   symmetry.
   523 basis functions,   782 primitive gaussians,   591 cartesian basis functions
    42 alpha electrons       42 beta electrons
       nuclear repulsion energy       639.5963388998 Hartrees.
 NAtoms=   24 NActive=   24 NUniq=   24 SFac= 1.00D+00 NAtFMM=   60 NAOKFM=F Big=F
 Integral buffers will be    131072 words long.
 Raffenetti 2 integral format.
 Two-electron integral symmetry is turned on.
 Nuclear repulsion after empirical dispersion term =      639.5953978647 Hartrees.
 ------------------------------------------------------------------------------
 Polarizable Continuum Model (PCM)
 =================================
 Model                : PCM.
 Atomic radii         : SMD-Coulomb.
 Polarization charges : Total charges.
 Charge compensation  : None.
 Solution method      : On-the-fly selection.
 Cavity type          : VdW (van der Waals Surface) (Alpha=1.000).
 Cavity algorithm     : GePol (No added spheres)
                        Default sphere list used, NSphG=   24.
                        Lebedev-Laikov grids with approx.  5.0 points / Ang**2.
                        Smoothing algorithm: York/Karplus (Gamma=1.0000).
                        Polarization charges: spherical gaussians, with
                                              point-specific exponents (IZeta= 3).
                        Self-potential: point-specific (ISelfS= 7).
                        Self-field    : sphere-specific E.n sum rule (ISelfD= 2).
 1st derivatives      : Analytical E(r).r(x)/FMM algorithm (CHGder, D1EAlg=3).
                        Cavity 1st derivative terms included.
 Solvent              : Chloroform, Eps=   4.711300 Eps(inf)=   2.090627
 ------------------------------------------------------------------------------
 ------------------------------------------------------------------------------
 Atomic radii for non-electrostatic terms: SMD-CDS.
 ------------------------------------------------------------------------------
 Nuclear repulsion after PCM non-electrostatic terms =      639.5905060369 Hartrees.
 One-electron integrals computed using PRISM.
   1 Symmetry operations used in ECPInt.
 ECPInt:  NShTT=   19900 NPrTT=   52931 LenC2=   18769 LenP2D=   39459.
 LDataN:  DoStor=T MaxTD1= 6 Len=  172
 NBasis=   523 RedAO= T EigKep=  7.90D-05  NBF=   523
 NBsUse=   523 1.00D-06 EigRej= -1.00D+00 NBFU=   523
 ExpMin= 9.52D-02 ExpMax= 2.70D+04 ExpMxC= 9.22D+02 IAcc=3 IRadAn=         5 AccDes= 0.00D+00
 Harris functional with IExCor= 1009 and IRadAn=       5 diagonalized for initial guess.
 HarFok:  IExCor= 1009 AccDes= 0.00D+00 IRadAn=         5 IDoV= 1 UseB2=F ITyADJ=14
 ICtDFT=  3500011 ScaDFX=  1.000000  1.000000  1.000000  1.000000
 FoFCou: FMM=F IPFlag=           0 FMFlag=      100000 FMFlg1=           0
         NFxFlg=           0 DoJE=T BraDBF=F KetDBF=T FulRan=T
         wScrn=  0.000000 ICntrl=       500 IOpCl=  0 I1Cent=   200000004 NGrid=           0
         NMat0=    1 NMatS0=      1 NMatT0=    0 NMatD0=    1 NMtDS0=    0 NMtDT0=    0
 Petite list used in FoFCou.
 Requested convergence on RMS density matrix=1.00D-08 within 128 cycles.
 Requested convergence on MAX density matrix=1.00D-06.
 Requested convergence on             energy=1.00D-06.
 No special actions if energy rises.
 Inv3:  Mode=1 IEnd=     9828300.
 Iteration    1 A*A^-1 deviation from unit magnitude is 5.11D-15 for   1797.
 Iteration    1 A*A^-1 deviation from orthogonality  is 2.91D-15 for   1792   1386.
 Iteration    1 A^-1*A deviation from unit magnitude is 5.11D-15 for   1797.
 Iteration    1 A^-1*A deviation from orthogonality  is 1.49D-15 for   1230    857.
 Error on total polarization charges =  0.03637
 SCF Done:  E(RM062X) =  -517.868679522     A.U. after   13 cycles
            NFock= 13  Conv=0.54D-08     -V/T= 2.0054
 SMD-CDS (non-electrostatic) energy       (kcal/mol) =      -3.07
 (included in total energy above)

 **********************************************************************

            Population analysis using the SCF density.

 **********************************************************************

 Orbital symmetries:
       Occupied  (A) (A) (A) (A) (A) (A) (A) (A) (A) (A) (A) (A)
                 (A) (A) (A) (A) (A) (A) (A) (A) (A) (A) (A) (A)
                 (A) (A) (A) (A) (A) (A) (A) (A) (A) (A) (A) (A)
                 (A) (A) (A) (A) (A) (A)
       Virtual   (A) (A) (A) (A) (A) (A) (A) (A) (A) (A) (A) (A)
                 (A) (A) (A) (A) (A) (A) (A) (A) (A) (A) (A) (A)
                 (A) (A) (A) (A) (A) (A) (A) (A) (A) (A) (A) (A)
                 (A) (A) (A) (A) (A) (A) (A) (A) (A) (A) (A) (A)
                 (A) (A) (A) (A) (A) (A) (A) (A) (A) (A) (A) (A)
                 (A) (A) (A) (A) (A) (A) (A) (A) (A) (A) (A) (A)
                 (A) (A) (A) (A) (A) (A) (A) (A) (A) (A) (A) (A)
                 (A) (A) (A) (A) (A) (A) (A) (A) (A) (A) (A) (A)
                 (A) (A) (A) (A) (A) (A) (A) (A) (A) (A) (A) (A)
                 (A) (A) (A) (A) (A) (A) (A) (A) (A) (A) (A) (A)
                 (A) (A) (A) (A) (A) (A) (A) (A) (A) (A) (A) (A)
                 (A) (A) (A) (A) (A) (A) (A) (A) (A) (A) (A) (A)
                 (A) (A) (A) (A) (A) (A) (A) (A) (A) (A) (A) (A)
                 (A) (A) (A) (A) (A) (A) (A) (A) (A) (A) (A) (A)
                 (A) (A) (A) (A) (A) (A) (A) (A) (A) (A) (A) (A)
                 (A) (A) (A) (A) (A) (A) (A) (A) (A) (A) (A) (A)
                 (A) (A) (A) (A) (A) (A) (A) (A) (A) (A) (A) (A)
                 (A) (A) (A) (A) (A) (A) (A) (A) (A) (A) (A) (A)
                 (A) (A) (A) (A) (A) (A) (A) (A) (A) (A) (A) (A)
                 (A) (A) (A) (A) (A) (A) (A) (A) (A) (A) (A) (A)
                 (A) (A) (A) (A) (A) (A) (A) (A) (A) (A) (A) (A)
                 (A) (A) (A) (A) (A) (A) (A) (A) (A) (A) (A) (A)
                 (A) (A) (A) (A) (A) (A) (A) (A) (A) (A) (A) (A)
                 (A) (A) (A) (A) (A) (A) (A) (A) (A) (A) (A) (A)
                 (A) (A) (A) (A) (A) (A) (A) (A) (A) (A) (A) (A)
                 (A) (A) (A) (A) (A) (A) (A) (A) (A) (A) (A) (A)
                 (A) (A) (A) (A) (A) (A) (A) (A) (A) (A) (A) (A)
                 (A) (A) (A) (A) (A) (A) (A) (A) (A) (A) (A) (A)
                 (A) (A) (A) (A) (A) (A) (A) (A) (A) (A) (A) (A)
                 (A) (A) (A) (A) (A) (A) (A) (A) (A) (A) (A) (A)
                 (A) (A) (A) (A) (A) (A) (A) (A) (A) (A) (A) (A)
                 (A) (A) (A) (A) (A) (A) (A) (A) (A) (A) (A) (A)
                 (A) (A) (A) (A) (A) (A) (A) (A) (A) (A) (A) (A)
                 (A) (A) (A) (A) (A) (A) (A) (A) (A) (A) (A) (A)
                 (A) (A) (A) (A) (A) (A) (A) (A) (A) (A) (A) (A)
                 (A) (A) (A) (A) (A) (A) (A) (A) (A) (A) (A) (A)
                 (A) (A) (A) (A) (A) (A) (A) (A) (A) (A) (A) (A)
                 (A) (A) (A) (A) (A) (A) (A) (A) (A) (A) (A) (A)
                 (A) (A) (A) (A) (A) (A) (A) (A) (A) (A) (A) (A)
                 (A) (A) (A) (A) (A) (A) (A) (A) (A) (A) (A) (A)
                 (A)
 The electronic state is 1-A.
 Alpha  occ. eigenvalues --  -19.67405 -19.62384 -14.75609 -10.68094 -10.59164
 Alpha  occ. eigenvalues --  -10.56121 -10.56066 -10.54365 -10.53225 -10.51811
 Alpha  occ. eigenvalues --  -10.51128  -1.23635  -1.13419  -1.05515  -0.91061
 Alpha  occ. eigenvalues --   -0.85679  -0.84636  -0.76548  -0.73214  -0.67741
 Alpha  occ. eigenvalues --   -0.66719  -0.61593  -0.59912  -0.57997  -0.57579
 Alpha  occ. eigenvalues --   -0.54156  -0.52852  -0.50759  -0.48821  -0.47967
 Alpha  occ. eigenvalues --   -0.47619  -0.46547  -0.44288  -0.42554  -0.41169
 Alpha  occ. eigenvalues --   -0.40955  -0.40746  -0.39746  -0.39689  -0.36814
 Alpha  occ. eigenvalues --   -0.35349  -0.23616
 Alpha virt. eigenvalues --    0.03547   0.06746   0.07128   0.08669   0.09694
 Alpha virt. eigenvalues --    0.10412   0.11435   0.12203   0.12916   0.14244
 Alpha virt. eigenvalues --    0.15472   0.15559   0.15984   0.16959   0.17388
 Alpha virt. eigenvalues --    0.18612   0.19171   0.19620   0.20143   0.20942
 Alpha virt. eigenvalues --    0.22352   0.24017   0.24235   0.25431   0.26638
 Alpha virt. eigenvalues --    0.26949   0.27773   0.28737   0.29323   0.31016
 Alpha virt. eigenvalues --    0.31600   0.33528   0.34240   0.34518   0.35082
 Alpha virt. eigenvalues --    0.36779   0.36946   0.38537   0.39615   0.40843
 Alpha virt. eigenvalues --    0.41202   0.42419   0.42928   0.43205   0.44110
 Alpha virt. eigenvalues --    0.44307   0.44588   0.45951   0.46308   0.46835
 Alpha virt. eigenvalues --    0.47207   0.48251   0.48444   0.48999   0.49932
 Alpha virt. eigenvalues --    0.50502   0.51138   0.51384   0.52494   0.53018
 Alpha virt. eigenvalues --    0.53573   0.54288   0.55861   0.56098   0.57942
 Alpha virt. eigenvalues --    0.59126   0.59747   0.60925   0.61487   0.63117
 Alpha virt. eigenvalues --    0.64130   0.66213   0.67461   0.67860   0.69523
 Alpha virt. eigenvalues --    0.70147   0.70534   0.72282   0.72945   0.74840
 Alpha virt. eigenvalues --    0.76214   0.77190   0.80228   0.81082   0.82985
 Alpha virt. eigenvalues --    0.84283   0.85432   0.86132   0.86511   0.88040
 Alpha virt. eigenvalues --    0.88639   0.89974   0.92013   0.92257   0.92725
 Alpha virt. eigenvalues --    0.95558   0.96755   0.97373   0.97592   0.98908
 Alpha virt. eigenvalues --    1.01038   1.01240   1.03173   1.03397   1.03834
 Alpha virt. eigenvalues --    1.04896   1.05954   1.07197   1.07783   1.09132
 Alpha virt. eigenvalues --    1.09738   1.10793   1.12824   1.13475   1.14795
 Alpha virt. eigenvalues --    1.15789   1.16533   1.16649   1.17899   1.18500
 Alpha virt. eigenvalues --    1.19563   1.20451   1.20988   1.22657   1.23061
 Alpha virt. eigenvalues --    1.25293   1.26849   1.28097   1.29139   1.30372
 Alpha virt. eigenvalues --    1.32130   1.33987   1.34558   1.35565   1.36182
 Alpha virt. eigenvalues --    1.37502   1.39320   1.40432   1.40972   1.43090
 Alpha virt. eigenvalues --    1.44334   1.45872   1.47025   1.48528   1.49020
 Alpha virt. eigenvalues --    1.49861   1.50445   1.50632   1.51092   1.51613
 Alpha virt. eigenvalues --    1.53517   1.54714   1.55226   1.56449   1.57298
 Alpha virt. eigenvalues --    1.57619   1.58871   1.61507   1.61980   1.62443
 Alpha virt. eigenvalues --    1.63647   1.66367   1.68153   1.68318   1.70108
 Alpha virt. eigenvalues --    1.70645   1.72676   1.74164   1.74877   1.76609
 Alpha virt. eigenvalues --    1.78304   1.80114   1.81344   1.84973   1.85849
 Alpha virt. eigenvalues --    1.86838   1.88723   1.90104   1.90851   1.94314
 Alpha virt. eigenvalues --    1.96497   1.97708   1.99150   2.03288   2.05339
 Alpha virt. eigenvalues --    2.08660   2.10605   2.11440   2.12607   2.14039
 Alpha virt. eigenvalues --    2.15776   2.16537   2.20551   2.21567   2.24684
 Alpha virt. eigenvalues --    2.26562   2.28249   2.30024   2.32850   2.36732
 Alpha virt. eigenvalues --    2.39159   2.41496   2.43776   2.45297   2.48493
 Alpha virt. eigenvalues --    2.48810   2.49281   2.52620   2.55138   2.55527
 Alpha virt. eigenvalues --    2.58243   2.59616   2.61948   2.62218   2.62680
 Alpha virt. eigenvalues --    2.63966   2.64456   2.65889   2.68243   2.69975
 Alpha virt. eigenvalues --    2.72707   2.73115   2.74241   2.76124   2.76977
 Alpha virt. eigenvalues --    2.77154   2.77788   2.80903   2.82029   2.83773
 Alpha virt. eigenvalues --    2.84040   2.85219   2.87649   2.87994   2.89018
 Alpha virt. eigenvalues --    2.90233   2.91279   2.91911   2.92934   2.93462
 Alpha virt. eigenvalues --    2.94736   2.96480   2.96768   2.98333   2.98960
 Alpha virt. eigenvalues --    3.00751   3.02204   3.03104   3.03215   3.05342
 Alpha virt. eigenvalues --    3.06277   3.06635   3.08165   3.08176   3.09713
 Alpha virt. eigenvalues --    3.10523   3.12289   3.13313   3.14883   3.15658
 Alpha virt. eigenvalues --    3.16544   3.18044   3.19324   3.19933   3.20803
 Alpha virt. eigenvalues --    3.21026   3.22537   3.23236   3.24544   3.26176
 Alpha virt. eigenvalues --    3.26832   3.28101   3.28890   3.30370   3.30994
 Alpha virt. eigenvalues --    3.32575   3.32991   3.34233   3.36187   3.37298
 Alpha virt. eigenvalues --    3.37505   3.39474   3.40354   3.40771   3.42632
 Alpha virt. eigenvalues --    3.43730   3.45372   3.46872   3.47310   3.47877
 Alpha virt. eigenvalues --    3.49654   3.50628   3.51206   3.52159   3.53692
 Alpha virt. eigenvalues --    3.54455   3.55195   3.57331   3.58450   3.59398
 Alpha virt. eigenvalues --    3.60333   3.61367   3.62638   3.63479   3.63945
 Alpha virt. eigenvalues --    3.64227   3.66391   3.67521   3.68721   3.69092
 Alpha virt. eigenvalues --    3.70444   3.71541   3.73769   3.75188   3.75882
 Alpha virt. eigenvalues --    3.77209   3.78047   3.80174   3.80660   3.82345
 Alpha virt. eigenvalues --    3.83434   3.84438   3.85702   3.86743   3.87656
 Alpha virt. eigenvalues --    3.88451   3.89470   3.90617   3.90820   3.92660
 Alpha virt. eigenvalues --    3.94355   3.95516   3.96188   3.96982   3.99584
 Alpha virt. eigenvalues --    3.99940   4.01537   4.02861   4.03276   4.03972
 Alpha virt. eigenvalues --    4.05171   4.05878   4.06655   4.07614   4.09046
 Alpha virt. eigenvalues --    4.10976   4.11772   4.12412   4.14544   4.15556
 Alpha virt. eigenvalues --    4.16328   4.17385   4.19376   4.19809   4.21023
 Alpha virt. eigenvalues --    4.21913   4.22615   4.24192   4.26514   4.28569
 Alpha virt. eigenvalues --    4.29150   4.30177   4.31198   4.34152   4.35861
 Alpha virt. eigenvalues --    4.37090   4.38007   4.39520   4.40668   4.41734
 Alpha virt. eigenvalues --    4.42853   4.45873   4.48956   4.50812   4.53232
 Alpha virt. eigenvalues --    4.54423   4.56566   4.57083   4.59611   4.61503
 Alpha virt. eigenvalues --    4.63231   4.64335   4.65259   4.67492   4.68720
 Alpha virt. eigenvalues --    4.70086   4.70981   4.72527   4.74911   4.77340
 Alpha virt. eigenvalues --    4.77414   4.79829   4.82997   4.83309   4.86022
 Alpha virt. eigenvalues --    4.86727   4.87071   4.88312   4.88891   4.91743
 Alpha virt. eigenvalues --    4.93788   4.96867   4.99564   5.02667   5.05998
 Alpha virt. eigenvalues --    5.06998   5.08244   5.10674   5.13050   5.13874
 Alpha virt. eigenvalues --    5.15465   5.18838   5.19609   5.20477   5.21856
 Alpha virt. eigenvalues --    5.23544   5.25191   5.25961   5.28121   5.30543
 Alpha virt. eigenvalues --    5.30607   5.31994   5.33380   5.34835   5.36243
 Alpha virt. eigenvalues --    5.37649   5.39493   5.41161   5.42505   5.44014
 Alpha virt. eigenvalues --    5.44753   5.48633   5.49792   5.50198   5.53160
 Alpha virt. eigenvalues --    5.55008   5.55823   5.57112   5.57694   5.59393
 Alpha virt. eigenvalues --    5.59996   5.62240   5.62784   5.67780   5.69163
 Alpha virt. eigenvalues --    5.71398   5.78522   5.82919   5.90559   5.95422
 Alpha virt. eigenvalues --    5.98008   6.01609   6.05452   6.15058   6.27284
 Alpha virt. eigenvalues --    6.32326   6.36218   6.40309   6.45816   6.51104
 Alpha virt. eigenvalues --    6.59647   6.68942   6.73196   6.80331   6.85601
 Alpha virt. eigenvalues --    6.92570   7.05839   7.21205   7.32243   7.42279
 Alpha virt. eigenvalues --   23.07283  23.12793  23.41072  23.47381  23.53900
 Alpha virt. eigenvalues --   23.55883  23.60233  23.73085  33.42116  44.09412
 Alpha virt. eigenvalues --   44.12035
          Condensed to atoms (all electrons):
               1          2          3          4          5          6
     1  H    0.526893   0.420341  -0.043086  -0.005368   0.012033   0.000791
     2  C    0.420341   5.203661   0.578776  -0.089447   0.001708   0.001931
     3  C   -0.043086   0.578776   4.881922   0.375916  -0.091584   0.001863
     4  N   -0.005368  -0.089447   0.375916   6.624567   0.263465  -0.040530
     5  C    0.012033   0.001708  -0.091584   0.263465   5.358612   0.227096
     6  C    0.000791   0.001931   0.001863  -0.040530   0.227096   5.113815
     7  C   -0.000125  -0.000614   0.009215  -0.051835  -0.042233   0.207142
     8  C   -0.000161   0.002460  -0.062885   0.284749  -0.056052  -0.036200
     9  H    0.000026   0.001904  -0.001931  -0.062057  -0.000508  -0.007879
    10  H   -0.003220   0.002064  -0.000403  -0.033119   0.433399  -0.013724
    11  C   -0.005545   0.003351   0.015292  -0.055154   0.211000  -0.029663
    12  H    0.000001   0.000124   0.000239   0.001338  -0.049037   0.450380
    13  H   -0.000015  -0.000067  -0.000176   0.003011  -0.027427   0.436363
    14  H    0.000004   0.000031  -0.000292   0.006010   0.006209  -0.035536
    15  H    0.000015  -0.000018  -0.000085   0.001725   0.012336  -0.051305
    16  H   -0.000058   0.000153  -0.008565  -0.045188   0.004571   0.011704
    17  O   -0.000957  -0.002667   0.007430   0.006537  -0.097258   0.004800
    18  O    0.004690  -0.002007  -0.001967   0.007082  -0.103965  -0.002858
    19  H   -0.000203   0.000293  -0.000045  -0.001199   0.019134  -0.000535
    20  H    0.003649  -0.038887   0.413941  -0.022447   0.010354  -0.000603
    21  C   -0.023395   0.278625  -0.058821   0.005312  -0.001544  -0.000015
    22  H   -0.001912  -0.052277  -0.005335   0.000011  -0.000002  -0.000000
    23  H    0.004278  -0.062506   0.008021   0.000314   0.000193   0.000003
    24  H   -0.003138  -0.055299  -0.001944   0.000113   0.000004  -0.000001
               7          8          9         10         11         12
     1  H   -0.000125  -0.000161   0.000026  -0.003220  -0.005545   0.000001
     2  C   -0.000614   0.002460   0.001904   0.002064   0.003351   0.000124
     3  C    0.009215  -0.062885  -0.001931  -0.000403   0.015292   0.000239
     4  N   -0.051835   0.284749  -0.062057  -0.033119  -0.055154   0.001338
     5  C   -0.042233  -0.056052  -0.000508   0.433399   0.211000  -0.049037
     6  C    0.207142  -0.036200  -0.007879  -0.013724  -0.029663   0.450380
     7  C    5.142565   0.238638  -0.033604   0.009638   0.000184  -0.041519
     8  C    0.238638   4.992099   0.434818   0.002378  -0.006074  -0.002159
     9  H   -0.033604   0.434818   0.591501   0.002561  -0.002867   0.000630
    10  H    0.009638   0.002378   0.002561   0.499940  -0.075877  -0.008985
    11  C    0.000184  -0.006074  -0.002867  -0.075877   4.598831   0.003606
    12  H   -0.041519  -0.002159   0.000630  -0.008985   0.003606   0.523106
    13  H   -0.048396   0.010596  -0.000370   0.001925  -0.004833  -0.013088
    14  H    0.440227  -0.037809  -0.006614  -0.000042   0.000886  -0.006651
    15  H    0.445699  -0.050828   0.007162   0.000268  -0.005787   0.005078
    16  H   -0.026006   0.423841  -0.052852  -0.001167   0.003690  -0.000175
    17  O   -0.004825   0.006969   0.000194   0.003690   0.651710  -0.000241
    18  O    0.000990   0.000166   0.000039   0.008787   0.358201  -0.000478
    19  H   -0.000199   0.000009  -0.000007  -0.001360  -0.030387   0.000063
    20  H    0.000789  -0.005691  -0.001055  -0.000302  -0.000135   0.000003
    21  C    0.000058  -0.000356  -0.000047  -0.000095   0.000467   0.000002
    22  H   -0.000001   0.000011   0.000021   0.000185  -0.000363   0.000000
    23  H    0.000003   0.000098   0.000002  -0.000021  -0.000026   0.000000
    24  H   -0.000004   0.000030  -0.000040  -0.000277   0.000181  -0.000001
              13         14         15         16         17         18
     1  H   -0.000015   0.000004   0.000015  -0.000058  -0.000957   0.004690
     2  C   -0.000067   0.000031  -0.000018   0.000153  -0.002667  -0.002007
     3  C   -0.000176  -0.000292  -0.000085  -0.008565   0.007430  -0.001967
     4  N    0.003011   0.006010   0.001725  -0.045188   0.006537   0.007082
     5  C   -0.027427   0.006209   0.012336   0.004571  -0.097258  -0.103965
     6  C    0.436363  -0.035536  -0.051305   0.011704   0.004800  -0.002858
     7  C   -0.048396   0.440227   0.445699  -0.026006  -0.004825   0.000990
     8  C    0.010596  -0.037809  -0.050828   0.423841   0.006969   0.000166
     9  H   -0.000370  -0.006614   0.007162  -0.052852   0.000194   0.000039
    10  H    0.001925  -0.000042   0.000268  -0.001167   0.003690   0.008787
    11  C   -0.004833   0.000886  -0.005787   0.003690   0.651710   0.358201
    12  H   -0.013088  -0.006651   0.005078  -0.000175  -0.000241  -0.000478
    13  H    0.506532  -0.001198  -0.004492  -0.000171  -0.001007   0.003120
    14  H   -0.001198   0.520859  -0.015776   0.001520   0.000411   0.000007
    15  H   -0.004492  -0.015776   0.533197  -0.012382   0.005279   0.000184
    16  H   -0.000171   0.001520  -0.012382   0.571678  -0.000609  -0.000046
    17  O   -0.001007   0.000411   0.005279  -0.000609   7.902139  -0.102399
    18  O    0.003120   0.000007   0.000184  -0.000046  -0.102399   7.863026
    19  H   -0.000161  -0.000006  -0.000029   0.000011   0.007689   0.308047
    20  H    0.000025  -0.000030  -0.000016   0.000636   0.000003  -0.000011
    21  C   -0.000001  -0.000001  -0.000001   0.000029  -0.000006   0.000013
    22  H   -0.000000   0.000000   0.000001  -0.000039   0.000017   0.000010
    23  H   -0.000000  -0.000000   0.000000  -0.000007  -0.000002   0.000001
    24  H    0.000000   0.000000  -0.000000   0.000023  -0.000002  -0.000004
              19         20         21         22         23         24
     1  H   -0.000203   0.003649  -0.023395  -0.001912   0.004278  -0.003138
     2  C    0.000293  -0.038887   0.278625  -0.052277  -0.062506  -0.055299
     3  C   -0.000045   0.413941  -0.058821  -0.005335   0.008021  -0.001944
     4  N   -0.001199  -0.022447   0.005312   0.000011   0.000314   0.000113
     5  C    0.019134   0.010354  -0.001544  -0.000002   0.000193   0.000004
     6  C   -0.000535  -0.000603  -0.000015  -0.000000   0.000003  -0.000001
     7  C   -0.000199   0.000789   0.000058  -0.000001   0.000003  -0.000004
     8  C    0.000009  -0.005691  -0.000356   0.000011   0.000098   0.000030
     9  H   -0.000007  -0.001055  -0.000047   0.000021   0.000002  -0.000040
    10  H   -0.001360  -0.000302  -0.000095   0.000185  -0.000021  -0.000277
    11  C   -0.030387  -0.000135   0.000467  -0.000363  -0.000026   0.000181
    12  H    0.000063   0.000003   0.000002   0.000000   0.000000  -0.000001
    13  H   -0.000161   0.000025  -0.000001  -0.000000  -0.000000   0.000000
    14  H   -0.000006  -0.000030  -0.000001   0.000000  -0.000000   0.000000
    15  H   -0.000029  -0.000016  -0.000001   0.000001   0.000000  -0.000000
    16  H    0.000011   0.000636   0.000029  -0.000039  -0.000007   0.000023
    17  O    0.007689   0.000003  -0.000006   0.000017  -0.000002  -0.000002
    18  O    0.308047  -0.000011   0.000013   0.000010   0.000001  -0.000004
    19  H    0.423773  -0.000002   0.000000  -0.000008  -0.000000   0.000002
    20  H   -0.000002   0.530618  -0.004309  -0.000079   0.002406   0.000223
    21  C    0.000000  -0.004309   4.878988   0.420284   0.431415   0.421222
    22  H   -0.000008  -0.000079   0.420284   0.588638  -0.026050  -0.040203
    23  H   -0.000000   0.002406   0.431415  -0.026050   0.572525  -0.027045
    24  H    0.000002   0.000223   0.421222  -0.040203  -0.027045   0.590517
 Mulliken charges:
               1
     1  H    0.114462
     2  C   -0.191633
     3  C   -0.015494
     4  N   -0.173804
     5  C   -0.090505
     6  C   -0.237038
     7  C   -0.245786
     8  C   -0.138645
     9  H    0.130973
    10  H    0.173758
    11  C    0.369314
    12  H    0.137764
    13  H    0.139832
    14  H    0.127790
    15  H    0.129776
    16  H    0.129408
    17  O   -0.386895
    18  O   -0.340626
    19  H    0.275121
    20  H    0.110920
    21  C   -0.347824
    22  H    0.117091
    23  H    0.096399
    24  H    0.115644
 Sum of Mulliken charges =  -0.00000
 Mulliken charges with hydrogens summed into heavy atoms:
               1
     2  C   -0.077172
     3  C    0.095426
     4  N   -0.173804
     5  C    0.083252
     6  C    0.040558
     7  C    0.011779
     8  C    0.121736
    11  C    0.369314
    17  O   -0.386895
    18  O   -0.065505
    21  C   -0.018690
 Electronic spatial extent (au):  <R**2>=           1967.1280
 Charge=              0.0000 electrons
 Dipole moment (field-independent basis, Debye):
    X=             -1.6345    Y=             -1.1067    Z=             -1.7564  Tot=              2.6422
 Quadrupole moment (field-independent basis, Debye-Ang):
   XX=            -64.9566   YY=            -58.6806   ZZ=            -71.9144
   XY=              1.0574   XZ=              3.2943   YZ=             -1.4459
 Traceless Quadrupole moment (field-independent basis, Debye-Ang):
   XX=              0.2272   YY=              6.5032   ZZ=             -6.7305
   XY=              1.0574   XZ=              3.2943   YZ=             -1.4459
 Octapole moment (field-independent basis, Debye-Ang**2):
  XXX=            -21.7001  YYY=             32.3408  ZZZ=             -6.5056  XYY=            -11.4688
  XXY=              1.0847  XXZ=             -0.7765  XZZ=             -1.6655  YZZ=             -5.0520
  YYZ=             10.0243  XYZ=             -3.6812
 Hexadecapole moment (field-independent basis, Debye-Ang**3):
 XXXX=          -1566.3740 YYYY=           -676.3354 ZZZZ=           -264.0274 XXXY=            -11.4491
 XXXZ=              8.2023 YYYX=            -40.1724 YYYZ=             29.4951 ZZZX=              6.2125
 ZZZY=             -9.0766 XXYY=           -375.5468 XXZZ=           -310.5746 YYZZ=           -188.5499
 XXYZ=             -4.4627 YYXZ=              0.1795 ZZXY=              7.8056
 N-N= 6.395905060369D+02 E-N=-2.486707806886D+03  KE= 5.150904939150D+02
   1 Symmetry operations used in ECPInt.
 ECPInt:  NShTT=   19900 NPrTT=   52931 LenC2=   18769 LenP2D=   39459.
 LDataN:  DoStor=T MaxTD1= 7 Len=  274
 D1PCM: PCM CHGder 1st derivatives, ID1Alg=3 FixD1E=F DoIter=F DoCFld=F I1PDM=0.
 Calling FoFJK, ICntrl=      2127 FMM=F ISym2X=0 I1Cent= 0 IOpClX= 0 NMat=1 NMatS=1 NMatT=0.
 ***** Axes restored to original set *****
 -------------------------------------------------------------------
 Center     Atomic                   Forces (Hartrees/Bohr)
 Number     Number              X              Y              Z
 -------------------------------------------------------------------
      1        1          -0.002476832   -0.000071917    0.000581988
      2        6          -0.005502107   -0.001137093    0.000425830
      3        6          -0.005107803   -0.002119581    0.001539635
      4        7          -0.024181382    0.009384455   -0.001276731
      5        6           0.021577616   -0.003610551    0.002143868
      6        6          -0.007485460   -0.004409766   -0.000802794
      7        6          -0.001406057   -0.001257925    0.006943206
      8        6           0.005298513   -0.003986225    0.000908604
      9        1           0.000220216   -0.001013807    0.002089437
     10        1           0.000773859    0.003344439    0.004877576
     11        6          -0.002870070    0.013865457    0.019356477
     12        1           0.001827129    0.004931569    0.002164076
     13        1           0.004069794    0.000479393   -0.001820376
     14        1           0.002375138    0.002890602   -0.000291401
     15        1           0.001855217   -0.001359088   -0.003411124
     16        1           0.001547463    0.000758308   -0.003279412
     17        8           0.004462880   -0.013269259   -0.031058751
     18        8           0.003970529   -0.004958118    0.013906110
     19        1          -0.001907639   -0.001784031   -0.010987251
     20        1          -0.000912705    0.001624961   -0.001086651
     21        6           0.000329859   -0.000256909   -0.000008233
     22        1           0.002948598   -0.001070955   -0.001981231
     23        1          -0.002182788    0.001591155   -0.001054863
     24        1           0.002776033    0.001434886    0.002122011
 -------------------------------------------------------------------
 Cartesian Forces:  Max     0.031058751 RMS     0.007147317

 GradGradGradGradGradGradGradGradGradGradGradGradGradGradGradGradGradGrad
 Berny optimization.
 FormGI is forming the generalized inverse of G from B-inverse, IUseBI=4.
 Internal  Forces:  Max     0.031943223 RMS     0.005145110
 Search for a local minimum.
 Step number   1 out of a maximum of  144
 All quantities printed in internal units (Hartrees-Bohrs-Radians)
 Mixed Optimization -- RFO/linear search
 Second derivative matrix not updated -- first step.
 ITU=  0
     Eigenvalues ---    0.00345   0.00603   0.00655   0.00771   0.00850
     Eigenvalues ---    0.01015   0.01712   0.01995   0.02304   0.02476
     Eigenvalues ---    0.02708   0.02904   0.03116   0.04662   0.04980
     Eigenvalues ---    0.05244   0.05476   0.05869   0.06157   0.06454
     Eigenvalues ---    0.06624   0.06888   0.06958   0.07197   0.07484
     Eigenvalues ---    0.08377   0.09358   0.10761   0.13680   0.16000
     Eigenvalues ---    0.16000   0.16000   0.16000   0.16000   0.16000
     Eigenvalues ---    0.19190   0.21227   0.22000   0.22000   0.24983
     Eigenvalues ---    0.24993   0.25000   0.27444   0.28884   0.29103
     Eigenvalues ---    0.29259   0.33051   0.33631   0.34027   0.34080
     Eigenvalues ---    0.34104   0.34134   0.34236   0.34286   0.34317
     Eigenvalues ---    0.34325   0.34325   0.34394   0.34838   0.35245
     Eigenvalues ---    0.35384   0.49643   0.51279   0.54232   0.57564
     Eigenvalues ---    0.94598
 RFO step:  Lambda=-1.05883487D-02 EMin= 3.45472817D-03
 Linear search not attempted -- first point.
 Iteration  1 RMS(Cart)=  0.07363959 RMS(Int)=  0.00116830
 Iteration  2 RMS(Cart)=  0.00188405 RMS(Int)=  0.00021125
 Iteration  3 RMS(Cart)=  0.00000148 RMS(Int)=  0.00021125
 Iteration  4 RMS(Cart)=  0.00000000 RMS(Int)=  0.00021125
 Variable       Old X    -DE/DX   Delta X   Delta X   Delta X     New X
                                 (Linear)    (Quad)   (Total)
    R1        2.05056   0.00097   0.00000   0.00267   0.00267   2.05322
    R2        2.52922  -0.00160   0.00000  -0.00273  -0.00273   2.52649
    R3        2.82261   0.00403   0.00000   0.01182   0.01182   2.83444
    R4        2.60227  -0.00998   0.00000  -0.01967  -0.01967   2.58260
    R5        2.05939  -0.00214   0.00000  -0.00596  -0.00596   2.05343
    R6        2.79319  -0.02438   0.00000  -0.06919  -0.06903   2.72416
    R7        2.76748  -0.00302   0.00000  -0.00877  -0.00860   2.75888
    R8        2.89055   0.00139   0.00000   0.00386   0.00385   2.89440
    R9        2.07156  -0.00343   0.00000  -0.00974  -0.00974   2.06181
   R10        2.89466  -0.01051   0.00000  -0.03466  -0.03466   2.85999
   R11        2.87443   0.00506   0.00000   0.01858   0.01831   2.89274
   R12        2.07285  -0.00456   0.00000  -0.01299  -0.01299   2.05986
   R13        2.06785  -0.00338   0.00000  -0.00956  -0.00956   2.05829
   R14        2.88034  -0.00062   0.00000  -0.00160  -0.00162   2.87872
   R15        2.06671  -0.00369   0.00000  -0.01041  -0.01041   2.05629
   R16        2.07196  -0.00399   0.00000  -0.01136  -0.01136   2.06059
   R17        2.07105  -0.00031   0.00000  -0.00087  -0.00087   2.07018
   R18        2.06933  -0.00260   0.00000  -0.00736  -0.00736   2.06197
   R19        2.30883  -0.03194   0.00000  -0.03339  -0.03339   2.27544
   R20        2.55821  -0.00749   0.00000  -0.01355  -0.01355   2.54466
   R21        1.85296  -0.00858   0.00000  -0.01638  -0.01638   1.83657
   R22        2.06798  -0.00111   0.00000  -0.00315  -0.00315   2.06483
   R23        2.06849  -0.00270   0.00000  -0.00765  -0.00765   2.06084
   R24        2.06786  -0.00098   0.00000  -0.00277  -0.00277   2.06509
    A1        2.10075  -0.00189   0.00000  -0.01175  -0.01176   2.08900
    A2        2.02334   0.00277   0.00000   0.01556   0.01555   2.03889
    A3        2.15909  -0.00088   0.00000  -0.00381  -0.00381   2.15528
    A4        2.24387  -0.00723   0.00000  -0.03135  -0.03136   2.21251
    A5        2.08107   0.00333   0.00000   0.01402   0.01402   2.09508
    A6        1.95825   0.00390   0.00000   0.01733   0.01732   1.97557
    A7        2.19793  -0.01411   0.00000  -0.05438  -0.05445   2.14347
    A8        2.15443   0.00107   0.00000   0.00381   0.00374   2.15817
    A9        1.93069   0.01304   0.00000   0.05058   0.05071   1.98140
   A10        1.81442  -0.00270   0.00000  -0.01372  -0.01401   1.80042
   A11        1.93162   0.00196   0.00000   0.01723   0.01689   1.94850
   A12        1.96156  -0.00122   0.00000  -0.01973  -0.01957   1.94199
   A13        1.92591   0.00244   0.00000   0.03581   0.03591   1.96182
   A14        1.92199   0.00219   0.00000   0.00506   0.00485   1.92684
   A15        1.90697  -0.00248   0.00000  -0.02230  -0.02239   1.88458
   A16        1.80210  -0.00152   0.00000   0.00167   0.00105   1.80315
   A17        1.91755  -0.00129   0.00000  -0.02446  -0.02434   1.89321
   A18        1.98404  -0.00107   0.00000  -0.01696  -0.01684   1.96719
   A19        1.91118   0.00195   0.00000   0.01843   0.01872   1.92990
   A20        1.95722   0.00213   0.00000   0.02122   0.02123   1.97845
   A21        1.89016  -0.00015   0.00000   0.00062  -0.00024   1.88992
   A22        1.80548  -0.00118   0.00000  -0.00132  -0.00137   1.80411
   A23        1.96809   0.00109   0.00000   0.00169   0.00200   1.97009
   A24        1.92313  -0.00038   0.00000  -0.00138  -0.00168   1.92145
   A25        1.96138   0.00001   0.00000  -0.00169  -0.00169   1.95969
   A26        1.92208   0.00018   0.00000  -0.00441  -0.00440   1.91769
   A27        1.88341   0.00024   0.00000   0.00650   0.00649   1.88990
   A28        1.83205  -0.00777   0.00000  -0.03240  -0.03222   1.79983
   A29        1.91161   0.00303   0.00000   0.02328   0.02313   1.93474
   A30        1.95347   0.00102   0.00000  -0.01411  -0.01379   1.93968
   A31        1.92870   0.00270   0.00000   0.01546   0.01577   1.94447
   A32        1.93827   0.00318   0.00000   0.01596   0.01525   1.95352
   A33        1.89928  -0.00213   0.00000  -0.00780  -0.00788   1.89140
   A34        2.23624  -0.01235   0.00000  -0.04729  -0.04731   2.18893
   A35        1.96270  -0.00232   0.00000  -0.00872  -0.00874   1.95396
   A36        2.08320   0.01467   0.00000   0.05649   0.05648   2.13968
   A37        1.79805   0.01329   0.00000   0.07792   0.07792   1.87598
   A38        1.91783   0.00441   0.00000   0.02622   0.02608   1.94391
   A39        1.96042  -0.00318   0.00000  -0.01952  -0.01940   1.94102
   A40        1.91787   0.00457   0.00000   0.02733   0.02718   1.94506
   A41        1.88764  -0.00096   0.00000  -0.00668  -0.00656   1.88109
   A42        1.89061  -0.00412   0.00000  -0.02234  -0.02273   1.86788
   A43        1.88783  -0.00098   0.00000  -0.00642  -0.00629   1.88153
    D1       -0.00271   0.00038   0.00000   0.01021   0.01018   0.00747
    D2       -3.14154   0.00053   0.00000   0.01454   0.01452  -3.12702
    D3        3.13772   0.00021   0.00000   0.00428   0.00430  -3.14117
    D4       -0.00112   0.00037   0.00000   0.00861   0.00863   0.00752
    D5        1.03870   0.00019   0.00000   0.00114   0.00133   1.04002
    D6        3.14081  -0.00009   0.00000  -0.00215  -0.00217   3.13864
    D7       -1.03999  -0.00028   0.00000  -0.00436  -0.00458  -1.04457
    D8       -2.10178   0.00035   0.00000   0.00685   0.00707  -2.09471
    D9        0.00034   0.00007   0.00000   0.00356   0.00357   0.00391
   D10        2.10272  -0.00012   0.00000   0.00135   0.00116   2.10388
   D11       -0.00312   0.00078   0.00000   0.02200   0.02212   0.01901
   D12        3.11918   0.00060   0.00000   0.02274   0.02261  -3.14139
   D13        3.13587   0.00064   0.00000   0.01792   0.01804  -3.12927
   D14       -0.02501   0.00046   0.00000   0.01865   0.01854  -0.00648
   D15        2.88171   0.00070   0.00000   0.03268   0.03253   2.91424
   D16        0.81398  -0.00160   0.00000  -0.01004  -0.01018   0.80380
   D17       -1.32342   0.00105   0.00000   0.02024   0.02035  -1.30307
   D18       -0.24268   0.00093   0.00000   0.03231   0.03240  -0.21028
   D19       -2.31041  -0.00136   0.00000  -0.01041  -0.01031  -2.32072
   D20        1.83537   0.00128   0.00000   0.01988   0.02022   1.85560
   D21        2.99542  -0.00099   0.00000  -0.02934  -0.02936   2.96606
   D22       -1.21680  -0.00059   0.00000  -0.01744  -0.01755  -1.23435
   D23        0.89120  -0.00054   0.00000  -0.02065  -0.02096   0.87024
   D24       -0.16286  -0.00140   0.00000  -0.02969  -0.02991  -0.19277
   D25        1.90810  -0.00100   0.00000  -0.01778  -0.01809   1.89000
   D26       -2.26708  -0.00095   0.00000  -0.02099  -0.02151  -2.28859
   D27        0.54903  -0.00139   0.00000  -0.02576  -0.02538   0.52365
   D28       -1.48830  -0.00227   0.00000  -0.03698  -0.03662  -1.52492
   D29        2.67377  -0.00038   0.00000  -0.00802  -0.00806   2.66571
   D30        2.62067   0.00059   0.00000   0.00418   0.00433   2.62500
   D31        0.58334  -0.00030   0.00000  -0.00704  -0.00691   0.57643
   D32       -1.53777   0.00160   0.00000   0.02192   0.02165  -1.51613
   D33       -1.55587   0.00049   0.00000   0.00280   0.00310  -1.55277
   D34        2.68999  -0.00039   0.00000  -0.00842  -0.00815   2.68184
   D35        0.56887   0.00150   0.00000   0.02054   0.02041   0.58928
   D36       -0.67075   0.00153   0.00000   0.04574   0.04582  -0.62493
   D37        2.52089   0.00112   0.00000   0.03259   0.03284   2.55373
   D38        1.34319  -0.00117   0.00000   0.02009   0.02003   1.36322
   D39       -1.74836  -0.00157   0.00000   0.00693   0.00705  -1.74131
   D40       -2.82201   0.00164   0.00000   0.05332   0.05304  -2.76897
   D41        0.36962   0.00124   0.00000   0.04017   0.04006   0.40968
   D42       -0.64928   0.00009   0.00000   0.00281   0.00286  -0.64642
   D43       -2.77262   0.00025   0.00000   0.00480   0.00472  -2.76791
   D44        1.40500  -0.00052   0.00000  -0.00367  -0.00375   1.40125
   D45        1.39255  -0.00131   0.00000  -0.01626  -0.01634   1.37621
   D46       -0.73079  -0.00115   0.00000  -0.01428  -0.01448  -0.74528
   D47       -2.83636  -0.00192   0.00000  -0.02275  -0.02295  -2.85931
   D48       -2.79199   0.00120   0.00000   0.01074   0.01101  -2.78097
   D49        1.36786   0.00136   0.00000   0.01272   0.01287   1.38073
   D50       -0.73770   0.00059   0.00000   0.00426   0.00440  -0.73330
   D51        0.50411  -0.00025   0.00000   0.00994   0.00936   0.51347
   D52       -1.55529  -0.00079   0.00000  -0.00696  -0.00726  -1.56256
   D53        2.61835  -0.00204   0.00000  -0.01814  -0.01859   2.59976
   D54        2.63195   0.00032   0.00000   0.01023   0.00999   2.64194
   D55        0.57255  -0.00022   0.00000  -0.00667  -0.00663   0.56592
   D56       -1.53699  -0.00147   0.00000  -0.01784  -0.01796  -1.55495
   D57       -1.55091   0.00075   0.00000   0.01430   0.01406  -1.53684
   D58        2.67288   0.00021   0.00000  -0.00260  -0.00256   2.67032
   D59        0.56334  -0.00104   0.00000  -0.01377  -0.01389   0.54945
   D60       -3.13440  -0.00164   0.00000  -0.03772  -0.03745   3.11134
   D61        0.05236  -0.00119   0.00000  -0.04648  -0.04676   0.00560
         Item               Value     Threshold  Converged?
 Maximum Force            0.031943     0.000450     NO 
 RMS     Force            0.005145     0.000300     NO 
 Maximum Displacement     0.286425     0.001800     NO 
 RMS     Displacement     0.074470     0.001200     NO 
 Predicted change in Energy=-5.635357D-03
 GradGradGradGradGradGradGradGradGradGradGradGradGradGradGradGradGradGrad

                          Input orientation:                          
 ---------------------------------------------------------------------
 Center     Atomic      Atomic             Coordinates (Angstroms)
 Number     Number       Type             X           Y           Z
 ---------------------------------------------------------------------
      1          1           0        1.375647    1.467676   -0.759873
      2          6           0        1.989587    0.697231   -0.301600
      3          6           0        1.407729   -0.375278    0.244864
      4          7           0        0.068426   -0.642541    0.295655
      5          6           0       -0.924572    0.229695   -0.279901
      6          6           0       -2.191436   -0.631083   -0.271844
      7          6           0       -1.989047   -1.544837    0.939503
      8          6           0       -0.494815   -1.840026    0.912256
      9          1           0       -0.273677   -2.728887    0.311319
     10          1           0       -0.645369    0.549306   -1.285047
     11          6           0       -1.123344    1.468851    0.565968
     12          1           0       -2.218132   -1.214972   -1.191913
     13          1           0       -3.102949   -0.037335   -0.217356
     14          1           0       -2.589568   -2.450967    0.890905
     15          1           0       -2.245280   -1.013406    1.856532
     16          1           0       -0.091415   -1.993406    1.914428
     17          8           0       -1.077130    1.507608    1.768568
     18          8           0       -1.410215    2.549736   -0.184139
     19          1           0       -1.551414    3.296465    0.421663
     20          1           0        2.015421   -1.142645    0.716689
     21          6           0        3.473330    0.916437   -0.316320
     22          1           0        3.745035    1.837646    0.204697
     23          1           0        3.998737    0.092602    0.167981
     24          1           0        3.854454    1.001831   -1.336935
 ---------------------------------------------------------------------
                    Distance matrix (angstroms):
                    1          2          3          4          5
     1  H    0.000000
     2  C    1.086519   0.000000
     3  C    2.099287   1.336959   0.000000
     4  N    2.697403   2.417139   1.366653   0.000000
     5  C    2.655933   2.951506   2.465968   1.441564   0.000000
     6  C    4.167379   4.387056   3.645053   2.330057   1.531649
     7  C    4.825379   4.732520   3.659027   2.337066   2.401878
     8  C    4.151570   3.752782   2.492102   1.459934   2.426865
     9  H    4.634530   4.151665   2.893272   2.114267   3.086489
    10  H    2.281166   2.816389   2.722259   2.104429   1.091065
    11  C    2.828924   3.322411   3.148055   2.439541   1.513444
    12  H    4.505387   4.706813   3.989522   2.787272   2.142925
    13  H    4.755755   5.145932   4.546875   3.269110   2.195574
    14  H    5.814100   5.683475   4.550191   3.269505   3.365850
    15  H    5.110035   5.051527   4.043409   2.815513   2.802484
    16  H    4.613377   4.059665   2.766444   2.114430   3.232864
    17  O    3.522886   3.787752   3.470080   2.846913   2.419207
    18  O    3.043575   3.873529   4.084184   3.550663   2.372258
    19  H    3.648037   4.451720   4.719054   4.260930   3.207834
    20  H    3.066484   2.103028   1.086628   2.053816   3.394123
    21  C    2.213792   1.499920   2.500032   3.794508   4.451346
    22  H    2.584816   2.153713   3.218951   4.435882   4.962416
    23  H    3.103602   2.150061   2.634036   4.000509   4.945540
    24  H    2.587373   2.154629   3.222574   4.438842   4.955059
                    6          7          8          9         10
     6  C    0.000000
     7  C    1.530775   0.000000
     8  C    2.396280   1.523354   0.000000
     9  H    2.901494   2.176943   1.095492   0.000000
    10  H    2.193222   3.337593   3.249571   3.665118   0.000000
    11  C    2.500494   3.157734   3.385798   4.290429   2.121386
    12  H    1.090031   2.168923   2.790706   2.886616   2.365361
    13  H    1.089202   2.202650   3.365721   3.940651   2.742957
    14  H    2.196013   1.088144   2.182130   2.403437   4.185249
    15  H    2.163112   1.090420   2.153853   3.036079   3.856332
    16  H    3.323522   2.180069   1.091149   1.773164   4.124183
    17  O    3.158948   3.291863   3.504142   4.551593   3.229446
    18  O    3.276523   4.285224   4.616280   5.422274   2.408050
    19  H    4.039333   4.888547   5.266936   6.160329   3.358669
    20  H    4.351614   4.030777   2.612637   2.814331   3.734896
    21  C    5.872510   6.121480   4.985344   5.265205   4.246987
    22  H    6.446968   6.697822   5.657052   6.083966   4.811944
    23  H    6.247833   6.255398   4.947828   5.121999   4.887493
    24  H    6.352450   6.768619   5.661374   5.803143   4.522818
                   11         12         13         14         15
    11  C    0.000000
    12  H    3.389928   0.000000
    13  H    2.607878   1.766209   0.000000
    14  H    4.197662   2.450262   2.705074   0.000000
    15  H    3.014282   3.055222   2.447309   1.765658   0.000000
    16  H    3.856221   3.844248   4.176129   2.738198   2.367042
    17  O    1.204112   4.180763   3.230276   4.327595   2.779897
    18  O    1.346576   3.980121   3.091826   5.249155   4.190186
    19  H    1.882615   4.837479   3.732269   5.859260   4.595138
    20  H    4.085887   4.644455   5.319010   4.790405   4.412428
    21  C    4.713067   6.140220   6.645820   7.039569   6.414677
    22  H    4.895676   6.843125   7.112564   7.680512   6.836734
    23  H    5.318662   6.496809   7.113320   7.099163   6.562180
    24  H    5.349545   6.466186   7.123117   7.642677   7.173993
                   16         17         18         19         20
    16  H    0.000000
    17  O    3.640056   0.000000
    18  O    5.175264   2.238312   0.000000
    19  H    5.687062   2.288910   0.971873   0.000000
    20  H    2.568488   4.206443   5.116654   5.702197   0.000000
    21  C    5.113788   5.040131   5.151130   5.608671   2.726247
    22  H    5.684935   5.080147   5.218703   5.497962   3.483653
    23  H    4.912316   5.507136   5.951324   6.413522   2.400096
    24  H    5.925596   5.849828   5.607289   6.130368   3.492592
                   21         22         23         24
    21  C    0.000000
    22  H    1.092661   0.000000
    23  H    1.090552   1.763772   0.000000
    24  H    1.092796   1.757040   1.764168   0.000000
 Stoichiometry    C8H13NO2
 Framework group  C1[X(C8H13NO2)]
 Deg. of freedom    66
 Full point group                 C1      NOp   1
 Largest Abelian subgroup         C1      NOp   1
 Largest concise Abelian subgroup C1      NOp   1
                         Standard orientation:                         
 ---------------------------------------------------------------------
 Center     Atomic      Atomic             Coordinates (Angstroms)
 Number     Number       Type             X           Y           Z
 ---------------------------------------------------------------------
      1          1           0        1.945674    0.913770   -0.712088
      2          6           0        2.299768   -0.003476   -0.249704
      3          6           0        1.422254   -0.947363    0.105972
      4          7           0        0.065656   -0.905150   -0.054028
      5          6           0       -0.613585    0.204715   -0.674462
      6          6           0       -2.021863   -0.343600   -0.923565
      7          6           0       -2.212640   -1.353609    0.210788
      8          6           0       -0.831816   -1.979117    0.361360
      9          1           0       -0.717044   -2.855469   -0.285892
     10          1           0       -0.118980    0.514756   -1.596233
     11          6           0       -0.669287    1.400975    0.250942
     12          1           0       -2.030454   -0.847130   -1.890287
     13          1           0       -2.780765    0.437559   -0.938393
     14          1           0       -2.979589   -2.094231   -0.006763
     15          1           0       -2.487625   -0.836410    1.130518
     16          1           0       -0.632089   -2.282946    1.390147
     17          8           0       -0.803570    1.352631    1.446565
     18          8           0       -0.595651    2.563679   -0.424310
     19          1           0       -0.664817    3.283407    0.225109
     20          1           0        1.768880   -1.861046    0.581150
     21          6           0        3.779603   -0.127553   -0.038867
     22          1           0        4.159317    0.672976    0.600570
     23          1           0        4.032778   -1.078142    0.431862
     24          1           0        4.324287   -0.067343   -0.984328
 ---------------------------------------------------------------------
 Rotational constants (GHZ):           1.4193719           0.9056027           0.6503938
 Standard basis: def2TZVPP (5D, 7F)
 There are   591 symmetry adapted cartesian basis functions of A   symmetry.
 There are   523 symmetry adapted basis functions of A   symmetry.
   523 basis functions,   782 primitive gaussians,   591 cartesian basis functions
    42 alpha electrons       42 beta electrons
       nuclear repulsion energy       647.6696968249 Hartrees.
 NAtoms=   24 NActive=   24 NUniq=   24 SFac= 1.00D+00 NAtFMM=   60 NAOKFM=F Big=F
 Integral buffers will be    131072 words long.
 Raffenetti 2 integral format.
 Two-electron integral symmetry is turned on.
 Nuclear repulsion after empirical dispersion term =      647.6687601415 Hartrees.
 ------------------------------------------------------------------------------
 Polarizable Continuum Model (PCM)
 =================================
 Model                : PCM.
 Atomic radii         : SMD-Coulomb.
 Polarization charges : Total charges.
 Charge compensation  : None.
 Solution method      : On-the-fly selection.
 Cavity type          : VdW (van der Waals Surface) (Alpha=1.000).
 Cavity algorithm     : GePol (No added spheres)
                        Default sphere list used, NSphG=   24.
                        Lebedev-Laikov grids with approx.  5.0 points / Ang**2.
                        Smoothing algorithm: York/Karplus (Gamma=1.0000).
                        Polarization charges: spherical gaussians, with
                                              point-specific exponents (IZeta= 3).
                        Self-potential: point-specific (ISelfS= 7).
                        Self-field    : sphere-specific E.n sum rule (ISelfD= 2).
 1st derivatives      : Analytical E(r).r(x)/FMM algorithm (CHGder, D1EAlg=3).
                        Cavity 1st derivative terms included.
 Solvent              : Chloroform, Eps=   4.711300 Eps(inf)=   2.090627
 ------------------------------------------------------------------------------
 ------------------------------------------------------------------------------
 Atomic radii for non-electrostatic terms: SMD-CDS.
 ------------------------------------------------------------------------------
 Nuclear repulsion after PCM non-electrostatic terms =      647.6638416572 Hartrees.
 One-electron integrals computed using PRISM.
   1 Symmetry operations used in ECPInt.
 ECPInt:  NShTT=   19900 NPrTT=   52931 LenC2=   18823 LenP2D=   39699.
 LDataN:  DoStor=T MaxTD1= 6 Len=  172
 NBasis=   523 RedAO= T EigKep=  7.61D-05  NBF=   523
 NBsUse=   523 1.00D-06 EigRej= -1.00D+00 NBFU=   523
 Initial guess from the checkpoint file:  "/gpfs/summit/scratch/jvalegre@colostate.edu/1580876/Gau-170633.chk"
 B after Tr=    -0.000000   -0.000000   -0.000000
         Rot=    0.999073   -0.009593   -0.003735    0.041796 Ang=  -4.93 deg.
 ExpMin= 9.52D-02 ExpMax= 2.70D+04 ExpMxC= 9.22D+02 IAcc=2 IRadAn=         4 AccDes= 0.00D+00
 Harris functional with IExCor= 1009 and IRadAn=       4 diagonalized for initial guess.
 HarFok:  IExCor= 1009 AccDes= 0.00D+00 IRadAn=         4 IDoV= 1 UseB2=F ITyADJ=14
 ICtDFT=  3500011 ScaDFX=  1.000000  1.000000  1.000000  1.000000
 FoFCou: FMM=F IPFlag=           0 FMFlag=      100000 FMFlg1=           0
         NFxFlg=           0 DoJE=T BraDBF=F KetDBF=T FulRan=T
         wScrn=  0.000000 ICntrl=       500 IOpCl=  0 I1Cent=   200000004 NGrid=           0
         NMat0=    1 NMatS0=      1 NMatT0=    0 NMatD0=    1 NMtDS0=    0 NMtDT0=    0
 Petite list used in FoFCou.
 Requested convergence on RMS density matrix=1.00D-08 within 128 cycles.
 Requested convergence on MAX density matrix=1.00D-06.
 Requested convergence on             energy=1.00D-06.
 No special actions if energy rises.
 Inv3:  Mode=1 IEnd=     9644547.
 Iteration    1 A*A^-1 deviation from unit magnitude is 6.22D-15 for   1770.
[...]
 0.00036682,-0.00020275,-0.00021866,-0.00032410,0.00003758,-0.00008887,
 -0.00006626,0.00003955,0.00107112,-0.00124131,-0.00077489,-0.00018221,
 0.00000637,0.00204451,-0.00043378,0.00011852,0.09891826,0.00002978,0.0
 0013735,0.00013751,-0.00062865,-0.00075871,0.00010670,0.00394688,0.001
 41407,-0.00011531,0.00956275,-0.01304637,0.02792996,-0.00186562,-0.000
 72771,0.00342994,0.00008176,-0.00107409,0.00095404,0.00289116,-0.00107
 188,0.00333336,0.01252664,-0.05390232,0.02794572,-0.01035510,0.0046171
 5,-0.02255982,0.00089717,-0.00114284,0.00067410,0.00001820,0.00065883,
 0.00097302,0.00011972,-0.00012837,0.00027592,0.00025221,0.00011716,0.0
 0019479,0.00026138,-0.00013397,0.00006014,-0.00005760,0.00036365,0.000
 54532,-0.01720093,0.06491333,-0.00004711,-0.00007615,0.00009818,0.0008
 1282,0.00056763,-0.00029331,-0.00368805,-0.00046803,0.00057922,-0.0001
 9054,0.01075648,-0.00813026,0.00191905,-0.00125438,-0.00183758,0.00145
 615,-0.00009359,0.00067960,0.00255259,-0.00253491,0.00588297,-0.099942
 25,0.03379246,-0.26338203,-0.00910621,0.00102835,-0.01740285,-0.000437
 09,0.00058896,-0.00033676,0.00026069,-0.00030641,-0.00004749,0.0000568
 0,-0.00015291,0.00017131,0.00001720,-0.00023819,0.00017987,-0.00031325
 ,0.00040723,-0.00007054,-0.00011171,0.00027542,0.00117658,0.10612356,-
 0.04263558,0.28270971,-0.00020578,-0.00016854,-0.00079490,-0.00132480,
 0.00176970,0.00071002,-0.00164216,-0.00019491,0.00128055,0.00156721,-0
 .00220242,0.00324696,0.01925338,0.00416811,-0.00706521,-0.00058249,0.0
 0307500,0.00398219,-0.00023671,-0.00005795,0.00058103,-0.00019921,-0.0
 0099209,-0.00009059,-0.00000941,0.00007871,-0.00006525,0.00065424,-0.0
 0174156,-0.00024986,-0.09728286,-0.00372161,-0.11181494,0.00101490,0.0
 0073892,-0.00035336,0.00013287,0.00001394,0.00014297,0.00005981,-0.000
 09533,-0.00026450,-0.00000282,-0.00023207,-0.00035816,0.00002328,-0.00
 005301,-0.00014567,0.06792642,-0.00019467,-0.00019407,-0.00005892,0.00
 093010,0.00147184,-0.00020407,-0.00448858,-0.00288585,0.00044727,0.001
 47554,0.00110620,-0.00345891,-0.00029722,0.00800108,-0.03412797,0.0019
 1357,0.00062382,-0.00052887,-0.00089309,-0.00004190,0.00064479,0.00058
 112,0.00190936,-0.00022500,-0.00003403,-0.00035233,0.00001279,0.000802
 19,-0.00644516,-0.00441786,-0.00032981,-0.12104939,-0.06978900,-0.0008
 7880,-0.00067016,0.00019610,-0.00049658,0.00003710,0.00025591,-0.00002
 955,-0.00038264,-0.00011830,0.00001950,-0.00097868,-0.00054834,0.00006
 426,-0.00008134,0.00037891,-0.01204651,0.10141031,-0.00026885,-0.00026
 887,-0.00018501,0.00084496,0.00148504,-0.00075816,-0.00152796,-0.00222
 875,0.00076417,0.00138056,0.00299997,0.00486545,-0.01392818,-0.0071844
 7,-0.03571563,0.00495121,0.00018256,-0.00426683,-0.00022992,-0.0005340
 3,-0.00128556,0.00100631,-0.00009588,-0.00053983,-0.00026771,-0.000281
 05,0.00007803,0.00063145,-0.00513663,-0.00182712,-0.10329303,-0.093265
 63,-0.72882944,-0.00205108,-0.00170372,0.00090580,-0.00014792,0.000113
 95,0.00002050,0.00003995,-0.00014671,0.00096936,-0.00028700,-0.0003049
 6,0.00089963,0.00018394,-0.00067889,0.00008609,0.15066812,0.05375543,0
 .84825661,-0.00068443,0.00025194,-0.00039185,-0.00009107,-0.00032638,0
 .00022182,0.00110307,0.00042859,-0.00047696,-0.00083527,0.00211619,0.0
 0073218,0.00877535,0.01017872,-0.00717681,-0.00288088,0.00126517,0.001
 99145,0.00059071,0.00027935,-0.00027246,-0.00032912,-0.00040860,0.0002
 5590,0.00004384,0.00026854,-0.00003892,-0.00051387,-0.00045058,-0.0006
 8397,-0.09122563,0.06211103,-0.03526335,0.00091205,0.00057531,-0.00014
 804,0.00050018,-0.00050502,-0.00018288,-0.00003009,0.00025981,-0.00003
 684,-0.00021050,-0.00004752,0.00018097,0.00004105,0.00005170,-0.000074
 48,0.01431301,0.01772980,-0.04029787,0.09866450,0.00013482,-0.00035737
 ,-0.00002798,0.00106862,0.00152322,-0.00111653,-0.00703265,-0.00299678
 ,0.00131430,0.00663873,-0.00904946,-0.00186016,0.01443256,-0.02909223,
 0.01920426,0.00374636,0.00013270,-0.00035069,-0.00068210,-0.00061190,-
 0.00020117,0.00187119,0.00080683,-0.00102115,-0.00031528,-0.00098741,0
 .00014507,0.00117334,-0.00200939,0.00088336,0.06348259,-0.22656716,0.0
 5366939,-0.00105284,-0.00104792,0.00001804,-0.00017601,0.00008957,0.00
 008614,0.00005825,-0.00051178,0.00031569,0.00012287,0.00014557,-0.0002
 4854,0.00001415,-0.00032719,0.00015456,0.01674802,0.01077181,0.0586763
 8,-0.15515249,0.56774011,-0.00023489,-0.00002633,-0.00034606,0.0000192
 0,0.00067475,0.00009958,-0.00021905,-0.00050234,0.00020660,0.00071385,
 -0.00395226,0.00084876,0.00398414,-0.00987476,0.00957572,-0.00034163,-
 0.00050705,0.00017982,0.00030826,-0.00004061,-0.00054404,0.00063166,-0
 .00057938,-0.00021461,-0.00011747,-0.00015368,0.00012195,-0.00016292,0
 .00036692,0.00225997,-0.03184541,0.04417881,-0.15446808,0.00000855,-0.
 00000279,-0.00007087,0.00009144,-0.00013225,-0.00012483,-0.00005667,0.
 00008183,0.00022567,-0.00024040,-0.00006421,0.00036414,0.00005731,-0.0
 0026484,0.00003718,-0.04031785,0.05938147,-0.07904278,0.04013328,0.108
 27761,0.43917782,0.00011638,-0.00002662,0.00009704,-0.00010527,-0.0000
 2642,-0.00023579,0.00021056,-0.00000788,-0.00004163,-0.00009693,0.0000
 3006,-0.00012167,0.00378444,0.00200896,-0.00200925,-0.00000110,0.00075
 212,0.00066467,-0.00007770,-0.00005275,-0.00002129,0.00011263,0.000261
 46,-0.00003050,-0.00001127,-0.00002245,-0.00001669,-0.00016374,-0.0001
 6463,-0.00049864,-0.00119665,0.01952950,0.01007728,0.00010717,0.000123
 90,-0.00002868,0.00006650,0.00004245,-0.00004774,0.00002224,-0.0000252
 7,-0.00001532,0.00001832,-0.00000163,-0.00003291,-0.00000552,-0.000011
 36,0.00001345,-0.00334023,-0.00463983,0.00169797,-0.02791769,0.0537511
 2,0.02743017,0.02851126,0.00011679,0.00001853,-0.00011287,-0.00001740,
 -0.00000297,0.00009517,0.00003059,-0.00001363,-0.00001528,-0.00010607,
 -0.00097219,0.00006574,0.00320705,0.00050091,0.00468132,-0.00029965,0.
 00015830,0.00007971,0.00016982,0.00010169,-0.00000116,0.00018459,-0.00
 025477,-0.00029723,-0.00004859,-0.00005926,0.00006592,-0.00017352,0.00
 070308,-0.00030729,0.01258239,-0.04591136,-0.01758379,0.00001509,0.000
 19475,-0.00000199,-0.00024370,-0.00006627,-0.00003093,-0.00002872,0.00
 008351,-0.00001674,-0.00004502,-0.00003536,0.00008200,-0.00000951,-0.0
 0000239,-0.00003243,-0.00514934,0.00759547,-0.00525694,0.06133317,-0.3
 0811654,-0.19674364,-0.07147941,0.34600992,-0.00003178,0.00002903,0.00
 001905,-0.00001576,-0.00021830,0.00010240,0.00044383,0.00027127,-0.000
 12023,-0.00102092,0.00108291,0.00041837,-0.00143102,0.00191926,-0.0015
 4049,-0.00010543,-0.00008888,-0.00010750,0.00006033,0.00004167,0.00004
 577,-0.00011088,-0.00007217,0.00012915,0.00003661,0.00006291,-0.000014
 69,-0.00008794,0.00019754,0.00022343,-0.00287651,0.02089717,0.02314581
 ,0.00001833,0.00004664,0.00000643,-0.00003160,0.00000843,0.00000559,-0
 .00000837,0.00001848,-0.00001632,0.00001021,-0.00000426,0.00000109,-0.
 00001262,0.00001193,-0.00000654,0.00066443,-0.00149759,-0.00443274,0.0
 4155591,-0.23803676,-0.21839362,-0.03699489,0.21533351,0.20059100,-0.0
 0060107,-0.00288117,0.00059416,0.00872449,-0.00843979,0.00442790,-0.14
 039415,0.10528705,-0.06370187,-0.02382069,0.02472451,-0.01526461,-0.00
 248137,-0.00351548,0.00171547,-0.00089121,0.00113929,-0.00036443,0.000
 09388,0.00000395,-0.00004822,0.00069055,0.00171194,-0.00111390,-0.0002
 0975,-0.00036635,0.00000307,0.00004031,0.00008744,-0.00013216,0.000040
 43,-0.00106975,-0.00079556,-0.00007423,-0.00006994,-0.00002474,-0.0004
 0680,-0.00035149,-0.00000741,0.00000375,-0.00005184,0.00005565,0.00004
 152,-0.00000856,0.00001788,-0.00009658,-0.00029898,0.00054520,-0.00003
 332,0.00034349,0.00049030,-0.00010583,0.00055623,0.00009801,0.00001120
 ,-0.00000303,-0.00002760,0.15797603,-0.00251779,-0.00095298,0.00505843
 ,0.01467629,-0.01452115,0.01280620,0.11026635,-0.19482165,0.08992951,-
 0.00414206,0.00656343,-0.00240110,-0.00186365,0.00142216,0.00127359,-0
 .00045530,0.00004472,0.00000740,0.00009848,0.00009830,-0.00018916,-0.0
 0123027,0.00024128,-0.00030943,0.00027392,0.00006624,-0.00027566,0.000
 24131,-0.00017373,0.00003881,-0.00038631,0.00001627,0.00002923,0.00002
 016,0.00001219,-0.00000916,-0.00010952,-0.00002104,-0.00007558,0.00002
 187,-0.00000858,-0.00000226,0.00003698,-0.00001164,-0.00001316,-0.0000
 0408,0.00038730,-0.00029985,-0.00002928,-0.00004126,-0.00008582,0.0000
 0220,0.00006157,-0.00005501,0.00000068,0.00001240,0.00000297,-0.115653
 26,0.20176029,0.00036680,0.00498547,0.00663040,-0.00764877,0.01044232,
 0.00169184,-0.06648009,0.08971845,-0.09480938,-0.00021354,0.00030274,0
 .00195359,0.00048206,0.00108403,0.00298017,0.00026294,-0.00011474,0.00
 020816,-0.00010681,-0.00002601,-0.00002885,0.00119370,-0.00060933,-0.0
 0029564,-0.00017061,-0.00031958,-0.00002306,0.00041068,-0.00012232,0.0
 0010386,-0.00040719,0.00012428,-0.00029393,-0.00000465,0.00000258,-0.0
 0000641,0.00002621,0.00001759,0.00004643,-0.00000914,-0.00002293,0.000
 02373,0.00002352,-0.00000629,-0.00001473,-0.00016155,-0.00012137,-0.00
 004223,-0.00009885,0.00002714,0.00005181,-0.00010944,0.00020568,0.0000
 2964,0.00005516,-0.00001281,-0.00003432,0.07226885,-0.10218877,0.08662
 393,-0.01343091,-0.00390698,0.00076343,-0.23303807,-0.02241457,-0.0034
 8734,-0.01912239,-0.00735862,0.00238530,0.00403068,0.00070952,-0.00087
 878,-0.00063162,0.00036719,-0.00042991,-0.00007621,-0.00003105,-0.0000
 3723,-0.00005572,0.00006984,0.00002400,-0.00007396,-0.00020607,-0.0001
 3497,0.00001163,0.00012946,-0.00000688,-0.00010095,-0.00009611,0.00017
 922,-0.00011854,0.00023737,0.00000794,-0.00000112,0.00000840,0.0000028
 6,0.00002624,-0.00000571,0.00000256,0.00005814,0.00002915,-0.00000052,
 -0.00000820,-0.00001608,0.00000185,0.00007184,0.00007576,-0.00007129,0
 .00014912,-0.00012219,-0.00004682,0.00007492,-0.00030076,0.00002999,-0
 .00002083,0.00002698,0.00001496,0.00127822,0.00181148,-0.00020436,0.49
 915689,0.02165068,0.00558208,-0.00045027,-0.01683082,-0.08386973,0.010
 25433,-0.02472744,-0.00244722,-0.00224224,-0.00468628,-0.00198262,0.00
 537637,0.00135853,-0.00129043,0.00147755,-0.00020930,0.00012956,-0.000
 10034,0.00000788,-0.00044359,0.00007188,-0.00064779,0.00191299,0.00061
 308,0.00016918,-0.00015500,-0.00015550,0.00033206,0.00018742,-0.000630
 38,-0.00085937,-0.00017732,0.00027389,0.00001151,0.00002882,-0.0000325
 7,-0.00006612,-0.00001719,-0.00001169,-0.00022600,0.00002343,-0.000038
 83,-0.00000158,0.00001381,0.00000739,-0.00017318,-0.00020467,0.0001576
 8,0.00014709,0.00013455,-0.00009140,0.00002799,0.00035822,-0.00007085,
 -0.00003511,0.00006975,-0.00000308,-0.00136279,-0.00066256,-0.00325667
 ,-0.01212173,0.56718053,-0.01241077,-0.00235394,0.00175430,-0.00653544
 ,0.00968854,-0.06672362,0.01172129,-0.00063920,-0.00085730,0.00191768,
 0.00642054,0.00592807,-0.00083942,0.00040309,0.00009962,0.00009092,-0.
 00006978,0.00010266,-0.00011386,-0.00025713,-0.00002503,-0.00017159,0.
 00061677,0.00296135,0.00038570,0.00051436,-0.00032754,0.00059583,-0.00
 000562,0.00020175,-0.00065847,-0.00000285,-0.00057521,-0.00000621,0.00
 001575,-0.00001542,0.00004599,-0.00002790,0.00000828,-0.00001693,-0.00
 004425,-0.00000883,0.00005138,0.00000439,-0.00001143,-0.00038582,-0.00
 019389,-0.00010175,0.00036085,-0.00015715,-0.00000865,0.00007087,-0.00
 018908,0.00009705,0.00006765,0.00001319,-0.00001855,0.00143634,-0.0030
 2054,-0.00513872,0.00270051,-0.01584688,0.54649656,0.00086095,0.001021
 64,0.00041138,-0.01106404,-0.03085708,-0.01321820,0.00027655,0.0019731
 3,-0.00357731,-0.00464962,-0.00084124,0.00197682,0.00084119,-0.0010485
 2,0.00063265,0.00001356,0.00011038,0.00005436,0.00000470,-0.00024431,-
 0.00000696,0.00000229,0.00128253,0.00016343,0.00006640,-0.00021103,-0.
 00004820,0.00008892,0.00015701,-0.00020461,-0.00010703,-0.00043102,-0.
 00031152,-0.00000023,0.00000093,-0.00001888,-0.00007744,-0.00001475,0.
 00000031,-0.00012218,-0.00001879,0.00000213,0.00000143,0.00001352,0.00
 001080,-0.00007878,-0.00016274,0.00015360,0.00002112,0.00028975,0.0002
 1953,-0.00002966,0.00040696,0.00003219,-0.00003811,-0.00001233,-0.0000
 2272,0.00006697,-0.00043558,-0.00070665,-0.05806240,-0.04864753,-0.031
 45549,0.06690510,-0.00053942,0.00025907,0.00010280,-0.00389718,-0.0020
 4664,0.00086721,-0.00048987,0.00100265,-0.00122545,-0.00062692,-0.0000
 7644,0.00036336,0.00013058,-0.00010919,0.00024384,0.00000815,0.0000103
 3,0.00002010,-0.00002050,-0.00005052,-0.00000438,0.00000845,0.00014778
 ,-0.00006379,0.00000142,-0.00003432,0.00000947,0.00003656,0.00001657,0
 .00001354,0.00003787,-0.00010094,-0.00013398,-0.00000236,-0.00000504,-
 0.00000075,-0.00001760,-0.00000261,-0.00000411,-0.00002175,-0.00000415
 ,0.00000922,-0.00000664,0.00000958,0.00000387,-0.00002947,-0.00003317,
 0.00001750,-0.00003932,0.00007366,0.00009685,-0.00001329,0.00008218,0.
 00003134,0.00000483,-0.00000809,-0.00000838,-0.00003646,-0.00016433,-0
 .00062022,-0.04683284,-0.22820569,-0.10952103,0.05645796,0.24575567,-0
 .00027280,-0.00007929,0.00001663,-0.00014786,0.00231565,0.00252409,0.0
 0132074,0.00100988,0.00007609,-0.00088507,-0.00040408,-0.00047490,0.00
 019012,-0.00023748,0.00006822,0.00001699,0.00002954,0.00001062,0.00001
 825,-0.00001147,-0.00000296,0.00008707,0.00020910,-0.00010059,-0.00000
 430,-0.00006390,0.00000953,-0.00002234,0.00003519,-0.00003197,0.000051
 04,-0.00013150,0.00009888,0.00000318,-0.00000153,-0.00000242,-0.000017
 82,0.00000085,0.00000361,-0.00001213,-0.00000556,0.00000143,0.00000039
 ,0.00000162,0.00000141,0.00000834,-0.00001337,0.00004343,-0.00007121,0
 .00005032,-0.00002919,-0.00001301,0.00015271,-0.00004914,-0.00000967,-
 0.00001525,0.00000396,0.00003490,0.00009747,0.00030387,-0.03086628,-0.
 11027415,-0.11292219,0.03237719,0.12121340,0.11886172,-0.00548376,-0.0
 0169622,0.00033898,-0.01651736,0.02572594,-0.01452064,0.00244701,0.002
 22047,-0.00103795,-0.00093574,-0.00035746,0.00013376,0.00000033,-0.000
 10321,-0.00006195,0.00012796,-0.00000057,0.00007630,-0.00003623,-0.000
 04098,-0.00001572,0.00012290,0.00024258,-0.00013275,-0.00000407,-0.000
 09682,0.00000269,-0.00003612,0.00002417,0.00013092,0.00020403,-0.00011
 019,-0.00027437,-0.00001164,-0.00001291,-0.00000222,-0.00001438,-0.000
 00305,0.00000768,-0.00000659,-0.00002027,0.00001777,0.00000465,0.00000
 189,0.00000182,-0.00000379,-0.00004049,0.00006834,-0.00003514,0.000063
 70,0.00013169,-0.00004942,0.00006703,0.00004825,0.00002223,-0.00002554
 ,-0.00001391,0.00021266,-0.00093874,0.00047975,-0.10269084,0.09398206,
 -0.05333285,0.00292756,-0.00553790,0.00441289,0.11460209,-0.00120694,0
 .00085498,0.00025980,-0.00186540,0.00382340,-0.00267707,-0.00228892,0.
 00051278,-0.00049094,0.00057132,0.00040343,-0.00029947,-0.00025028,-0.
 00000374,-0.00002229,-0.00004340,0.00002087,-0.00001000,0.00000412,0.0
 0003604,0.00000013,0.00001917,-0.00016847,0.00009482,0.00000159,0.0000
 4684,-0.00000508,0.00003653,-0.00003214,0.00001653,-0.00001955,-0.0000
 1692,0.00007379,0.00000206,0.00000182,0.00000050,-0.00000057,-0.000009
 15,0.00000192,0.00001825,0.00000215,-0.00000155,0.00000345,-0.00000428
 ,-0.00000177,-0.00000314,0.00001686,-0.00002479,0.00002387,-0.00001625
 ,-0.00006097,0.00003267,-0.00001235,-0.00003034,-0.00002160,-0.0000008
 3,0.00000934,0.00040951,0.00027490,-0.00002055,0.09638729,-0.20750230,
 0.09138662,0.01163347,-0.01916395,0.01234749,-0.10353785,0.22268753,0.
 00001019,0.00018887,0.00138375,-0.00040584,-0.00024056,-0.00096430,0.0
 0139590,-0.00012134,0.00011499,-0.00033352,-0.00032670,-0.00007581,0.0
 0010695,-0.00001764,0.00006512,0.00002662,0.00000324,0.00001959,-0.000
 00341,-0.00002096,-0.00000676,0.00000453,0.00010580,-0.00002883,-0.000
 00386,-0.00003902,-0.00000728,0.00003216,0.00003632,-0.00002269,-0.000
 01327,-0.00003787,-0.00003110,-0.00000249,-0.00000141,-0.00000337,-0.0
 0000420,0.00000082,0.00000001,-0.00000894,-0.00000502,0.00000356,0.000
 00292,-0.00000115,-0.00000033,-0.00000019,-0.00000454,0.00001243,-0.00
 000646,0.00001536,0.00000049,-0.00001284,0.00003426,0.00000351,0.00000
 942,-0.00000462,-0.00000603,-0.00025380,-0.00014204,0.00017299,-0.0545
 7060,0.09119394,-0.09812499,0.00859625,-0.01263017,0.00782988,0.059507
 51,-0.10096461,0.10143455,0.00089393,0.00028726,-0.00095232,-0.0149274
 2,-0.00827709,0.03016861,-0.00000472,0.00419398,0.00011199,-0.00457377
 ,-0.00255450,-0.00082742,0.00086145,-0.00084738,0.00073965,0.00004088,
 0.00009449,0.00003034,0.00003952,-0.00005263,-0.00002823,0.00024792,0.
 00060480,-0.00121078,-0.00011307,-0.00041505,0.00010591,-0.00013570,0.
 00012691,-0.00018202,0.00032049,-0.00032817,0.00000026,-0.00001435,-0.
 00002446,-0.00001084,-0.00007451,-0.00000098,-0.00000302,-0.00007153,-
 0.00001228,0.00001555,-0.00001355,0.00001098,0.00000621,0.00007319,-0.
 00004063,0.00014820,-0.00022041,0.00023783,0.00010036,-0.00011522,0.00
 043930,-0.00005003,-0.00000788,-0.00002465,-0.00001266,-0.00006503,0.0
 0031614,0.00075199,-0.07742592,-0.00709194,0.08648189,0.00215276,0.001
 42571,-0.00619863,0.00515366,0.00009435,-0.01407301,0.08797930,-0.0000
 0815,0.00011566,-0.00025760,-0.00358280,-0.00134976,0.00521884,-0.0014
 7746,0.00068990,0.00051387,0.00017508,-0.00049314,-0.00059115,-0.00004
 353,-0.00007293,-0.00013448,-0.00002548,0.00003642,0.00001446,-0.00001
 354,-0.00001144,-0.00000169,-0.00005030,-0.00002785,-0.00004774,-0.000
 03303,-0.00000576,0.00002024,-0.00000497,0.00002013,0.00002018,0.00008
 559,-0.00000269,-0.00000270,-0.00000230,-0.00000455,-0.00000221,-0.000
 01244,-0.00000738,-0.00000125,-0.00000476,0.00000152,0.00000643,-0.000
 00098,0.00000055,-0.00000031,0.00002116,0.00000930,-0.00000798,-0.0000
 3942,0.00000382,0.00001454,-0.00000830,-0.00002429,0.00000758,0.000009
 86,-0.00000464,-0.00000362,-0.00015453,0.00041784,0.00053133,-0.006439
 72,-0.04866284,0.02326600,0.00957764,0.00264758,-0.02622565,-0.0098056
 3,-0.00175120,0.02297903,0.01183799,0.04847578,0.00070674,0.00006003,0
 .00010257,0.00077591,0.00101319,0.00573005,-0.00027888,-0.00100602,0.0
 0057198,0.00040682,-0.00006682,-0.00024450,-0.00010047,0.00019341,-0.0
 0003146,0.00000155,-0.00003014,-0.00001659,0.00000391,0.00003373,0.000
 01030,-0.00003704,-0.00015162,-0.00000440,0.00001003,0.00003043,0.0000
 0266,-0.00003483,-0.00002091,0.00004173,-0.00011006,0.00009273,-0.0000
 2519,0.00000244,0.00000522,0.00000495,0.00001655,0.00000525,-0.0000003
 0,0.00001778,0.00000677,-0.00000400,-0.00000423,-0.00000267,-0.0000007
 4,0.00000409,0.00001515,-0.00000524,0.00005969,-0.00003350,0.00002299,
 0.00003734,-0.00008538,0.00002660,-0.00000813,0.00001640,-0.00000102,0
 .00004657,-0.00017607,-0.00013316,0.08462235,0.02377877,-0.27279041,0.
 00493989,0.00121976,-0.01623999,0.00403399,0.00041843,-0.01176938,-0.0
 9511198,-0.02531613,0.29475257\\-0.00000243,0.00000736,0.00000812,-0.0
 0000049,-0.00001224,0.00000594,0.00001418,0.00001582,-0.00000211,-0.00
 000593,-0.00000713,-0.00003438,-0.00001758,0.00000658,0.00002578,-0.00
 000624,0.00001425,-0.00000365,0.00001202,-0.00001250,-0.00001895,-0.00
 000951,-0.00000152,0.00002245,0.00000344,0.00000378,-0.00000865,0.0000
 0590,0.00001362,0.00000502,0.00003278,-0.00006677,0.00001158,0.0000054
 9,-0.00000068,-0.00000152,0.00000488,-0.00000572,-0.00000174,0.0000025
 8,-0.00000163,0.00000945,-0.00000072,-0.00000075,0.00000359,-0.0000026
 6,-0.00000247,-0.00000652,-0.00000750,0.00001044,0.00000837,-0.0000224
 5,0.00003385,-0.00002024,0.00000062,-0.00000685,0.00000421,-0.00000465
 ,-0.00000490,-0.00000609,0.00000793,0.00000912,-0.00000397,-0.00000310
 ,0.00000308,0.00000060,-0.00000224,0.00000425,-0.00000093,-0.00000431,
 0.00000101,0.00000364\\\@


 MUD THROWN IS GROUND LOST -- FROM A TEA BAG
 Job cpu time:       0 days 10 hours 15 minutes  4.6 seconds.
 Elapsed time:       0 days  0 hours 25 minutes 40.8 seconds.
 File lengths (MBytes):  RWF=   1160 Int=      0 D2E=      0 Chk=     40 Scr=     16
 Normal termination of Gaussian 16 at Mon Dec 31 18:39:21 2018.
