Job Start Time: Tue Jul 24 18:04:44 MDT 2018
SLURM Job ID: 1112565
SLURM Job Name: TS_ROanti8_2_maxstep10
 Entering Gaussian System, Link 0=/projects/jvalegre@colostate.edu/g16/g16
 Initial command:
 /projects/jvalegre@colostate.edu/g16/l1.exe "/gpfs/summit/scratch/jvalegre@colostate.edu/1112565/Gau-194152.inp" -scrdir="/gpfs/summit/scratch/jvalegre@colostate.edu/1112565/"
 Entering Link 1 = /projects/jvalegre@colostate.edu/g16/l1.exe PID=    194153.
  
 Copyright (c) 1988,1990,1992,1993,1995,1998,2003,2009,2016,
            Gaussian, Inc.  All Rights Reserved.
  
 This is part of the Gaussian(R) 16 program.  It is based on
 the Gaussian(R) 09 system (copyright 2009, Gaussian, Inc.),
 the Gaussian(R) 03 system (copyright 2003, Gaussian, Inc.),
 the Gaussian(R) 98 system (copyright 1998, Gaussian, Inc.),
 the Gaussian(R) 94 system (copyright 1995, Gaussian, Inc.),
 the Gaussian 92(TM) system (copyright 1992, Gaussian, Inc.),
 the Gaussian 90(TM) system (copyright 1990, Gaussian, Inc.),
 the Gaussian 88(TM) system (copyright 1988, Gaussian, Inc.),
 the Gaussian 86(TM) system (copyright 1986, Carnegie Mellon
 University), and the Gaussian 82(TM) system (copyright 1983,
 Carnegie Mellon University). Gaussian is a federally registered
 trademark of Gaussian, Inc.
  
 This software contains proprietary and confidential information,
 including trade secrets, belonging to Gaussian, Inc.
  
 This software is provided under written license and may be
 used, copied, transmitted, or stored only in accord with that
 written license.
  
 The following legend is applicable only to US Government
 contracts under FAR:
  
                    RESTRICTED RIGHTS LEGEND
  
 Use, reproduction and disclosure by the US Government is
 subject to restrictions as set forth in subparagraphs (a)
 and (c) of the Commercial Computer Software - Restricted
 Rights clause in FAR 52.227-19.
  
 Gaussian, Inc.
 340 Quinnipiac St., Bldg. 40, Wallingford CT 06492
  
  
 ---------------------------------------------------------------
 Warning -- This program may not be used in any manner that
 competes with the business of Gaussian, Inc. or will provide
 assistance to any competitor of Gaussian, Inc.  The licensee
 of this program is prohibited from giving any competitor of
 Gaussian, Inc. access to this program.  By using this program,
 the user acknowledges that Gaussian, Inc. is engaged in the
 business of creating and licensing software in the field of
 computational chemistry and represents and warrants to the
 licensee that it is not a competitor of Gaussian, Inc. and that
 it will not use this program in any manner prohibited above.
 ---------------------------------------------------------------
  

 Cite this work as:
 Gaussian 16, Revision A.03,
 M. J. Frisch, G. W. Trucks, H. B. Schlegel, G. E. Scuseria, 
 M. A. Robb, J. R. Cheeseman, G. Scalmani, V. Barone, 
 G. A. Petersson, H. Nakatsuji, X. Li, M. Caricato, A. V. Marenich, 
 J. Bloino, B. G. Janesko, R. Gomperts, B. Mennucci, H. P. Hratchian, 
 J. V. Ortiz, A. F. Izmaylov, J. L. Sonnenberg, D. Williams-Young, 
 F. Ding, F. Lipparini, F. Egidi, J. Goings, B. Peng, A. Petrone, 
 T. Henderson, D. Ranasinghe, V. G. Zakrzewski, J. Gao, N. Rega, 
 G. Zheng, W. Liang, M. Hada, M. Ehara, K. Toyota, R. Fukuda, 
 J. Hasegawa, M. Ishida, T. Nakajima, Y. Honda, O. Kitao, H. Nakai, 
 T. Vreven, K. Throssell, J. A. Montgomery, Jr., J. E. Peralta, 
 F. Ogliaro, M. J. Bearpark, J. J. Heyd, E. N. Brothers, K. N. Kudin, 
 V. N. Staroverov, T. A. Keith, R. Kobayashi, J. Normand, 
 K. Raghavachari, A. P. Rendell, J. C. Burant, S. S. Iyengar, 
 J. Tomasi, M. Cossi, J. M. Millam, M. Klene, C. Adamo, R. Cammi, 
 J. W. Ochterski, R. L. Martin, K. Morokuma, O. Farkas, 
 J. B. Foresman, and D. J. Fox, Gaussian, Inc., Wallingford CT, 2016.
 
 ******************************************
 Gaussian 16:  ES64L-G16RevA.03 25-Dec-2016
                24-Jul-2018 
 ******************************************
 %chk=ku800ddg.chk
 %nprocshared=24
 Will use up to   24 processors via shared memory.
 %mem=98GB
 ----------------------------------------------------------------------
 # opt=(calcfc,ts,recalc=2,noeigentest,maxcycles=200,maxstep=10) freq=n
 oraman scrf=(solvent=Chloroform,smd) def2tzvpp empiricaldispersion=gd3
  m062x
 ----------------------------------------------------------------------
 1/5=1,6=200,8=10,10=4,11=1,18=20,26=3,38=1,71=2/1,3;
 2/9=110,12=2,17=6,18=5,40=1/2;
 3/5=44,7=202,11=2,25=1,30=1,70=32201,71=2,72=7,74=-55,124=31,140=1/1,2,3;
 4//1;
 5/5=2,38=5,53=7/2;
 8/6=4,10=90,11=11/1;
 11/6=1,8=1,9=11,15=111,16=1/1,2,10;
 10/6=1,13=1/2;
 6/7=2,8=2,9=2,10=2,28=1/1;
 7/10=1,18=20,25=1/1,2,3,16;
 1/5=1,6=200,8=10,10=4,11=1,18=20,26=3,71=2/3(2);
 2/9=110/2;
 99//99;
 2/9=110/2;
 3/5=44,7=202,11=2,25=1,30=1,70=32205,71=1,72=7,74=-55,124=31/1,2,3;
 4/5=5,16=3,69=1/1;
 5/5=2,38=5,53=7/2;
 7//1,2,3,16;
 1/5=1,6=200,8=10,11=1,18=20,26=3,71=2/3(-5);
 2/9=110/2;
 6/7=2,8=2,9=2,10=2,19=2,28=1/1;
 99/9=1/99;
 -------------------
 Title Card Required
 -------------------
 Symbolic Z-matrix:
 Charge =  0 Multiplicity = 1
 H                    -0.11793   2.45699   1.26575 
 C                     0.60754   2.66807   0.48591 
 C                     1.55111   1.70551   0.16773 
 N                     1.52998   0.43888   0.59081 
 C                     2.4661   -0.59565   0.12247 
 C                     2.63442  -1.49372   1.35035 
 C                     1.23071  -1.47096   1.976 
 C                     0.76559  -0.02039   1.77226 
 H                    -0.31247   0.06681   1.60375 
 H                     3.3976   -0.11095  -0.1888 
 C                     1.96734  -1.41687  -1.16331 
 H                     2.95555  -2.48749   1.03841 
 H                     3.37251  -1.07248   2.04475 
 H                     1.21624  -1.75501   3.03192 
 H                     0.57091  -2.15603   1.43293 
 H                     1.03009   0.62127   2.62274 
 O                     2.43188  -2.55347  -1.24362 
 O                     1.2207   -0.79232  -1.98046 
 H                     0.07999   0.12568  -1.63335 
 O                    -0.60988   1.95925  -1.15512 
 N                    -0.74998   0.70275  -1.24047 
 H                    -4.5839    0.5498    1.27285 
 H                    -2.9441   -3.14109  -0.2199 
 H                    -4.69088  -1.9236    1.06622 
 C                    -1.80141   0.03534  -0.6054 
 C                    -3.87794  -1.37479   0.59964 
 C                    -1.85309  -1.36635  -0.72914 
 C                    -2.78476   0.73267   0.11561 
 C                    -3.81704   0.01785   0.71654 
 C                    -2.89559  -2.06022  -0.12448 
 H                    -1.08364  -1.87656  -1.30161 
 H                    -2.73024   1.81379   0.17398 
 H                     2.29582   1.92286  -0.59368 
 C                     0.72452   4.08662   0.02512 
 H                    -0.2259    4.42353  -0.40651 
 H                     0.96521   4.76267   0.85661 
 H                     1.49863   4.19803  -0.74063 
 
 Add virtual bond connecting atoms H19        and O18        Dist= 2.84D+00.

 GradGradGradGradGradGradGradGradGradGradGradGradGradGradGradGradGradGrad
 Berny optimization.
 Initialization pass.
                           ----------------------------
                           !    Initial Parameters    !
                           ! (Angstroms and Degrees)  !
 --------------------------                            --------------------------
 ! Name  Definition              Value          Derivative Info.                !
 --------------------------------------------------------------------------------
 ! R1    R(1,2)                  1.0858         calculate D2E/DX2 analytically  !
 ! R2    R(2,3)                  1.3849         calculate D2E/DX2 analytically  !
 ! R3    R(2,34)                 1.4961         calculate D2E/DX2 analytically  !
 ! R4    R(3,4)                  1.3356         calculate D2E/DX2 analytically  !
 ! R5    R(3,33)                 1.087          calculate D2E/DX2 analytically  !
 ! R6    R(4,5)                  1.4717         calculate D2E/DX2 analytically  !
 ! R7    R(4,8)                  1.4802         calculate D2E/DX2 analytically  !
 ! R8    R(5,6)                  1.5305         calculate D2E/DX2 analytically  !
 ! R9    R(5,10)                 1.0952         calculate D2E/DX2 analytically  !
 ! R10   R(5,11)                 1.6051         calculate D2E/DX2 analytically  !
 ! R11   R(6,7)                  1.537          calculate D2E/DX2 analytically  !
 ! R12   R(6,12)                 1.09           calculate D2E/DX2 analytically  !
 ! R13   R(6,13)                 1.0975         calculate D2E/DX2 analytically  !
 ! R14   R(7,8)                  1.5369         calculate D2E/DX2 analytically  !
 ! R15   R(7,14)                 1.0936         calculate D2E/DX2 analytically  !
 ! R16   R(7,15)                 1.0953         calculate D2E/DX2 analytically  !
 ! R17   R(8,9)                  1.0946         calculate D2E/DX2 analytically  !
 ! R18   R(8,16)                 1.0977         calculate D2E/DX2 analytically  !
 ! R19   R(11,17)                1.2305         calculate D2E/DX2 analytically  !
 ! R20   R(11,18)                1.2709         calculate D2E/DX2 analytically  !
 ! R21   R(18,19)                1.5048         calculate D2E/DX2 analytically  !
 ! R22   R(19,21)                1.0845         calculate D2E/DX2 analytically  !
 ! R23   R(20,21)                1.2672         calculate D2E/DX2 analytically  !
 ! R24   R(21,25)                1.3979         calculate D2E/DX2 analytically  !
 ! R25   R(22,29)                1.0865         calculate D2E/DX2 analytically  !
 ! R26   R(23,30)                1.0862         calculate D2E/DX2 analytically  !
 ! R27   R(24,26)                1.0862         calculate D2E/DX2 analytically  !
 ! R28   R(25,27)                1.4081         calculate D2E/DX2 analytically  !
 ! R29   R(25,28)                1.4047         calculate D2E/DX2 analytically  !
 ! R30   R(26,29)                1.3989         calculate D2E/DX2 analytically  !
 ! R31   R(26,30)                1.3997         calculate D2E/DX2 analytically  !
 ! R32   R(27,30)                1.3906         calculate D2E/DX2 analytically  !
 ! R33   R(27,31)                1.0863         calculate D2E/DX2 analytically  !
 ! R34   R(28,29)                1.392          calculate D2E/DX2 analytically  !
 ! R35   R(28,32)                1.0841         calculate D2E/DX2 analytically  !
 ! R36   R(34,35)                1.0969         calculate D2E/DX2 analytically  !
 ! R37   R(34,36)                1.0983         calculate D2E/DX2 analytically  !
 ! R38   R(34,37)                1.0945         calculate D2E/DX2 analytically  !
 ! A1    A(1,2,3)              119.0182         calculate D2E/DX2 analytically  !
 ! A2    A(1,2,34)             117.2429         calculate D2E/DX2 analytically  !
 ! A3    A(3,2,34)             122.3415         calculate D2E/DX2 analytically  !
 ! A4    A(2,3,4)              125.1402         calculate D2E/DX2 analytically  !
 ! A5    A(2,3,33)             119.2559         calculate D2E/DX2 analytically  !
 ! A6    A(4,3,33)             114.9838         calculate D2E/DX2 analytically  !
 ! A7    A(3,4,5)              123.7644         calculate D2E/DX2 analytically  !
 ! A8    A(3,4,8)              123.7285         calculate D2E/DX2 analytically  !
 ! A9    A(5,4,8)              111.3688         calculate D2E/DX2 analytically  !
 ! A10   A(4,5,6)              103.1271         calculate D2E/DX2 analytically  !
 ! A11   A(4,5,10)             108.6833         calculate D2E/DX2 analytically  !
 ! A12   A(4,5,11)             114.6398         calculate D2E/DX2 analytically  !
 ! A13   A(6,5,10)             113.2129         calculate D2E/DX2 analytically  !
 ! A14   A(6,5,11)             112.1242         calculate D2E/DX2 analytically  !
 ! A15   A(10,5,11)            105.2511         calculate D2E/DX2 analytically  !
 ! A16   A(5,6,7)              102.5589         calculate D2E/DX2 analytically  !
 ! A17   A(5,6,12)             109.7419         calculate D2E/DX2 analytically  !
 ! A18   A(5,6,13)             110.8771         calculate D2E/DX2 analytically  !
 ! A19   A(7,6,12)             113.5197         calculate D2E/DX2 analytically  !
 ! A20   A(7,6,13)             110.5469         calculate D2E/DX2 analytically  !
 ! A21   A(12,6,13)            109.4449         calculate D2E/DX2 analytically  !
 ! A22   A(6,7,8)              103.6743         calculate D2E/DX2 analytically  !
 ! A23   A(6,7,14)             113.6592         calculate D2E/DX2 analytically  !
 ! A24   A(6,7,15)             109.8209         calculate D2E/DX2 analytically  !
 ! A25   A(8,7,14)             111.6642         calculate D2E/DX2 analytically  !
 ! A26   A(8,7,15)             110.0176         calculate D2E/DX2 analytically  !
 ! A27   A(14,7,15)            107.9588         calculate D2E/DX2 analytically  !
 ! A28   A(4,8,7)              104.0267         calculate D2E/DX2 analytically  !
 ! A29   A(4,8,9)              111.1616         calculate D2E/DX2 analytically  !
 ! A30   A(4,8,16)             108.2157         calculate D2E/DX2 analytically  !
 ! A31   A(7,8,9)              113.1821         calculate D2E/DX2 analytically  !
 ! A32   A(7,8,16)             112.0905         calculate D2E/DX2 analytically  !
 ! A33   A(9,8,16)             108.06           calculate D2E/DX2 analytically  !
 ! A34   A(5,11,17)            114.0518         calculate D2E/DX2 analytically  !
 ! A35   A(5,11,18)            116.4981         calculate D2E/DX2 analytically  !
 ! A36   A(17,11,18)           129.3261         calculate D2E/DX2 analytically  !
 ! A37   A(11,18,19)           126.6412         calculate D2E/DX2 analytically  !
 ! A38   A(19,21,20)           117.8661         calculate D2E/DX2 analytically  !
 ! A39   A(19,21,25)           119.0855         calculate D2E/DX2 analytically  !
 ! A40   A(20,21,25)           121.733          calculate D2E/DX2 analytically  !
 ! A41   A(21,25,27)           117.5769         calculate D2E/DX2 analytically  !
 ! A42   A(21,25,28)           121.5135         calculate D2E/DX2 analytically  !
 ! A43   A(27,25,28)           120.9035         calculate D2E/DX2 analytically  !
 ! A44   A(24,26,29)           119.9814         calculate D2E/DX2 analytically  !
 ! A45   A(24,26,30)           120.0049         calculate D2E/DX2 analytically  !
 ! A46   A(29,26,30)           120.0128         calculate D2E/DX2 analytically  !
 ! A47   A(25,27,30)           119.0777         calculate D2E/DX2 analytically  !
 ! A48   A(25,27,31)           119.1993         calculate D2E/DX2 analytically  !
 ! A49   A(30,27,31)           121.7204         calculate D2E/DX2 analytically  !
 ! A50   A(25,28,29)           119.0649         calculate D2E/DX2 analytically  !
 ! A51   A(25,28,32)           119.1772         calculate D2E/DX2 analytically  !
 ! A52   A(29,28,32)           121.7479         calculate D2E/DX2 analytically  !
 ! A53   A(22,29,26)           119.9646         calculate D2E/DX2 analytically  !
 ! A54   A(22,29,28)           119.5394         calculate D2E/DX2 analytically  !
 ! A55   A(26,29,28)           120.4941         calculate D2E/DX2 analytically  !
 ! A56   A(23,30,26)           120.0941         calculate D2E/DX2 analytically  !
 ! A57   A(23,30,27)           119.4595         calculate D2E/DX2 analytically  !
 ! A58   A(26,30,27)           120.4462         calculate D2E/DX2 analytically  !
 ! A59   A(2,34,35)            110.1627         calculate D2E/DX2 analytically  !
 ! A60   A(2,34,36)            111.5668         calculate D2E/DX2 analytically  !
 ! A61   A(2,34,37)            111.5489         calculate D2E/DX2 analytically  !
 ! A62   A(35,34,36)           107.3806         calculate D2E/DX2 analytically  !
 ! A63   A(35,34,37)           107.8331         calculate D2E/DX2 analytically  !
 ! A64   A(36,34,37)           108.1797         calculate D2E/DX2 analytically  !
 ! A65   L(18,19,21,3,-1)      177.8832         calculate D2E/DX2 analytically  !
 ! A66   L(18,19,21,3,-2)      188.5771         calculate D2E/DX2 analytically  !
 ! D1    D(1,2,3,4)             11.1291         calculate D2E/DX2 analytically  !
 ! D2    D(1,2,3,33)          -178.371          calculate D2E/DX2 analytically  !
 ! D3    D(34,2,3,4)           177.2584         calculate D2E/DX2 analytically  !
 ! D4    D(34,2,3,33)          -12.2416         calculate D2E/DX2 analytically  !
 ! D5    D(1,2,34,35)          -61.8002         calculate D2E/DX2 analytically  !
 ! D6    D(1,2,34,36)           57.3636         calculate D2E/DX2 analytically  !
 ! D7    D(1,2,34,37)          178.4802         calculate D2E/DX2 analytically  !
 ! D8    D(3,2,34,35)          131.838          calculate D2E/DX2 analytically  !
 ! D9    D(3,2,34,36)         -108.9982         calculate D2E/DX2 analytically  !
 ! D10   D(3,2,34,37)           12.1184         calculate D2E/DX2 analytically  !
 ! D11   D(2,3,4,5)            173.2725         calculate D2E/DX2 analytically  !
 ! D12   D(2,3,4,8)            -19.9854         calculate D2E/DX2 analytically  !
 ! D13   D(33,3,4,5)             2.4133         calculate D2E/DX2 analytically  !
 ! D14   D(33,3,4,8)           169.1554         calculate D2E/DX2 analytically  !
 ! D15   D(3,4,5,6)            147.4767         calculate D2E/DX2 analytically  !
 ! D16   D(3,4,5,10)            27.0724         calculate D2E/DX2 analytically  !
 ! D17   D(3,4,5,11)           -90.3537         calculate D2E/DX2 analytically  !
 ! D18   D(8,4,5,6)            -20.7048         calculate D2E/DX2 analytically  !
 ! D19   D(8,4,5,10)          -141.1091         calculate D2E/DX2 analytically  !
 ! D20   D(8,4,5,11)           101.4648         calculate D2E/DX2 analytically  !
 ! D21   D(3,4,8,7)           -171.3657         calculate D2E/DX2 analytically  !
 ! D22   D(3,4,8,9)             66.5071         calculate D2E/DX2 analytically  !
 ! D23   D(3,4,8,16)           -52.0059         calculate D2E/DX2 analytically  !
 ! D24   D(5,4,8,7)             -3.1792         calculate D2E/DX2 analytically  !
 ! D25   D(5,4,8,9)           -125.3064         calculate D2E/DX2 analytically  !
 ! D26   D(5,4,8,16)           116.1806         calculate D2E/DX2 analytically  !
 ! D27   D(4,5,6,7)             35.8743         calculate D2E/DX2 analytically  !
 ! D28   D(4,5,6,12)           156.8268         calculate D2E/DX2 analytically  !
 ! D29   D(4,5,6,13)           -82.1477         calculate D2E/DX2 analytically  !
 ! D30   D(10,5,6,7)           153.1273         calculate D2E/DX2 analytically  !
 ! D31   D(10,5,6,12)          -85.9202         calculate D2E/DX2 analytically  !
 ! D32   D(10,5,6,13)           35.1052         calculate D2E/DX2 analytically  !
 ! D33   D(11,5,6,7)           -87.9699         calculate D2E/DX2 analytically  !
 ! D34   D(11,5,6,12)           32.9826         calculate D2E/DX2 analytically  !
 ! D35   D(11,5,6,13)          154.0081         calculate D2E/DX2 analytically  !
 ! D36   D(4,5,11,17)         -153.1122         calculate D2E/DX2 analytically  !
 ! D37   D(4,5,11,18)           30.5533         calculate D2E/DX2 analytically  !
 ! D38   D(6,5,11,17)          -35.9701         calculate D2E/DX2 analytically  !
 ! D39   D(6,5,11,18)          147.6954         calculate D2E/DX2 analytically  !
 ! D40   D(10,5,11,17)          87.5242         calculate D2E/DX2 analytically  !
 ! D41   D(10,5,11,18)         -88.8103         calculate D2E/DX2 analytically  !
 ! D42   D(5,6,7,8)            -38.2448         calculate D2E/DX2 analytically  !
 ! D43   D(5,6,7,14)          -159.6706         calculate D2E/DX2 analytically  !
 ! D44   D(5,6,7,15)            79.2826         calculate D2E/DX2 analytically  !
 ! D45   D(12,6,7,8)          -156.5635         calculate D2E/DX2 analytically  !
 ! D46   D(12,6,7,14)           82.0107         calculate D2E/DX2 analytically  !
 ! D47   D(12,6,7,15)          -39.0361         calculate D2E/DX2 analytically  !
 ! D48   D(13,6,7,8)            80.0107         calculate D2E/DX2 analytically  !
 ! D49   D(13,6,7,14)          -41.4151         calculate D2E/DX2 analytically  !
 ! D50   D(13,6,7,15)         -162.4619         calculate D2E/DX2 analytically  !
 ! D51   D(6,7,8,4)             25.7285         calculate D2E/DX2 analytically  !
 ! D52   D(6,7,8,9)            146.5096         calculate D2E/DX2 analytically  !
 ! D53   D(6,7,8,16)           -90.9589         calculate D2E/DX2 analytically  !
 ! D54   D(14,7,8,4)           148.4827         calculate D2E/DX2 analytically  !
 ! D55   D(14,7,8,9)           -90.7362         calculate D2E/DX2 analytically  !
 ! D56   D(14,7,8,16)           31.7953         calculate D2E/DX2 analytically  !
 ! D57   D(15,7,8,4)           -91.6617         calculate D2E/DX2 analytically  !
 ! D58   D(15,7,8,9)            29.1193         calculate D2E/DX2 analytically  !
 ! D59   D(15,7,8,16)          151.6509         calculate D2E/DX2 analytically  !
 ! D60   D(5,11,18,19)         -42.7145         calculate D2E/DX2 analytically  !
 ! D61   D(17,11,18,19)        141.6138         calculate D2E/DX2 analytically  !
 ! D62   D(11,18,21,20)         97.9632         calculate D2E/DX2 analytically  !
 ! D63   D(11,18,21,25)        -64.9817         calculate D2E/DX2 analytically  !
 ! D64   D(19,21,25,27)        -11.7205         calculate D2E/DX2 analytically  !
 ! D65   D(19,21,25,28)        169.1694         calculate D2E/DX2 analytically  !
 ! D66   D(20,21,25,27)       -178.3415         calculate D2E/DX2 analytically  !
 ! D67   D(20,21,25,28)          2.5484         calculate D2E/DX2 analytically  !
 ! D68   D(21,25,27,30)       -179.1677         calculate D2E/DX2 analytically  !
 ! D69   D(21,25,27,31)          0.2653         calculate D2E/DX2 analytically  !
 ! D70   D(28,25,27,30)         -0.0519         calculate D2E/DX2 analytically  !
 ! D71   D(28,25,27,31)        179.3811         calculate D2E/DX2 analytically  !
 ! D72   D(21,25,28,29)        179.3411         calculate D2E/DX2 analytically  !
 ! D73   D(21,25,28,32)          0.4672         calculate D2E/DX2 analytically  !
 ! D74   D(27,25,28,29)          0.2604         calculate D2E/DX2 analytically  !
 ! D75   D(27,25,28,32)       -178.6134         calculate D2E/DX2 analytically  !
 ! D76   D(24,26,29,22)         -0.0895         calculate D2E/DX2 analytically  !
 ! D77   D(24,26,29,28)       -179.5824         calculate D2E/DX2 analytically  !
 ! D78   D(30,26,29,22)        179.5641         calculate D2E/DX2 analytically  !
 ! D79   D(30,26,29,28)          0.0711         calculate D2E/DX2 analytically  !
 ! D80   D(24,26,30,23)         -0.0672         calculate D2E/DX2 analytically  !
 ! D81   D(24,26,30,27)        179.7958         calculate D2E/DX2 analytically  !
 ! D82   D(29,26,30,23)       -179.7207         calculate D2E/DX2 analytically  !
 ! D83   D(29,26,30,27)          0.1423         calculate D2E/DX2 analytically  !
 ! D84   D(25,27,30,23)        179.7137         calculate D2E/DX2 analytically  !
 ! D85   D(25,27,30,26)         -0.1502         calculate D2E/DX2 analytically  !
 ! D86   D(31,27,30,23)          0.2955         calculate D2E/DX2 analytically  !
 ! D87   D(31,27,30,26)       -179.5684         calculate D2E/DX2 analytically  !
 ! D88   D(25,28,29,22)       -179.7638         calculate D2E/DX2 analytically  !
 ! D89   D(25,28,29,26)         -0.2687         calculate D2E/DX2 analytically  !
 ! D90   D(32,28,29,22)         -0.9201         calculate D2E/DX2 analytically  !
 ! D91   D(32,28,29,26)        178.575          calculate D2E/DX2 analytically  !
 --------------------------------------------------------------------------------
 Trust Radius=1.00D-01 FncErr=1.00D-07 GrdErr=1.00D-06 EigMax=2.50D+02 EigMin=1.00D-04
 Number of steps in this run=    200 maximum allowed number of steps=    222.
 Search for a saddle point of order  1.
 GradGradGradGradGradGradGradGradGradGradGradGradGradGradGradGradGradGrad

                          Input orientation:                          
 ---------------------------------------------------------------------
 Center     Atomic      Atomic             Coordinates (Angstroms)
 Number     Number       Type             X           Y           Z
 ---------------------------------------------------------------------
      1          1           0       -0.117931    2.456993    1.265751
      2          6           0        0.607543    2.668072    0.485908
      3          6           0        1.551106    1.705507    0.167730
      4          7           0        1.529975    0.438880    0.590810
      5          6           0        2.466101   -0.595652    0.122466
      6          6           0        2.634423   -1.493715    1.350350
      7          6           0        1.230714   -1.470963    1.976003
      8          6           0        0.765589   -0.020386    1.772257
      9          1           0       -0.312473    0.066813    1.603748
     10          1           0        3.397598   -0.110947   -0.188800
     11          6           0        1.967336   -1.416872   -1.163307
     12          1           0        2.955547   -2.487490    1.038412
     13          1           0        3.372509   -1.072477    2.044755
     14          1           0        1.216241   -1.755014    3.031920
     15          1           0        0.570907   -2.156034    1.432928
     16          1           0        1.030093    0.621272    2.622742
     17          8           0        2.431879   -2.553467   -1.243623
     18          8           0        1.220699   -0.792319   -1.980464
     19          1           0        0.079989    0.125678   -1.633350
     20          8           0       -0.609884    1.959254   -1.155115
     21          7           0       -0.749983    0.702753   -1.240472
     22          1           0       -4.583904    0.549797    1.272853
     23          1           0       -2.944099   -3.141092   -0.219904
     24          1           0       -4.690876   -1.923602    1.066219
     25          6           0       -1.801406    0.035337   -0.605397
     26          6           0       -3.877944   -1.374789    0.599641
     27          6           0       -1.853085   -1.366351   -0.729135
     28          6           0       -2.784764    0.732673    0.115613
     29          6           0       -3.817038    0.017849    0.716538
     30          6           0       -2.895593   -2.060224   -0.124481
     31          1           0       -1.083643   -1.876561   -1.301608
     32          1           0       -2.730235    1.813787    0.173983
     33          1           0        2.295820    1.922862   -0.593675
     34          6           0        0.724523    4.086616    0.025117
     35          1           0       -0.225898    4.423527   -0.406511
     36          1           0        0.965206    4.762673    0.856614
     37          1           0        1.498626    4.198034   -0.740632
 ---------------------------------------------------------------------
                    Distance matrix (angstroms):
                    1          2          3          4          5
     1  H    0.000000
     2  C    1.085828   0.000000
     3  C    2.134494   1.384948   0.000000
     4  N    2.691453   2.414784   1.335585   0.000000
     5  C    4.159683   3.773357   2.476812   1.471711   0.000000
     6  C    4.815673   4.709137   3.578713   2.351942   1.530539
     7  C    4.213329   4.443010   3.669123   2.378196   2.393314
     8  C    2.678537   2.984540   2.483999   1.480212   2.438131
     9  H    2.421786   2.977003   2.867123   2.135203   3.217690
    10  H    4.590096   3.995320   2.614604   2.097169   1.095222
    11  C    5.025484   4.610392   3.419672   2.590758   1.605111
    12  H    5.826308   5.691942   4.506858   3.285764   2.158139
    13  H    5.024657   4.905787   3.815485   2.791610   2.178103
    14  H    4.758190   5.139687   4.504545   3.297062   3.372120
    15  H    4.667169   4.916319   4.180074   2.891808   2.782780
    16  H    2.555241   2.988979   2.733881   2.100452   3.129601
    17  O    6.156557   5.795166   4.572367   3.623909   2.387553
    18  O    4.784127   4.293397   3.311048   2.867569   2.451942
    19  H    3.725451   3.351617   2.811394   2.673470   3.049055
    20  O    2.519991   2.162755   2.546406   3.152584   4.197790
    21  N    3.123780   2.947159   2.878117   2.936227   3.726480
    22  H    4.856167   5.661934   6.339977   6.152804   7.234502
    23  H    6.444606   6.845343   6.621680   5.787123   5.988885
    24  H    6.335712   7.035160   7.275992   6.671306   7.340057
    25  C    3.492807   3.731659   3.824465   3.562563   4.374877
    26  C    5.409617   6.039640   6.256944   5.703951   6.409497
    27  C    4.648472   4.879302   4.672172   4.055393   4.469292
    28  C    3.377587   3.923090   4.443972   4.350758   5.416279
    29  C    4.464801   5.162731   5.653879   5.365037   6.340910
    30  C    5.482098   5.916191   5.834317   5.132525   5.563606
    31  H    5.128706   5.168076   4.683169   3.971588   4.033534
    32  H    2.903412   3.459460   4.282715   4.495943   5.727998
    33  H    3.093373   2.138017   1.087005   2.047370   2.623884
    34  C    2.214627   1.496088   2.524531   3.778193   4.996619
    35  H    2.583674   2.138377   3.297746   4.467119   5.720038
    36  H    2.580066   2.157012   3.188119   4.368616   5.612781
    37  H    3.109671   2.153883   2.653407   3.988102   4.965921
                    6          7          8          9         10
     6  C    0.000000
     7  C    1.536997   0.000000
     8  C    2.416867   1.536889   0.000000
     9  H    3.344197   2.210148   1.094631   0.000000
    10  H    2.205327   3.351328   3.283507   4.124252   0.000000
    11  C    2.601803   3.225028   3.465820   3.880134   2.168122
    12  H    1.089961   2.210758   3.379504   4.186170   2.710980
    13  H    1.097456   2.179634   2.824391   3.882211   2.431859
    14  H    2.215219   1.093552   2.190610   2.774112   4.223069
    15  H    2.168775   1.095262   2.171183   2.398038   3.847410
    16  H    2.943812   2.199083   1.097730   1.774333   3.747798
    17  O    2.809412   3.602861   4.276512   4.743928   2.830401
    18  O    3.685769   4.014261   3.858228   3.991904   2.900555
    19  H    4.248533   4.111066   3.477002   3.261333   3.626189
    20  O    5.359653   4.995807   3.792151   3.358737   4.612961
    21  N    4.794897   4.358201   3.449119   2.947104   4.355519
    22  H    7.502412   6.195779   5.402924   4.311367   8.141092
    23  H    6.024903   5.004039   5.241116   4.532308   7.028504
    24  H    7.343401   6.008146   5.821832   4.839535   8.383567
    25  C    5.083259   4.257501   3.499401   2.664251   5.217719
    26  C    6.556572   5.291692   4.977131   3.974799   7.426469
    27  C    4.947546   4.103478   3.863423   3.141622   5.425650
    28  C    5.987401   4.943797   3.989558   2.961442   6.247076
    29  C    6.656417   5.411341   4.702816   3.615455   7.272358
    30  C    5.751273   4.667512   4.600305   3.766108   6.588480
    31  H    4.582954   4.032802   4.039021   3.579455   4.943405
    32  H    6.411159   5.452153   4.259044   3.307827   6.433238
    33  H    3.945489   4.388137   3.422785   3.882883   2.348237
    34  C    6.045168   5.911757   4.463368   4.441425   4.981027
    35  H    6.803069   6.522507   5.047617   4.798916   5.808492
    36  H    6.494032   6.338907   4.874003   4.923594   5.546313
    37  H    6.169137   6.292012   4.964577   5.083619   4.741090
                   11         12         13         14         15
    11  C    0.000000
    12  H    2.640142   0.000000
    13  H    3.519202   1.785734   0.000000
    14  H    4.275326   2.745138   2.467761   0.000000
    15  H    3.039212   2.439675   3.065518   1.770324   0.000000
    16  H    4.400752   3.985207   2.947841   2.418432   3.056131
    17  O    1.230487   2.342278   3.727136   4.516146   3.284067
    18  O    1.270936   3.872585   4.572872   5.103998   3.732719
    19  H    2.482434   4.715484   5.079835   5.156822   3.853475
    20  O    4.247394   6.107159   5.940540   5.887426   5.002782
    21  N    3.447113   5.394619   5.562293   5.306599   4.130918
    22  H    7.260951   8.131629   8.156722   6.484455   5.824021
    23  H    5.290098   6.067650   7.021922   5.459304   4.007176
    24  H    7.039840   7.667237   8.167014   6.227876   5.279665
    25  C    4.077204   5.629864   5.917766   5.053872   3.818998
    26  C    6.105494   6.937379   7.399244   5.657851   4.593146
    27  C    3.845344   5.244437   5.923484   4.870047   3.342731
    28  C    5.370161   6.646215   6.700162   5.540891   4.619575
    29  C    6.249098   7.228294   7.392060   5.817038   4.949045
    30  C    5.014094   5.980862   6.705992   5.192610   3.801490
    31  H    3.088513   4.707864   5.630452   4.907515   3.208322
    32  H    5.855995   7.181667   7.005269   6.039770   5.314316
    33  H    3.403852   4.748700   4.134323   5.276097   4.870302
    34  C    5.765875   7.015918   6.140603   6.588421   6.401266
    35  H    6.284368   7.744130   7.011654   7.216436   6.878158
    36  H    6.578079   7.520596   6.423065   6.875698   6.953856
    37  H    5.650267   7.069926   6.248848   7.053416   6.779322
                   16         17         18         19         20
    16  H    0.000000
    17  O    5.195455   0.000000
    18  O    4.819136   2.260870   0.000000
    19  H    4.388921   3.586236   1.504801   0.000000
    20  O    4.330349   5.442868   3.406375   2.016590   0.000000
    21  N    4.254378   4.552716   2.581940   1.084538   1.267165
    22  H    5.774450   8.073668   6.788134   5.511605   4.865638
    23  H    6.166865   5.504039   5.095277   4.670624   5.686537
    24  H    6.452026   7.514369   6.746021   5.852211   6.055195
    25  C    4.333773   5.002993   3.421833   2.145809   2.328813
    26  C    5.671510   6.678381   5.743899   4.785696   4.987507
    27  C    4.847519   4.476032   3.368009   2.603945   3.575843
    28  C    4.566316   6.313446   4.771045   3.410883   2.801670
    29  C    5.243321   7.035827   5.771394   4.551969   4.190224
    30  C    5.490780   5.466052   4.690002   3.988601   4.737391
    31  H    5.109557   3.580567   2.635606   2.339456   3.867736
    32  H    4.643122   6.908685   5.200318   3.743464   2.506701
    33  H    3.693446   4.525314   3.232843   3.036561   2.959671
    34  C    4.341617   6.972479   5.298354   4.342231   2.774754
    35  H    5.021059   7.512854   5.636934   4.479978   2.603938
    36  H    4.502735   7.751647   6.242774   5.337158   3.793036
    37  H    4.932042   6.834232   5.149568   4.403812   3.103183
                   21         22         23         24         25
    21  N    0.000000
    22  H    4.586845   0.000000
    23  H    4.542119   4.305804   0.000000
    24  H    5.267751   2.484319   2.487494   0.000000
    25  C    1.397947   3.396290   3.397654   3.870501   0.000000
    26  C    4.181667   2.157690   2.159525   1.086163   2.784346
    27  C    2.399894   3.890624   2.144606   3.403951   1.408088
    28  C    2.445444   2.146987   3.891531   3.404807   1.404680
    29  C    3.702136   1.086526   3.408497   2.157568   2.410517
    30  C    3.671937   3.408100   1.086156   2.158581   2.412447
    31  H    2.601524   4.976634   2.496081   4.315200   2.157602
    32  H    2.675159   2.498254   4.975109   4.313731   2.152450
    33  H    3.344238   7.259465   7.296580   8.146438   4.511114
    34  C    3.902104   6.499641   8.109167   8.156786   4.815675
    35  H    3.848937   6.067806   8.040330   7.898798   4.666690
    36  H    4.880839   6.979556   8.883190   8.760221   5.669155
    37  H    4.186057   7.372986   8.594867   8.890955   5.313807
                   26         27         28         29         30
    26  C    0.000000
    27  C    2.421935   0.000000
    28  C    2.422957   2.446942   0.000000
    29  C    1.398862   2.804120   1.392004   0.000000
    30  C    1.399710   1.390643   2.805388   2.423791   0.000000
    31  H    3.416817   1.086315   3.422051   3.890135   2.168530
    32  H    3.415470   3.420277   1.084061   2.168156   3.889008
    33  H    7.100272   5.296290   5.266116   6.535500   6.560174
    34  C    7.165174   6.078471   4.855123   6.136669   7.135213
    35  H    6.926056   6.022832   4.521373   5.793749   7.017538
    36  H    7.822441   6.929812   5.554481   6.738162   7.900648
    37  H    7.858765   6.495882   5.575779   6.917628   7.671675
                   31         32         33         34         35
    31  H    0.000000
    32  H    4.302011   0.000000
    33  H    5.133961   5.085511   0.000000
    34  C    6.370961   4.138027   2.744760   0.000000
    35  H    6.420906   3.663253   3.556321   1.096865   0.000000
    36  H    7.275653   4.776840   3.455199   1.098348   1.768964
    37  H    6.624463   4.940083   2.415269   1.094541   1.771007
                   36         37
    36  H    0.000000
    37  H    1.776105   0.000000
 Stoichiometry    C14H18N2O3
 Framework group  C1[X(C14H18N2O3)]
 Deg. of freedom   105
 Full point group                 C1      NOp   1
 Largest Abelian subgroup         C1      NOp   1
 Largest concise Abelian subgroup C1      NOp   1
                         Standard orientation:                         
 ---------------------------------------------------------------------
 Center     Atomic      Atomic             Coordinates (Angstroms)
 Number     Number       Type             X           Y           Z
 ---------------------------------------------------------------------
      1          1           0       -0.117931    2.456993    1.265751
      2          6           0        0.607543    2.668072    0.485908
      3          6           0        1.551106    1.705507    0.167730
      4          7           0        1.529975    0.438880    0.590810
      5          6           0        2.466101   -0.595652    0.122466
      6          6           0        2.634423   -1.493715    1.350350
      7          6           0        1.230714   -1.470963    1.976003
      8          6           0        0.765589   -0.020386    1.772257
      9          1           0       -0.312473    0.066813    1.603748
     10          1           0        3.397598   -0.110947   -0.188800
     11          6           0        1.967336   -1.416872   -1.163307
     12          1           0        2.955547   -2.487490    1.038412
     13          1           0        3.372509   -1.072477    2.044755
     14          1           0        1.216241   -1.755014    3.031920
     15          1           0        0.570907   -2.156034    1.432928
     16          1           0        1.030093    0.621272    2.622742
     17          8           0        2.431879   -2.553467   -1.243623
     18          8           0        1.220699   -0.792319   -1.980464
     19          1           0        0.079989    0.125678   -1.633350
     20          8           0       -0.609884    1.959254   -1.155115
     21          7           0       -0.749983    0.702753   -1.240472
     22          1           0       -4.583904    0.549796    1.272853
     23          1           0       -2.944099   -3.141092   -0.219904
     24          1           0       -4.690876   -1.923603    1.066219
     25          6           0       -1.801406    0.035337   -0.605397
     26          6           0       -3.877944   -1.374789    0.599641
     27          6           0       -1.853085   -1.366351   -0.729135
     28          6           0       -2.784764    0.732673    0.115613
     29          6           0       -3.817038    0.017849    0.716538
     30          6           0       -2.895593   -2.060224   -0.124481
     31          1           0       -1.083643   -1.876561   -1.301608
     32          1           0       -2.730235    1.813787    0.173983
     33          1           0        2.295820    1.922862   -0.593675
     34          6           0        0.724523    4.086616    0.025117
     35          1           0       -0.225899    4.423527   -0.406511
     36          1           0        0.965205    4.762673    0.856614
     37          1           0        1.498626    4.198034   -0.740632
 ---------------------------------------------------------------------
 Rotational constants (GHZ):           0.4532936           0.3402081           0.2575599
 Standard basis: def2TZVPP (5D, 7F)
 There are   954 symmetry adapted cartesian basis functions of A   symmetry.
 There are   841 symmetry adapted basis functions of A   symmetry.
   841 basis functions,  1275 primitive gaussians,   954 cartesian basis functions
    70 alpha electrons       70 beta electrons
       nuclear repulsion energy      1511.0787380809 Hartrees.
 NAtoms=   37 NActive=   37 NUniq=   37 SFac= 1.00D+00 NAtFMM=   60 NAOKFM=F Big=F
 Integral buffers will be    131072 words long.
 Raffenetti 2 integral format.
 Two-electron integral symmetry is turned on.
 Nuclear repulsion after empirical dispersion term =     1511.0760171138 Hartrees.
 Force inversion solution in PCM.
 ------------------------------------------------------------------------------
 Polarizable Continuum Model (PCM)
 =================================
 Model                : PCM.
 Atomic radii         : SMD-Coulomb.
 Polarization charges : Total charges.
 Charge compensation  : None.
 Solution method      : Matrix inversion.
 Cavity type          : VdW (van der Waals Surface) (Alpha=1.000).
 Cavity algorithm     : GePol (No added spheres)
                        Default sphere list used, NSphG=   37.
                        Lebedev-Laikov grids with approx.  5.0 points / Ang**2.
                        Smoothing algorithm: York/Karplus (Gamma=1.0000).
                        Polarization charges: spherical gaussians, with
                                              point-specific exponents (IZeta= 3).
                        Self-potential: point-specific (ISelfS= 7).
                        Self-field    : sphere-specific E.n sum rule (ISelfD= 2).
 1st derivatives      : Analytical E(r).r(x)/FMM algorithm (CHGder, D1EAlg=3).
                        Cavity 1st derivative terms included.
 2nd derivatives      : Analytical E(r).r(xy)/FMM algorithm (CHGder, D2EAlg=3).
                        Cavity 2nd derivative terms included.
 Solvent              : Chloroform, Eps=   4.711300 Eps(inf)=   2.090627
 ------------------------------------------------------------------------------
 ------------------------------------------------------------------------------
 Atomic radii for non-electrostatic terms: SMD-CDS.
 ------------------------------------------------------------------------------
 Nuclear repulsion after PCM non-electrostatic terms =     1511.0685271731 Hartrees.
 One-electron integrals computed using PRISM.
   1 Symmetry operations used in ECPInt.
 ECPInt:  NShTT=   50403 NPrTT=  138022 LenC2=   45631 LenP2D=   92755.
 LDataN:  DoStor=T MaxTD1= 6 Len=  172
 NBasis=   841 RedAO= T EigKep=  7.99D-06  NBF=   841
 NBsUse=   841 1.00D-06 EigRej= -1.00D+00 NBFU=   841
 ExpMin= 9.52D-02 ExpMax= 2.70D+04 ExpMxC= 9.22D+02 IAcc=3 IRadAn=         5 AccDes= 0.00D+00
 Harris functional with IExCor= 1009 and IRadAn=       5 diagonalized for initial guess.
 HarFok:  IExCor= 1009 AccDes= 0.00D+00 IRadAn=         5 IDoV= 1 UseB2=F ITyADJ=14
 ICtDFT=  3500011 ScaDFX=  1.000000  1.000000  1.000000  1.000000
 FoFCou: FMM=F IPFlag=           0 FMFlag=      100000 FMFlg1=           0
         NFxFlg=           0 DoJE=T BraDBF=F KetDBF=T FulRan=T
         wScrn=  0.000000 ICntrl=       500 IOpCl=  0 I1Cent=   200000004 NGrid=           0
         NMat0=    1 NMatS0=      1 NMatT0=    0 NMatD0=    1 NMtDS0=    0 NMtDT0=    0
 Petite list used in FoFCou.
 Requested convergence on RMS density matrix=1.00D-08 within 128 cycles.
 Requested convergence on MAX density matrix=1.00D-06.
 Requested convergence on             energy=1.00D-06.
 No special actions if energy rises.
 Inv3:  Mode=1 IEnd=    20845488.
 Iteration    1 A*A^-1 deviation from unit magnitude is 9.88D-15 for    685.
 Iteration    1 A*A^-1 deviation from orthogonality  is 2.76D-15 for   2088   1243.
 Iteration    1 A^-1*A deviation from unit magnitude is 9.21D-15 for    685.
 Iteration    1 A^-1*A deviation from orthogonality  is 1.92D-15 for   2157   1229.
 Error on total polarization charges =  0.04349
 SCF Done:  E(RM062X) =  -879.398820046     A.U. after   15 cycles
            NFock= 15  Conv=0.99D-08     -V/T= 2.0055
 SMD-CDS (non-electrostatic) energy       (kcal/mol) =      -4.70
 (included in total energy above)
 DoSCS=F DFT=T ScalE2(SS,OS)=  1.000000  1.000000
 Range of M.O.s used for correlation:     1   841
 NBasis=   841 NAE=    70 NBE=    70 NFC=     0 NFV=     0
 NROrb=    841 NOA=    70 NOB=    70 NVA=   771 NVB=   771

 **** Warning!!: The largest alpha MO coefficient is  0.55276561D+02

   1 Symmetry operations used in ECPInt.
 ECPInt:  NShTT=   50403 NPrTT=  138022 LenC2=   45631 LenP2D=   92755.
 LDataN:  DoStor=T MaxTD1= 7 Len=  274
 Number of processors reduced to  15 by ecpmxn.
 Symmetrizing basis deriv contribution to polar:
 IMax=3 JMax=2 DiffMx= 0.00D+00
 G2DrvN: will do    38 centers at a time, making    1 passes.
 Calling FoFCou, ICntrl=  3107 FMM=F I1Cent=   0 AccDes= 0.00D+00.
 NEqPCM:  Using equilibrium solvation (IEInf=0, Eps=   4.7113, EpsInf=   2.0906)
 G2PCM: DoFxE=T DoFxN=T DoGrad=T DoDP/DQ/DG/TGxP=FFFF NFrqRd=   0 IEInf=0 SqF1=F DoCFld=F IF1Alg=4.
 End of G2Drv F.D. properties file   721 does not exist.
 End of G2Drv F.D. properties file   722 does not exist.
 End of G2Drv F.D. properties file   788 does not exist.
          IDoAtm=1111111111111111111111111111111111111
 NEqPCM:  Using equilibrium solvation (IEInf=0, Eps=   4.7113, EpsInf=   2.0906)
          Differentiating once with respect to nuclear coordinates.
 CalDSu exits because no D1Ps are significant.
          There are   114 degrees of freedom in the 1st order CPHF.  IDoFFX=6 NUNeed=     0.
    108 vectors produced by pass  0 Test12= 5.40D-14 1.00D-09 XBig12= 1.31D-01 1.92D-01.
 AX will form   108 AO Fock derivatives at one time.
    108 vectors produced by pass  1 Test12= 5.40D-14 1.00D-09 XBig12= 1.03D-02 1.92D-02.
    108 vectors produced by pass  2 Test12= 5.40D-14 1.00D-09 XBig12= 2.84D-04 2.05D-03.
    108 vectors produced by pass  3 Test12= 5.40D-14 1.00D-09 XBig12= 3.08D-06 1.77D-04.
    108 vectors produced by pass  4 Test12= 5.40D-14 1.00D-09 XBig12= 3.00D-08 1.65D-05.
    108 vectors produced by pass  5 Test12= 5.40D-14 1.00D-09 XBig12= 1.98D-10 8.00D-07.
     95 vectors produced by pass  6 Test12= 5.40D-14 1.00D-09 XBig12= 1.16D-12 6.89D-08.
     21 vectors produced by pass  7 Test12= 5.40D-14 1.00D-09 XBig12= 5.91D-15 4.25D-09.
     17 vectors produced by pass  8 Test12= 5.40D-14 1.00D-09 XBig12= 2.62D-15 7.35D-09.
      4 vectors produced by pass  9 Test12= 5.40D-14 1.00D-09 XBig12= 8.64D-16 2.55D-09.
      4 vectors produced by pass 10 Test12= 5.40D-14 1.00D-09 XBig12= 1.61D-15 2.98D-09.
      4 vectors produced by pass 11 Test12= 5.40D-14 1.00D-09 XBig12= 4.71D-15 7.55D-09.
      4 vectors produced by pass 12 Test12= 5.40D-14 1.00D-09 XBig12= 1.90D-15 2.98D-09.
      4 vectors produced by pass 13 Test12= 5.40D-14 1.00D-09 XBig12= 5.10D-15 5.97D-09.
      4 vectors produced by pass 14 Test12= 5.40D-14 1.00D-09 XBig12= 3.28D-15 4.65D-09.
      4 vectors produced by pass 15 Test12= 5.40D-14 1.00D-09 XBig12= 4.14D-15 5.89D-09.
      4 vectors produced by pass 16 Test12= 5.40D-14 1.00D-09 XBig12= 2.11D-15 4.17D-09.
      4 vectors produced by pass 17 Test12= 5.40D-14 1.00D-09 XBig12= 3.27D-15 3.74D-09.
      4 vectors produced by pass 18 Test12= 5.40D-14 1.00D-09 XBig12= 5.99D-15 6.17D-09.
      4 vectors produced by pass 19 Test12= 5.40D-14 1.00D-09 XBig12= 3.19D-15 4.21D-09.
      4 vectors produced by pass 20 Test12= 5.40D-14 1.00D-09 XBig12= 3.68D-15 3.65D-09.
      4 vectors produced by pass 21 Test12= 5.40D-14 1.00D-09 XBig12= 1.81D-15 3.43D-09.
      4 vectors produced by pass 22 Test12= 5.40D-14 1.00D-09 XBig12= 1.25D-15 2.46D-09.
      4 vectors produced by pass 23 Test12= 5.40D-14 1.00D-09 XBig12= 2.45D-15 2.50D-09.
      4 vectors produced by pass 24 Test12= 5.40D-14 1.00D-09 XBig12= 2.01D-15 2.93D-09.
      4 vectors produced by pass 25 Test12= 5.40D-14 1.00D-09 XBig12= 2.32D-15 3.12D-09.
      4 vectors produced by pass 26 Test12= 5.40D-14 1.00D-09 XBig12= 2.20D-15 3.09D-09.
      4 vectors produced by pass 27 Test12= 5.40D-14 1.00D-09 XBig12= 1.79D-15 3.23D-09.
      4 vectors produced by pass 28 Test12= 5.40D-14 1.00D-09 XBig12= 1.83D-15 2.88D-09.
      4 vectors produced by pass 29 Test12= 5.40D-14 1.00D-09 XBig12= 1.33D-15 2.22D-09.
      4 vectors produced by pass 30 Test12= 5.40D-14 1.00D-09 XBig12= 2.31D-15 2.66D-09.
      4 vectors produced by pass 31 Test12= 5.40D-14 1.00D-09 XBig12= 1.52D-15 2.26D-09.
      4 vectors produced by pass 32 Test12= 5.40D-14 1.00D-09 XBig12= 1.69D-15 2.64D-09.
      4 vectors produced by pass 33 Test12= 5.40D-14 1.00D-09 XBig12= 2.01D-15 3.05D-09.
      4 vectors produced by pass 34 Test12= 5.40D-14 1.00D-09 XBig12= 2.57D-15 3.30D-09.
      4 vectors produced by pass 35 Test12= 5.40D-14 1.00D-09 XBig12= 1.82D-15 2.41D-09.
      4 vectors produced by pass 36 Test12= 5.40D-14 1.00D-09 XBig12= 1.32D-15 1.76D-09.
      4 vectors produced by pass 37 Test12= 5.40D-14 1.00D-09 XBig12= 1.78D-15 2.11D-09.
      4 vectors produced by pass 38 Test12= 5.40D-14 1.00D-09 XBig12= 2.39D-15 2.68D-09.
      2 vectors produced by pass 39 Test12= 5.40D-14 1.00D-09 XBig12= 1.69D-15 1.99D-09.
 InvSVY:  IOpt=1 It=  1 EMax= 1.22D-15
 Solved reduced A of dimension   903 with   114 vectors.
 End of Minotr F.D. properties file   721 does not exist.
 End of Minotr F.D. properties file   722 does not exist.
 End of Minotr F.D. properties file   788 does not exist.

 **********************************************************************

            Population analysis using the SCF density.

 **********************************************************************

 Orbital symmetries:
       Occupied  (A) (A) (A) (A) (A) (A) (A) (A) (A) (A) (A) (A)
                 (A) (A) (A) (A) (A) (A) (A) (A) (A) (A) (A) (A)
                 (A) (A) (A) (A) (A) (A) (A) (A) (A) (A) (A) (A)
                 (A) (A) (A) (A) (A) (A) (A) (A) (A) (A) (A) (A)
                 (A) (A) (A) (A) (A) (A) (A) (A) (A) (A) (A) (A)
                 (A) (A) (A) (A) (A) (A) (A) (A) (A) (A)
       Virtual   (A) (A) (A) (A) (A) (A) (A) (A) (A) (A) (A) (A)
                 (A) (A) (A) (A) (A) (A) (A) (A) (A) (A) (A) (A)
                 (A) (A) (A) (A) (A) (A) (A) (A) (A) (A) (A) (A)
                 (A) (A) (A) (A) (A) (A) (A) (A) (A) (A) (A) (A)
                 (A) (A) (A) (A) (A) (A) (A) (A) (A) (A) (A) (A)
                 (A) (A) (A) (A) (A) (A) (A) (A) (A) (A) (A) (A)
                 (A) (A) (A) (A) (A) (A) (A) (A) (A) (A) (A) (A)
                 (A) (A) (A) (A) (A) (A) (A) (A) (A) (A) (A) (A)
                 (A) (A) (A) (A) (A) (A) (A) (A) (A) (A) (A) (A)
                 (A) (A) (A) (A) (A) (A) (A) (A) (A) (A) (A) (A)
                 (A) (A) (A) (A) (A) (A) (A) (A) (A) (A) (A) (A)
                 (A) (A) (A) (A) (A) (A) (A) (A) (A) (A) (A) (A)
                 (A) (A) (A) (A) (A) (A) (A) (A) (A) (A) (A) (A)
                 (A) (A) (A) (A) (A) (A) (A) (A) (A) (A) (A) (A)
                 (A) (A) (A) (A) (A) (A) (A) (A) (A) (A) (A) (A)
                 (A) (A) (A) (A) (A) (A) (A) (A) (A) (A) (A) (A)
                 (A) (A) (A) (A) (A) (A) (A) (A) (A) (A) (A) (A)
                 (A) (A) (A) (A) (A) (A) (A) (A) (A) (A) (A) (A)
                 (A) (A) (A) (A) (A) (A) (A) (A) (A) (A) (A) (A)
                 (A) (A) (A) (A) (A) (A) (A) (A) (A) (A) (A) (A)
                 (A) (A) (A) (A) (A) (A) (A) (A) (A) (A) (A) (A)
                 (A) (A) (A) (A) (A) (A) (A) (A) (A) (A) (A) (A)
                 (A) (A) (A) (A) (A) (A) (A) (A) (A) (A) (A) (A)
                 (A) (A) (A) (A) (A) (A) (A) (A) (A) (A) (A) (A)
                 (A) (A) (A) (A) (A) (A) (A) (A) (A) (A) (A) (A)
                 (A) (A) (A) (A) (A) (A) (A) (A) (A) (A) (A) (A)
                 (A) (A) (A) (A) (A) (A) (A) (A) (A) (A) (A) (A)
                 (A) (A) (A) (A) (A) (A) (A) (A) (A) (A) (A) (A)
                 (A) (A) (A) (A) (A) (A) (A) (A) (A) (A) (A) (A)
                 (A) (A) (A) (A) (A) (A) (A) (A) (A) (A) (A) (A)
                 (A) (A) (A) (A) (A) (A) (A) (A) (A) (A) (A) (A)
                 (A) (A) (A) (A) (A) (A) (A) (A) (A) (A) (A) (A)
                 (A) (A) (A) (A) (A) (A) (A) (A) (A) (A) (A) (A)
                 (A) (A) (A) (A) (A) (A) (A) (A) (A) (A) (A) (A)
                 (A) (A) (A) (A) (A) (A) (A) (A) (A) (A) (A) (A)
                 (A) (A) (A) (A) (A) (A) (A) (A) (A) (A) (A) (A)
                 (A) (A) (A) (A) (A) (A) (A) (A) (A) (A) (A) (A)
                 (A) (A) (A) (A) (A) (A) (A) (A) (A) (A) (A) (A)
                 (A) (A) (A) (A) (A) (A) (A) (A) (A) (A) (A) (A)
                 (A) (A) (A) (A) (A) (A) (A) (A) (A) (A) (A) (A)
                 (A) (A) (A) (A) (A) (A) (A) (A) (A) (A) (A) (A)
                 (A) (A) (A) (A) (A) (A) (A) (A) (A) (A) (A) (A)
                 (A) (A) (A) (A) (A) (A) (A) (A) (A) (A) (A) (A)
                 (A) (A) (A) (A) (A) (A) (A) (A) (A) (A) (A) (A)
                 (A) (A) (A) (A) (A) (A) (A) (A) (A) (A) (A) (A)
                 (A) (A) (A) (A) (A) (A) (A) (A) (A) (A) (A) (A)
                 (A) (A) (A) (A) (A) (A) (A) (A) (A) (A) (A) (A)
                 (A) (A) (A) (A) (A) (A) (A) (A) (A) (A) (A) (A)
                 (A) (A) (A) (A) (A) (A) (A) (A) (A) (A) (A) (A)
                 (A) (A) (A) (A) (A) (A) (A) (A) (A) (A) (A) (A)
                 (A) (A) (A) (A) (A) (A) (A) (A) (A) (A) (A) (A)
                 (A) (A) (A) (A) (A) (A) (A) (A) (A) (A) (A) (A)
                 (A) (A) (A) (A) (A) (A) (A) (A) (A) (A) (A) (A)
                 (A) (A) (A) (A) (A) (A) (A) (A) (A) (A) (A) (A)
                 (A) (A) (A) (A) (A) (A) (A) (A) (A) (A) (A) (A)
                 (A) (A) (A) (A) (A) (A) (A) (A) (A) (A) (A) (A)
                 (A) (A) (A) (A) (A) (A) (A) (A) (A) (A) (A) (A)
                 (A) (A) (A) (A) (A) (A) (A) (A) (A) (A) (A) (A)
                 (A) (A) (A) (A) (A) (A) (A) (A) (A) (A) (A) (A)
                 (A) (A) (A) (A) (A) (A) (A) (A) (A) (A) (A) (A)
                 (A) (A) (A) (A) (A) (A) (A) (A) (A) (A) (A) (A)
                 (A) (A) (A) (A) (A) (A) (A) (A) (A) (A) (A) (A)
                 (A) (A) (A) (A) (A) (A) (A) (A) (A) (A) (A) (A)
                 (A) (A) (A) (A) (A) (A) (A) (A) (A) (A) (A) (A)
                 (A) (A) (A)
 The electronic state is 1-A.
 Alpha  occ. eigenvalues --  -19.69840 -19.57991 -19.57123 -14.86204 -14.81802
 Alpha  occ. eigenvalues --  -10.63486 -10.60140 -10.59645 -10.58203 -10.58051
 Alpha  occ. eigenvalues --  -10.57191 -10.55838 -10.55834 -10.55584 -10.55454
 Alpha  occ. eigenvalues --  -10.55351 -10.54077 -10.53652 -10.53408  -1.25822
 Alpha  occ. eigenvalues --   -1.15965  -1.09477  -1.07018  -0.99201  -0.93042
 Alpha  occ. eigenvalues --   -0.92022  -0.87203  -0.85695  -0.84382  -0.81377
 Alpha  occ. eigenvalues --   -0.78108  -0.71713  -0.71089  -0.69088  -0.68752
 Alpha  occ. eigenvalues --   -0.64671  -0.63968  -0.61923  -0.61155  -0.59679
 Alpha  occ. eigenvalues --   -0.56940  -0.56392  -0.54914  -0.53153  -0.52441
 Alpha  occ. eigenvalues --   -0.51792  -0.51038  -0.50734  -0.49972  -0.48749
 Alpha  occ. eigenvalues --   -0.48395  -0.48072  -0.47493  -0.45502  -0.45061
 Alpha  occ. eigenvalues --   -0.44809  -0.43334  -0.43228  -0.41398  -0.41296
 Alpha  occ. eigenvalues --   -0.41119  -0.40519  -0.38852  -0.38198  -0.33792
 Alpha  occ. eigenvalues --   -0.33147  -0.32347  -0.32248  -0.30805  -0.24833
 Alpha virt. eigenvalues --   -0.08666   0.00674   0.03037   0.05117   0.06761
 Alpha virt. eigenvalues --    0.07891   0.08703   0.09160   0.09849   0.10597
 Alpha virt. eigenvalues --    0.11012   0.11816   0.12201   0.13084   0.13705
 Alpha virt. eigenvalues --    0.13770   0.14462   0.14728   0.15481   0.15816
 Alpha virt. eigenvalues --    0.16790   0.17130   0.17506   0.18655   0.19072
 Alpha virt. eigenvalues --    0.19199   0.19474   0.20215   0.20939   0.21610
 Alpha virt. eigenvalues --    0.21760   0.22222   0.23280   0.23631   0.24092
 Alpha virt. eigenvalues --    0.24843   0.24993   0.25689   0.26265   0.26639
 Alpha virt. eigenvalues --    0.26965   0.27254   0.27325   0.28203   0.29095
 Alpha virt. eigenvalues --    0.29912   0.30496   0.30970   0.31767   0.32477
 Alpha virt. eigenvalues --    0.33001   0.33117   0.34039   0.34315   0.35487
 Alpha virt. eigenvalues --    0.35875   0.36538   0.36969   0.37712   0.38041
 Alpha virt. eigenvalues --    0.38663   0.39167   0.39895   0.40307   0.40561
 Alpha virt. eigenvalues --    0.41282   0.41709   0.42356   0.42653   0.42854
 Alpha virt. eigenvalues --    0.43778   0.44115   0.44612   0.45040   0.45520
 Alpha virt. eigenvalues --    0.45786   0.45924   0.46517   0.47310   0.47616
 Alpha virt. eigenvalues --    0.47863   0.48117   0.48259   0.48844   0.49264
 Alpha virt. eigenvalues --    0.49860   0.50273   0.50945   0.51151   0.51773
 Alpha virt. eigenvalues --    0.52105   0.52457   0.52643   0.52964   0.53191
 Alpha virt. eigenvalues --    0.54377   0.54753   0.55510   0.55869   0.56763
 Alpha virt. eigenvalues --    0.57109   0.57566   0.58167   0.58946   0.60220
 Alpha virt. eigenvalues --    0.60663   0.61226   0.62137   0.62739   0.63212
 Alpha virt. eigenvalues --    0.64223   0.64811   0.65571   0.65701   0.66552
 Alpha virt. eigenvalues --    0.67693   0.68972   0.69191   0.70120   0.71113
 Alpha virt. eigenvalues --    0.71635   0.71919   0.72713   0.72835   0.73637
 Alpha virt. eigenvalues --    0.73987   0.74929   0.75512   0.76072   0.76956
 Alpha virt. eigenvalues --    0.77453   0.78346   0.79480   0.80163   0.81006
 Alpha virt. eigenvalues --    0.81914   0.82575   0.83405   0.83756   0.84895
 Alpha virt. eigenvalues --    0.85801   0.86314   0.86899   0.87731   0.87995
 Alpha virt. eigenvalues --    0.88533   0.89336   0.90041   0.90361   0.91890
 Alpha virt. eigenvalues --    0.92791   0.93462   0.94209   0.95262   0.95815
 Alpha virt. eigenvalues --    0.96213   0.97026   0.98066   0.98280   0.99269
 Alpha virt. eigenvalues --    1.00462   1.00980   1.01187   1.01426   1.02084
 Alpha virt. eigenvalues --    1.03336   1.03813   1.04543   1.05277   1.05739
 Alpha virt. eigenvalues --    1.06281   1.06717   1.07614   1.08302   1.09115
 Alpha virt. eigenvalues --    1.09350   1.09516   1.10848   1.11291   1.12550
 Alpha virt. eigenvalues --    1.12861   1.13383   1.13685   1.14105   1.14875
 Alpha virt. eigenvalues --    1.15246   1.16263   1.16646   1.17192   1.17648
 Alpha virt. eigenvalues --    1.17969   1.19066   1.19311   1.20194   1.20781
 Alpha virt. eigenvalues --    1.21586   1.23043   1.23746   1.24001   1.24630
 Alpha virt. eigenvalues --    1.25053   1.26073   1.26243   1.27152   1.27809
 Alpha virt. eigenvalues --    1.29110   1.29729   1.30502   1.31641   1.32421
 Alpha virt. eigenvalues --    1.33262   1.33697   1.34515   1.34885   1.35546
 Alpha virt. eigenvalues --    1.35958   1.36482   1.36975   1.37529   1.38696
 Alpha virt. eigenvalues --    1.38932   1.40188   1.40509   1.42035   1.42690
 Alpha virt. eigenvalues --    1.43436   1.44317   1.44891   1.45446   1.46486
 Alpha virt. eigenvalues --    1.47080   1.47393   1.48588   1.49241   1.49501
 Alpha virt. eigenvalues --    1.50445   1.50714   1.51107   1.51690   1.52179
 Alpha virt. eigenvalues --    1.53343   1.53421   1.54135   1.54766   1.55678
 Alpha virt. eigenvalues --    1.56484   1.57228   1.57354   1.58113   1.58754
 Alpha virt. eigenvalues --    1.59809   1.60623   1.60727   1.61433   1.61843
 Alpha virt. eigenvalues --    1.62888   1.64215   1.64319   1.65264   1.66269
 Alpha virt. eigenvalues --    1.67318   1.67570   1.68726   1.68914   1.69995
 Alpha virt. eigenvalues --    1.70470   1.71082   1.71917   1.74015   1.74958
 Alpha virt. eigenvalues --    1.75045   1.76231   1.76585   1.77997   1.78173
 Alpha virt. eigenvalues --    1.79882   1.80375   1.81812   1.82355   1.83997
 Alpha virt. eigenvalues --    1.84887   1.85862   1.86863   1.88259   1.88832
 Alpha virt. eigenvalues --    1.89756   1.90991   1.91361   1.92944   1.94053
 Alpha virt. eigenvalues --    1.95175   1.96643   1.97930   1.98368   1.98970
 Alpha virt. eigenvalues --    1.99273   2.01575   2.02091   2.02487   2.03750
 Alpha virt. eigenvalues --    2.06003   2.06378   2.08835   2.10032   2.11300
 Alpha virt. eigenvalues --    2.11860   2.13743   2.16015   2.17332   2.18029
 Alpha virt. eigenvalues --    2.18714   2.19576   2.20368   2.22109   2.23720
 Alpha virt. eigenvalues --    2.24914   2.26022   2.27982   2.28629   2.29141
 Alpha virt. eigenvalues --    2.30649   2.32064   2.32579   2.36088   2.37214
 Alpha virt. eigenvalues --    2.38454   2.38983   2.39585   2.39886   2.41100
 Alpha virt. eigenvalues --    2.41791   2.42669   2.43422   2.44709   2.45757
 Alpha virt. eigenvalues --    2.48551   2.50356   2.50905   2.52074   2.53837
 Alpha virt. eigenvalues --    2.55174   2.55570   2.57547   2.59142   2.60032
 Alpha virt. eigenvalues --    2.60499   2.62320   2.62906   2.64036   2.64968
 Alpha virt. eigenvalues --    2.65459   2.66900   2.67799   2.68660   2.69358
 Alpha virt. eigenvalues --    2.70473   2.70729   2.71558   2.72004   2.72790
 Alpha virt. eigenvalues --    2.73945   2.75076   2.75181   2.76351   2.76673
 Alpha virt. eigenvalues --    2.77390   2.77852   2.78560   2.79295   2.80805
 Alpha virt. eigenvalues --    2.81261   2.81797   2.82182   2.83171   2.83726
 Alpha virt. eigenvalues --    2.83758   2.84291   2.85136   2.85405   2.87773
 Alpha virt. eigenvalues --    2.88412   2.88804   2.89994   2.90194   2.91410
 Alpha virt. eigenvalues --    2.91882   2.93123   2.94187   2.94264   2.94533
 Alpha virt. eigenvalues --    2.96137   2.97220   2.97730   2.98559   2.98697
 Alpha virt. eigenvalues --    2.99314   3.01014   3.01420   3.01926   3.02159
 Alpha virt. eigenvalues --    3.02893   3.03625   3.04463   3.04745   3.05316
 Alpha virt. eigenvalues --    3.05654   3.06182   3.06597   3.07239   3.07576
 Alpha virt. eigenvalues --    3.08756   3.09111   3.10345   3.11076   3.11268
 Alpha virt. eigenvalues --    3.11995   3.12706   3.13180   3.14120   3.14460
 Alpha virt. eigenvalues --    3.15116   3.15597   3.16160   3.16935   3.17423
 Alpha virt. eigenvalues --    3.18089   3.18378   3.19138   3.19720   3.20069
 Alpha virt. eigenvalues --    3.20707   3.21230   3.22109   3.23527   3.24267
 Alpha virt. eigenvalues --    3.24521   3.25117   3.25874   3.26162   3.27793
 Alpha virt. eigenvalues --    3.28656   3.28900   3.29748   3.29941   3.30379
 Alpha virt. eigenvalues --    3.31163   3.32182   3.32369   3.33222   3.34502
 Alpha virt. eigenvalues --    3.34934   3.35162   3.36092   3.36447   3.37543
 Alpha virt. eigenvalues --    3.37775   3.38579   3.39280   3.39623   3.40152
 Alpha virt. eigenvalues --    3.41204   3.41770   3.42611   3.43058   3.43705
 Alpha virt. eigenvalues --    3.44260   3.44507   3.45685   3.46289   3.46540
 Alpha virt. eigenvalues --    3.47226   3.47724   3.48281   3.49738   3.50626
 Alpha virt. eigenvalues --    3.51652   3.52085   3.52340   3.52713   3.53780
 Alpha virt. eigenvalues --    3.54115   3.55622   3.56342   3.56952   3.57481
 Alpha virt. eigenvalues --    3.58037   3.58386   3.58971   3.60166   3.61582
 Alpha virt. eigenvalues --    3.61943   3.62420   3.62867   3.64100   3.65019
 Alpha virt. eigenvalues --    3.65864   3.66942   3.67351   3.68189   3.68778
 Alpha virt. eigenvalues --    3.69983   3.71009   3.71576   3.71709   3.72443
 Alpha virt. eigenvalues --    3.72689   3.74764   3.75223   3.75652   3.75850
 Alpha virt. eigenvalues --    3.76346   3.77300   3.77624   3.79749   3.80067
 Alpha virt. eigenvalues --    3.81177   3.81487   3.82036   3.82529   3.83822
 Alpha virt. eigenvalues --    3.84249   3.84805   3.85289   3.86196   3.86710
 Alpha virt. eigenvalues --    3.87362   3.87691   3.89499   3.89547   3.90239
 Alpha virt. eigenvalues --    3.91331   3.92021   3.92064   3.93568   3.93916
 Alpha virt. eigenvalues --    3.94472   3.96013   3.96437   3.97395   3.98148
 Alpha virt. eigenvalues --    3.99691   3.99970   4.00776   4.01433   4.02948
 Alpha virt. eigenvalues --    4.03110   4.03990   4.04719   4.05856   4.06267
 Alpha virt. eigenvalues --    4.06582   4.07708   4.07937   4.08954   4.09533
 Alpha virt. eigenvalues --    4.09823   4.10798   4.11851   4.12858   4.13395
 Alpha virt. eigenvalues --    4.14014   4.14382   4.15527   4.15917   4.16505
 Alpha virt. eigenvalues --    4.17444   4.17901   4.18817   4.19642   4.19796
 Alpha virt. eigenvalues --    4.20429   4.21098   4.21623   4.22214   4.22556
 Alpha virt. eigenvalues --    4.22985   4.24379   4.25070   4.25720   4.26630
 Alpha virt. eigenvalues --    4.26771   4.28133   4.28853   4.30122   4.31117
 Alpha virt. eigenvalues --    4.32312   4.32867   4.33239   4.35371   4.35951
 Alpha virt. eigenvalues --    4.36702   4.37163   4.39524   4.40779   4.41787
 Alpha virt. eigenvalues --    4.43181   4.43614   4.45109   4.45663   4.47811
 Alpha virt. eigenvalues --    4.48679   4.50915   4.51416   4.53137   4.54836
 Alpha virt. eigenvalues --    4.55337   4.57757   4.58642   4.59395   4.60019
 Alpha virt. eigenvalues --    4.60568   4.61346   4.61801   4.62988   4.64419
 Alpha virt. eigenvalues --    4.64469   4.66516   4.66593   4.68208   4.68661
 Alpha virt. eigenvalues --    4.69449   4.69878   4.70364   4.70862   4.71724
 Alpha virt. eigenvalues --    4.72115   4.75262   4.75339   4.75901   4.78177
 Alpha virt. eigenvalues --    4.78470   4.78928   4.80370   4.81809   4.83269
 Alpha virt. eigenvalues --    4.83844   4.85118   4.86604   4.87565   4.88461
 Alpha virt. eigenvalues --    4.89678   4.89840   4.90350   4.92716   4.94192
 Alpha virt. eigenvalues --    4.95108   4.95349   4.97404   4.99165   4.99337
 Alpha virt. eigenvalues --    5.02316   5.03108   5.04995   5.05884   5.06306
 Alpha virt. eigenvalues --    5.09935   5.10193   5.10378   5.11262   5.12796
 Alpha virt. eigenvalues --    5.14051   5.14779   5.17042   5.17816   5.18116
 Alpha virt. eigenvalues --    5.19235   5.21257   5.23217   5.24076   5.24974
 Alpha virt. eigenvalues --    5.26683   5.27384   5.28117   5.28368   5.28951
 Alpha virt. eigenvalues --    5.29624   5.30231   5.30751   5.31717   5.32510
 Alpha virt. eigenvalues --    5.33383   5.34144   5.34741   5.36448   5.36876
 Alpha virt. eigenvalues --    5.37098   5.38858   5.40109   5.41532   5.42889
 Alpha virt. eigenvalues --    5.43586   5.45370   5.46644   5.47354   5.48431
 Alpha virt. eigenvalues --    5.49131   5.50298   5.52063   5.53558   5.55404
 Alpha virt. eigenvalues --    5.56244   5.57099   5.57491   5.59496   5.59635
 Alpha virt. eigenvalues --    5.61492   5.62346   5.64234   5.66199   5.66907
 Alpha virt. eigenvalues --    5.67862   5.68797   5.72279   5.74257   5.76911
 Alpha virt. eigenvalues --    5.77883   5.80937   5.82242   5.93011   5.93417
 Alpha virt. eigenvalues --    5.94415   5.97008   6.01815   6.03867   6.05243
 Alpha virt. eigenvalues --    6.10847   6.17158   6.18813   6.24739   6.27225
 Alpha virt. eigenvalues --    6.27486   6.41235   6.44307   6.46476   6.49259
 Alpha virt. eigenvalues --    6.52185   6.56867   6.57263   6.61583   6.71582
 Alpha virt. eigenvalues --    6.81278   6.83902   6.91338   6.92696   7.00599
 Alpha virt. eigenvalues --    7.05760   7.12270   7.19041   7.19549   7.26624
 Alpha virt. eigenvalues --    7.50911   7.66233  22.87080  23.11385  23.13470
 Alpha virt. eigenvalues --   23.20329  23.24618  23.26773  23.32964  23.43643
 Alpha virt. eigenvalues --   23.47768  23.55422  23.56692  23.67293  23.70381
 Alpha virt. eigenvalues --   24.08022  32.86246  33.34090  44.10593  44.29565
 Alpha virt. eigenvalues --   44.31368
          Condensed to atoms (all electrons):
               1          2          3          4          5          6
     1  H    0.473907   0.432989  -0.050671  -0.004590  -0.000332  -0.000148
     2  C    0.432989   5.357277   0.333708  -0.059206   0.005556  -0.002907
     3  C   -0.050671   0.333708   5.078165   0.419857  -0.102480   0.014600
     4  N   -0.004590  -0.059206   0.419857   6.538114   0.069735  -0.020730
     5  C   -0.000332   0.005556  -0.102480   0.069735   6.073977   0.039803
     6  C   -0.000148  -0.002907   0.014600  -0.020730   0.039803   5.307631
     7  C    0.000006  -0.000894   0.004498  -0.049423   0.026606   0.159148
     8  C    0.000113  -0.003407  -0.085717   0.220573  -0.060889  -0.028755
     9  H   -0.003476   0.006895   0.000194  -0.063441   0.006097   0.011148
    10  H   -0.000013   0.000903  -0.014792  -0.020217   0.392059  -0.025957
    11  C   -0.000003  -0.001570   0.009986   0.011932   0.107484   0.002012
    12  H    0.000003   0.000093  -0.000182   0.006715  -0.042166   0.429232
    13  H    0.000001   0.000083   0.000079   0.000057  -0.035819   0.431349
    14  H    0.000004  -0.000107   0.000116   0.005443   0.005187  -0.029426
    15  H   -0.000009  -0.000113  -0.000282  -0.002072   0.002947  -0.049140
    16  H   -0.002158  -0.000808  -0.007082  -0.030278   0.002708  -0.005831
    17  O   -0.000000  -0.000025   0.001490   0.013114  -0.215722   0.007040
    18  O    0.000004  -0.005633   0.027626   0.002692  -0.177293   0.006537
    19  H   -0.000066  -0.000000  -0.001668  -0.006305   0.009733   0.000095
    20  O   -0.007120   0.008853   0.018263  -0.026156   0.004295  -0.000185
    21  N   -0.003571  -0.080324  -0.021363   0.052272  -0.011888  -0.000183
    22  H    0.000015   0.000007   0.000003  -0.000000  -0.000002   0.000000
    23  H    0.000000  -0.000003   0.000003   0.000012  -0.000079   0.000016
    24  H   -0.000000   0.000001  -0.000001   0.000000   0.000001  -0.000000
    25  C    0.004901   0.021898   0.001154  -0.002013  -0.011504   0.003202
    26  C   -0.000071   0.000071  -0.000164   0.000041   0.000467  -0.000078
    27  C    0.000098   0.009778  -0.006262  -0.006277   0.003734  -0.001871
    28  C   -0.001266  -0.007075  -0.002887   0.002704   0.002137  -0.000242
    29  C    0.000020  -0.002803   0.001114   0.000263  -0.000599   0.000062
    30  C    0.000010  -0.000277   0.000275   0.000044  -0.000921  -0.000239
    31  H   -0.000007   0.000658  -0.001401  -0.001830   0.011418  -0.001352
    32  H   -0.001515   0.000362  -0.001616   0.000359   0.000112  -0.000011
    33  H    0.002033  -0.029381   0.427240  -0.024670  -0.004011   0.001848
    34  C   -0.011482   0.262765  -0.045980   0.003283  -0.000073   0.000084
    35  H   -0.004289  -0.051151   0.007675   0.000036  -0.000036  -0.000000
    36  H   -0.001763  -0.042625  -0.004444  -0.000190   0.000020  -0.000001
    37  H    0.004310  -0.040404  -0.007220   0.000343   0.000054  -0.000008
               7          8          9         10         11         12
     1  H    0.000006   0.000113  -0.003476  -0.000013  -0.000003   0.000003
     2  C   -0.000894  -0.003407   0.006895   0.000903  -0.001570   0.000093
     3  C    0.004498  -0.085717   0.000194  -0.014792   0.009986  -0.000182
     4  N   -0.049423   0.220573  -0.063441  -0.020217   0.011932   0.006715
     5  C    0.026606  -0.060889   0.006097   0.392059   0.107484  -0.042166
     6  C    0.159148  -0.028755   0.011148  -0.025957   0.002012   0.429232
     7  C    5.158428   0.195049  -0.054573   0.007936  -0.012833  -0.036285
     8  C    0.195049   5.208428   0.431491   0.006428   0.004461   0.008942
     9  H   -0.054573   0.431491   0.560065  -0.000700  -0.000141  -0.000250
    10  H    0.007936   0.006428  -0.000700   0.524216  -0.024068   0.001808
    11  C   -0.012833   0.004461  -0.000141  -0.024068   4.408676  -0.005441
    12  H   -0.036285   0.008942  -0.000250   0.001808  -0.005441   0.485392
    13  H   -0.042710  -0.000711  -0.000151  -0.007523   0.000956  -0.011761
    14  H    0.442436  -0.044216   0.001820  -0.000376   0.000186  -0.001685
    15  H    0.442252  -0.046120  -0.006796  -0.000010   0.001252  -0.003577
    16  H   -0.005870   0.420817  -0.034876   0.000465  -0.000128  -0.000048
    17  O   -0.001976  -0.001257  -0.000098   0.005174   0.684042   0.022745
    18  O   -0.002231   0.006849  -0.000503   0.001128   0.493353   0.001533
    19  H   -0.000156  -0.000154   0.000495  -0.000431  -0.012009  -0.000075
    20  O   -0.000220  -0.003706   0.004825  -0.000193  -0.001209  -0.000001
    21  N    0.001460   0.005935  -0.018380   0.000812   0.005108   0.000038
    22  H   -0.000002  -0.000001  -0.000026   0.000000   0.000000   0.000000
    23  H   -0.000056   0.000042  -0.000078   0.000000   0.000035   0.000001
    24  H    0.000003  -0.000007   0.000012  -0.000000  -0.000000  -0.000000
    25  C   -0.007546   0.009656   0.005139  -0.000018   0.009299  -0.000080
    26  C    0.000688  -0.000563  -0.000034  -0.000001  -0.000174  -0.000000
    27  C   -0.002563  -0.000513   0.005329   0.000018  -0.004490   0.000138
    28  C    0.001515  -0.011201  -0.003895  -0.000001  -0.000306   0.000000
    29  C    0.000326  -0.000100  -0.002837   0.000002   0.000197   0.000000
    30  C   -0.001099   0.002014  -0.000779   0.000012  -0.000460   0.000017
    31  H    0.000930  -0.000873   0.000920  -0.000078   0.000349  -0.000047
    32  H   -0.000008   0.000174  -0.000685   0.000000  -0.000043   0.000000
    33  H   -0.000580   0.005615  -0.000400  -0.000195  -0.001169  -0.000052
    34  C    0.000006  -0.000854   0.000146  -0.000052   0.000016  -0.000001
    35  H    0.000010   0.000162  -0.000208   0.000009   0.000014   0.000000
    36  H   -0.000008  -0.000154   0.000103  -0.000010  -0.000002   0.000000
    37  H   -0.000004   0.000066  -0.000020   0.000020  -0.000023   0.000000
              13         14         15         16         17         18
     1  H    0.000001   0.000004  -0.000009  -0.002158  -0.000000   0.000004
     2  C    0.000083  -0.000107  -0.000113  -0.000808  -0.000025  -0.005633
     3  C    0.000079   0.000116  -0.000282  -0.007082   0.001490   0.027626
     4  N    0.000057   0.005443  -0.002072  -0.030278   0.013114   0.002692
     5  C   -0.035819   0.005187   0.002947   0.002708  -0.215722  -0.177293
     6  C    0.431349  -0.029426  -0.049140  -0.005831   0.007040   0.006537
     7  C   -0.042710   0.442436   0.442252  -0.005870  -0.001976  -0.002231
     8  C   -0.000711  -0.044216  -0.046120   0.420817  -0.001257   0.006849
     9  H   -0.000151   0.001820  -0.006796  -0.034876  -0.000098  -0.000503
    10  H   -0.007523  -0.000376  -0.000010   0.000465   0.005174   0.001128
    11  C    0.000956   0.000186   0.001252  -0.000128   0.684042   0.493353
    12  H   -0.011761  -0.001685  -0.003577  -0.000048   0.022745   0.001533
    13  H    0.533750  -0.004379   0.005048   0.000710  -0.000018  -0.000461
    14  H   -0.004379   0.509318  -0.012560  -0.007132   0.000021  -0.000068
    15  H    0.005048  -0.012560   0.528182   0.003942   0.004327  -0.001400
    16  H    0.000710  -0.007132   0.003942   0.480603   0.000043  -0.000010
    17  O   -0.000018   0.000021   0.004327   0.000043   8.029119  -0.087730
    18  O   -0.000461  -0.000068  -0.001400  -0.000010  -0.087730   8.209933
    19  H    0.000031   0.000008   0.000065  -0.000134   0.001006   0.118026
    20  O    0.000004   0.000002  -0.000011  -0.000535  -0.000009   0.003579
    21  N   -0.000003  -0.000029  -0.000116   0.001852  -0.000295  -0.079146
    22  H   -0.000000   0.000000  -0.000001   0.000000  -0.000000   0.000000
    23  H   -0.000000  -0.000002  -0.000083   0.000001  -0.000000   0.000001
    24  H    0.000000   0.000000   0.000004  -0.000000   0.000000  -0.000000
    25  C   -0.000020   0.000065   0.000835  -0.000313   0.001401  -0.009069
    26  C    0.000002   0.000007   0.000332   0.000016  -0.000003  -0.000121
    27  C   -0.000007  -0.000020   0.002819  -0.000411  -0.001806   0.007288
    28  C    0.000009  -0.000001   0.000359  -0.000157  -0.000006  -0.001359
    29  C   -0.000002   0.000001  -0.000335   0.000153   0.000003   0.000141
    30  C   -0.000008  -0.000056  -0.002298   0.000040  -0.000396   0.003360
    31  H    0.000029   0.000002   0.000134  -0.000038  -0.000485   0.005647
    32  H    0.000000  -0.000001   0.000004   0.000035  -0.000000  -0.000083
    33  H    0.000014   0.000028   0.000036   0.000023  -0.000053   0.001440
    34  C    0.000001   0.000000  -0.000002  -0.000120  -0.000000   0.000122
    35  H    0.000000  -0.000000  -0.000000   0.000089   0.000000  -0.000004
    36  H   -0.000000   0.000000   0.000000  -0.000128  -0.000000  -0.000000
    37  H    0.000000  -0.000000  -0.000000  -0.000011  -0.000000  -0.000040
              19         20         21         22         23         24
     1  H   -0.000066  -0.007120  -0.003571   0.000015   0.000000  -0.000000
     2  C   -0.000000   0.008853  -0.080324   0.000007  -0.000003   0.000001
     3  C   -0.001668   0.018263  -0.021363   0.000003   0.000003  -0.000001
     4  N   -0.006305  -0.026156   0.052272  -0.000000   0.000012   0.000000
     5  C    0.009733   0.004295  -0.011888  -0.000002  -0.000079   0.000001
     6  C    0.000095  -0.000185  -0.000183   0.000000   0.000016  -0.000000
     7  C   -0.000156  -0.000220   0.001460  -0.000002  -0.000056   0.000003
     8  C   -0.000154  -0.003706   0.005935  -0.000001   0.000042  -0.000007
     9  H    0.000495   0.004825  -0.018380  -0.000026  -0.000078   0.000012
    10  H   -0.000431  -0.000193   0.000812   0.000000   0.000000  -0.000000
    11  C   -0.012009  -0.001209   0.005108   0.000000   0.000035  -0.000000
    12  H   -0.000075  -0.000001   0.000038   0.000000   0.000001  -0.000000
    13  H    0.000031   0.000004  -0.000003  -0.000000  -0.000000   0.000000
    14  H    0.000008   0.000002  -0.000029   0.000000  -0.000002   0.000000
    15  H    0.000065  -0.000011  -0.000116  -0.000001  -0.000083   0.000004
    16  H   -0.000134  -0.000535   0.001852   0.000000   0.000001  -0.000000
    17  O    0.001006  -0.000009  -0.000295  -0.000000  -0.000000   0.000000
    18  O    0.118026   0.003579  -0.079146   0.000000   0.000001  -0.000000
    19  H    0.359414  -0.029342   0.356658   0.000003  -0.000030   0.000000
    20  O   -0.029342   8.200725   0.186613  -0.000058   0.000004   0.000002
    21  N    0.356658   0.186613   6.286304  -0.000124  -0.000141   0.000001
    22  H    0.000003  -0.000058  -0.000124   0.464705  -0.000209  -0.002059
    23  H   -0.000030   0.000004  -0.000141  -0.000209   0.461013  -0.002181
    24  H    0.000000   0.000002   0.000001  -0.002059  -0.002181   0.466267
[...]
 520,0.00000555,-0.00004180,0.00002823,-0.00032719,-0.00026022,0.000390
 36,-0.00021587,0.00004491,-0.00014729,-0.00012510,0.00023894,-0.000162
 88,-0.00016976,-0.00011955,0.00001791,0.00052225,0.00096055,0.00070895
 ,0.00033974,-0.00073731,0.00031081,0.00000714,0.00000326,0.00000093,0.
 00000117,0.00000094,0.00000075,0.00001152,-0.00000280,0.00001328,-0.00
 006153,-0.00006117,-0.00006024,0.00001949,-0.00012253,-0.00003909,0.00
 005374,0.00006469,-0.00000104,-0.00013364,-0.00008501,0.00001407,0.000
 04992,0.00010686,-0.00012484,-0.00010164,0.00000350,0.00006303,-0.0000
 0121,-0.00000754,0.00000224,0.00003466,-0.00002604,0.00008398,0.214207
 55,0.00404959,-0.00177266,0.00097186,0.01469870,0.00772611,-0.01206184
 ,-0.04429875,-0.07406106,0.04129430,-0.02460820,-0.01158191,0.02646900
 ,-0.00231448,-0.00044685,0.00089473,-0.00008202,0.00008479,0.00001334,
 -0.00065347,-0.00039095,0.00143319,0.00210301,-0.00286946,-0.00228977,
 -0.00017335,0.00000002,0.00010081,0.00041280,-0.00013942,0.00005934,0.
 00013136,-0.00058489,-0.00028715,0.00003617,0.00001612,-0.00003189,0.0
 0003369,0.00002720,-0.00002966,0.00014264,-0.00051922,-0.00007344,0.00
 000068,-0.00004898,-0.00002943,0.00001977,0.00005462,0.00012114,-0.000
 07428,0.00017028,0.00006653,0.00022411,0.00002869,-0.00003769,-0.00039
 499,0.00016397,0.00020723,-0.00048052,0.00062327,0.00020380,0.00047510
 ,-0.00047179,0.00013248,-0.00000278,-0.00000132,0.00000311,0.00000032,
 0.00000030,0.00000326,0.00000509,0.00000242,0.00000483,-0.00011566,-0.
 00008810,-0.00016503,-0.00000817,-0.00001704,-0.00001094,-0.00000569,0
 .00005738,0.00001279,0.00005206,-0.00008670,-0.00000959,-0.00000419,0.
 00001372,-0.00001665,-0.00001660,0.00001625,0.00001989,-0.00000518,-0.
 00000084,0.00000531,-0.00000299,0.00003344,0.00000484,0.05077879,0.083
 12923,0.00281308,0.00083663,0.00399487,0.00463783,0.00414340,0.0002538
 6,0.13860369,0.04503289,-0.15701152,0.00672708,0.00635381,-0.00247877,
 0.00020214,-0.00245150,-0.00254898,-0.00043137,0.00003929,0.00025153,0
 .00057313,-0.00028467,-0.00025225,0.00287258,0.00226411,0.00392807,0.0
 0021876,0.00057237,-0.00070111,-0.00089963,-0.00013559,0.00036103,0.00
 014113,-0.00015561,0.00026606,-0.00000431,0.00003380,-0.00007724,-0.00
 000946,0.00002719,-0.00003018,-0.00011796,0.00008607,-0.00000958,-0.00
 000904,0.00001646,0.00001424,-0.00044489,-0.00053266,0.00048773,0.0000
 1790,0.00007475,-0.00007379,-0.00010796,-0.00009185,-0.00014807,0.0000
 9264,0.00006311,0.00007201,-0.00071356,0.00005001,0.00090816,0.0005328
 5,0.00028046,-0.00018118,0.00000356,0.00000077,0.00000018,-0.00000059,
 0.00000171,0.00000071,0.00001177,-0.00000018,0.00001113,-0.00029043,-0
 .00012834,-0.00011419,0.00002315,-0.00011443,-0.00004373,0.00006868,0.
 00009810,-0.00000527,-0.00007849,-0.00013879,0.00001832,0.00003306,0.0
 0010302,-0.00008938,-0.00010955,0.00000131,0.00008094,-0.00000206,-0.0
 0000518,-0.00000775,0.00001796,0.00000270,0.00005899,-0.15177006,-0.05
 516893,0.15477972,0.00188038,-0.02117084,0.00452290,-0.07809710,-0.013
 89809,0.01685394,0.00324332,0.02853035,-0.00709378,-0.00285910,0.00151
 059,0.00500583,0.00104484,0.00070428,-0.00006228,-0.00016784,-0.000055
 19,0.00008419,0.00018365,0.00012313,-0.00010658,-0.00017127,-0.0004329
 5,0.00046149,0.00029669,0.00019866,0.00002927,0.00001347,-0.00013411,0
 .00000198,0.00019910,-0.00007411,0.00007618,0.00003277,0.00003757,-0.0
 0006275,-0.00001552,0.00002957,-0.00003885,0.00000743,0.00001077,-0.00
 000655,0.00000212,-0.00003410,-0.00000415,-0.00016746,-0.00005817,-0.0
 0003548,-0.00024352,0.00025004,0.00011203,-0.00077352,0.00036709,0.000
 08451,0.00124800,-0.00069737,-0.00038197,-0.00184596,-0.00858819,-0.00
 137894,-0.00017423,0.00426964,-0.00024685,0.00004967,-0.00000680,-0.00
 001653,0.00001833,0.00003664,-0.00000986,0.00000202,0.00000258,-0.0000
 1251,-0.00065302,-0.00023587,0.00012490,0.00028750,0.00002217,-0.00018
 269,0.00024143,0.00002883,-0.00012706,-0.00003390,0.00014415,-0.000045
 22,0.00007450,0.00025562,0.00001626,-0.00001604,-0.00012911,0.00001171
 ,0.00000503,-0.00002613,0.00001398,-0.00004312,-0.00006251,0.00003857,
 -0.00066789,0.00044761,-0.00262697,0.57069985,0.00045821,-0.00361264,0
 .00084505,-0.00500104,-0.22371985,0.05085749,0.00122074,-0.02502043,0.
 00328983,0.00175217,0.00287961,0.00071372,0.00010097,-0.00006132,0.000
 39128,0.00006651,-0.00003139,-0.00001097,-0.00007154,-0.00007174,0.000
 06798,-0.00002918,-0.00020595,0.00011558,-0.00010719,0.00010328,-0.000
 14642,-0.00002141,-0.00000801,-0.00000326,-0.00031560,0.00003393,-0.00
 039766,-0.00001912,0.00000323,0.00002034,0.00000404,-0.00000608,0.0000
 0464,0.00000474,0.00000497,-0.00000953,-0.00001107,0.00003278,0.000007
 38,0.00005696,-0.00016031,-0.00002016,0.00004888,0.00003766,0.00016766
 ,0.00045826,-0.00018911,0.00024267,-0.00088009,0.00028780,-0.00047127,
 0.00188047,-0.00648439,0.00396648,-0.00247643,-0.00272577,-0.00352797,
 -0.00001735,0.00000315,0.00000741,-0.00000707,-0.00001657,0.00000306,-
 0.00000402,0.00000324,0.00000266,0.00135053,0.00058176,-0.00093196,-0.
 00024464,0.00010443,0.00013762,-0.00031409,-0.00047259,0.00014818,-0.0
 0003172,0.00012814,0.00032176,-0.00006684,-0.00009188,-0.00003548,0.00
 034974,0.00001459,-0.00008315,-0.00004023,0.00001824,-0.00005740,0.000
 02954,0.00013927,-0.00005893,-0.00180811,0.00117829,-0.00030175,-0.000
 56771,0.51061137,-0.00070872,0.01910092,-0.00188737,0.01434994,0.05640
 416,-0.08808233,-0.00241797,0.00166798,0.00088070,0.00263329,-0.004010
 48,0.00448764,0.00024393,0.00037633,0.00113638,0.00009256,-0.00012444,
 -0.00017758,-0.00010991,-0.00010038,0.00008204,0.00093227,0.00060725,-
 0.00047679,-0.00041618,0.00014961,-0.00012073,0.00011074,-0.00014619,0
 .00001396,-0.00041392,0.00039267,0.00002278,-0.00002333,-0.00010339,0.
 00007198,-0.00000808,0.00001623,0.00001316,-0.00000950,-0.00003244,0.0
 0000491,-0.00002352,0.00002195,0.00000792,-0.00003332,-0.00014884,0.00
 030214,0.00023752,-0.00022028,-0.00007919,0.00042458,-0.00030296,-0.00
 009908,-0.00065900,0.00039991,0.00034682,0.00083055,-0.00713124,0.0032
 8330,-0.00159616,-0.00359550,-0.00294708,-0.00003742,-0.00001072,0.000
 01413,-0.00000985,-0.00001714,0.00000331,-0.00002424,0.00000939,-0.000
 02187,0.00128896,0.00067388,-0.00105561,-0.00026607,0.00031617,0.00017
 634,-0.00036615,-0.00048886,0.00025789,0.00023552,0.00016742,0.0001768
 3,-0.00015011,-0.00030535,0.00022517,0.00041954,0.00001565,-0.00019375
 ,-0.00000561,0.00003525,-0.00001595,-0.00013471,-0.00010312,-0.0001575
 0,-0.00200483,-0.00230755,-0.00194908,-0.02118135,0.01372260,0.5540411
 8,0.00025563,0.00058227,0.00002610,0.00271627,0.00326087,0.00137968,0.
 00021731,-0.00102633,-0.00113056,0.00025741,0.00047803,-0.00004851,0.0
 0010984,-0.00009451,0.00000255,0.00001229,0.00001333,0.00000468,-0.000
 00455,-0.00000747,-0.00001391,-0.00004521,-0.00001747,0.00009019,0.000
 00933,-0.00000445,-0.00001561,-0.00000254,-0.00000984,0.00000417,-0.00
 005131,-0.00001392,-0.00009979,-0.00000422,0.00000626,0.00000005,0.000
 00134,-0.00000488,0.00000398,-0.00000099,0.00000856,-0.00000346,0.0000
 0091,0.00000441,0.00000314,0.00001177,-0.00001513,0.00000056,0.0000044
 2,0.00002263,0.00004739,0.00008441,-0.00001789,0.00010327,-0.00024083,
 0.00000676,-0.00032811,0.00053764,-0.00086690,0.00130981,-0.00023160,0
 .00000129,-0.00086547,-0.00000286,-0.00000315,0.00000381,-0.00000260,-
 0.00000198,0.00000220,0.00001079,0.00000298,0.00001537,0.00016079,0.00
 000115,0.00011216,-0.00000963,-0.00004155,-0.00000575,-0.00002593,0.00
 001723,0.00000142,0.00001405,-0.00013182,0.00007650,-0.00003665,0.0000
 6278,-0.00008830,-0.00001351,0.00000567,0.00002929,-0.00001598,0.00000
 783,-0.00002369,0.00004506,0.00009835,0.00007027,0.00000208,-0.0001353
 8,-0.00032585,-0.24217114,0.05527167,-0.10045204,0.26014549,-0.0006841
 2,0.00077197,-0.00047617,0.02740693,-0.01216768,0.01177945,-0.00050007
 ,-0.00463871,0.00304864,0.00046911,-0.00081633,-0.00147922,-0.00045710
 ,-0.00015791,-0.00004843,0.00002053,-0.00001779,-0.00002003,-0.0000156
 9,-0.00000522,0.00002646,0.00011351,0.00004973,-0.00013784,-0.00001672
 ,-0.00003235,-0.00000582,-0.00001650,0.00004822,-0.00001176,-0.0000639
 7,0.00001121,-0.00005983,0.00000587,-0.00000940,0.00001355,0.00000756,
 -0.00000723,0.00001286,-0.00000057,-0.00001587,0.00000514,0.00000002,0
 .00000086,-0.00000268,0.00002284,0.00002574,-0.00000164,0.00008674,-0.
 00009153,-0.00004712,0.00022636,-0.00013196,-0.00001386,-0.00039537,0.
 00031949,0.00007301,0.00172000,0.00401237,0.00192732,-0.00037690,-0.00
 268732,-0.00015472,-0.00002247,-0.00000288,0.00001114,-0.00000343,-0.0
 0001242,0.00000423,-0.00000222,0.00000806,0.00000008,0.00052398,0.0003
 2554,-0.00011846,-0.00011926,0.00001377,0.00008671,-0.00011414,-0.0000
 5308,0.00007516,0.00004395,-0.00016966,0.00000232,-0.00005475,-0.00007
 349,0.00000753,0.00002764,0.00008434,-0.00002263,-0.00000142,0.0000195
 6,-0.00000478,-0.00012545,-0.00009920,0.00004649,0.00020418,0.00008355
 ,0.00037590,0.05638520,-0.05875093,0.03120357,-0.06318750,0.06902301,0
 .00024448,-0.00004549,0.00044837,-0.00658636,0.00272242,-0.00342830,0.
 00006442,0.00023071,-0.00080420,0.00007290,0.00047598,0.00032188,0.000
 25607,-0.00001332,0.00006440,0.00000322,-0.00001354,0.00000794,0.00001
 880,-0.00000120,0.00000229,-0.00018734,-0.00009512,0.00006431,0.000027
 75,0.00002814,0.00002399,-0.00000919,-0.00001368,-0.00000520,0.0002495
 5,-0.00011752,0.00015849,-0.00000257,0.00000447,0.00000043,-0.00000447
 ,0.00000218,-0.00001018,-0.00000075,0.00000818,-0.00000618,0.00000263,
 -0.00000554,0.00000023,-0.00001164,-0.00000293,-0.00004526,-0.00016417
 ,0.00013859,0.00001734,-0.00046586,0.00025826,0.00003234,0.00059229,-0
 .00042598,-0.00041872,-0.00062554,-0.00329211,0.00007884,0.00001606,0.
 00264788,-0.00048598,0.00003750,0.00000625,-0.00001814,0.00000995,0.00
 001884,-0.00000842,0.00000498,-0.00000218,-0.00000172,-0.00055845,-0.0
 0021271,0.00021530,0.00015908,-0.00000017,-0.00010680,0.00017503,0.000
 04713,-0.00010476,0.00000147,0.00013398,-0.00003080,0.00002068,0.00010
 944,-0.00001389,-0.00002153,-0.00007040,0.00003807,-0.00000756,-0.0000
 2199,-0.00000360,0.00005376,0.00011980,0.00003580,-0.00002054,0.000083
 62,0.00012360,-0.10185879,0.03195310,-0.09833493,0.11271868,-0.0350599
 2,0.10330806,0.00012916,0.00008834,0.00002877,-0.00108773,0.00225660,-
 0.00057592,-0.00006482,0.00080561,-0.00019689,-0.00028763,-0.00047008,
 -0.00039124,-0.00005554,0.00007564,0.00003526,0.00000884,0.00000556,-0
 .00000837,0.00000099,0.00001634,-0.00001268,0.00004651,0.00011083,-0.0
 0006907,-0.00002899,-0.00001264,0.00000041,0.00002377,0.00000472,0.000
 01204,-0.00002067,0.00003582,0.00001717,-0.00000203,-0.00000426,0.0000
 0165,-0.00000134,0.00000247,-0.00000232,0.00000116,0.00000157,0.000004
 40,-0.00000267,0.00000272,0.00000021,0.00001269,0.00000564,0.00003365,
 0.00003661,-0.00004465,-0.00002184,0.00008697,-0.00003498,-0.00000481,
 -0.00025111,0.00002470,-0.00013226,0.00012712,-0.00082039,0.00060372,-
 0.00006364,-0.00044760,-0.00063816,-0.00001397,-0.00000361,0.00000361,
 -0.00000326,-0.00000404,0.00000223,-0.00000065,-0.00000095,0.00000235,
 0.00028529,0.00007369,0.00002338,-0.00004945,0.00002626,0.00003000,-0.
 00006464,-0.00004604,0.00003208,0.00001649,0.00001854,0.00005712,-0.00
 002702,-0.00004576,-0.00000703,0.00004327,0.00000311,-0.00002180,-0.00
 000261,0.00000715,-0.00000545,0.00002747,0.00001483,-0.00003898,0.0002
 7892,0.00013048,0.00020560,-0.04835149,-0.02251320,-0.02363399,-0.0033
 9175,-0.01734315,-0.02206245,0.04862814,0.00003395,0.00121786,0.000870
 78,-0.00173552,-0.02202208,-0.02418321,-0.00227472,0.00003267,-0.00008
 190,0.00056508,-0.00236859,0.00101087,-0.00023153,0.00023397,0.0004238
 7,0.00003179,-0.00008598,-0.00008806,-0.00000225,0.00000839,0.00005326
 ,0.00036920,0.00016717,-0.00041106,-0.00008009,0.00002291,-0.00002500,
 0.00006111,-0.00003427,-0.00000827,-0.00031267,0.00025105,-0.00006611,
 0.00000731,-0.00004275,0.00003482,0.00001141,0.00000133,0.00002127,-0.
 00000249,-0.00003732,0.00001249,-0.00001089,0.00001237,0.00000219,-0.0
 0000724,-0.00001897,0.00015960,0.00022365,-0.00021574,-0.00007094,0.00
 049518,-0.00030817,-0.00006088,-0.00073551,0.00048162,0.00030954,0.001
 58213,0.00148554,0.00258962,-0.00029612,-0.00288983,-0.00091007,-0.000
 03773,-0.00000108,0.00001571,-0.00001122,-0.00002275,0.00000667,-0.000
 01283,-0.00000117,-0.00000191,0.00074915,0.00037483,-0.00031320,-0.000
 19180,0.00009729,0.00013341,-0.00021700,-0.00013034,0.00013615,0.00012
 624,-0.00001751,0.00005908,-0.00008440,-0.00021990,0.00005949,0.000118
 63,0.00005406,-0.00006596,0.00000213,0.00002450,-0.00000603,-0.0000024
 2,-0.00001793,-0.00005749,-0.00042416,-0.00024375,-0.00039951,-0.02173
 288,-0.14189596,-0.12830705,0.00031736,0.00497526,0.00644131,0.0222349
 7,0.15822190,0.00005436,-0.00094377,0.00025911,0.00166537,0.00575515,0
 .01088234,-0.00034271,0.00058950,0.00041664,-0.00010758,0.00019343,-0.
 00024044,-0.00002027,-0.00000294,-0.00010435,0.00000044,0.00000005,0.0
 0000128,0.00000203,0.00000555,0.00000689,0.00001739,-0.00001971,0.0000
 0915,0.00004545,0.00000435,0.00002040,-0.00000288,-0.00001191,-0.00000
 174,0.00015595,-0.00003474,0.00015085,0.00000499,0.00000552,-0.0000013
 2,-0.00000381,-0.00000097,0.00000072,-0.00000022,-0.00000507,-0.000000
 10,0.00000554,-0.00001546,-0.00000314,-0.00001196,0.00004579,-0.000021
 69,-0.00006596,0.00002884,-0.00003467,-0.00030497,0.00013116,0.0000031
 7,0.00047023,-0.00026995,-0.00014589,-0.00063563,-0.00106313,-0.000308
 32,0.00049298,0.00233452,0.00039658,0.00001606,-0.00000080,-0.00000762
 ,0.00000495,0.00001272,-0.00000235,0.00000583,-0.00000157,0.00000296,-
 0.00063109,-0.00027550,0.00021664,0.00013489,-0.00005337,-0.00009205,0
 .00013834,0.00015498,-0.00009750,-0.00000137,-0.00001825,-0.00005171,0
 .00003679,0.00011035,-0.00002536,-0.00009853,-0.00003789,0.00006799,-0
 .00000063,-0.00000904,0.00000054,0.00002000,0.00001272,0.00001709,-0.0
 0008210,0.00000567,0.00002221,-0.02405028,-0.12576065,-0.21066921,-0.0
 0139259,-0.00827758,-0.01179940,0.02824835,0.13846398,0.22575906,0.001
 26799,0.00040152,0.00031549,-0.00108825,-0.00070900,-0.00009913,0.0005
 1739,0.00136711,-0.00101563,0.00019617,-0.00014211,-0.00033985,-0.0000
 4683,-0.00001496,0.00005566,0.00000716,-0.00002340,-0.00001202,0.00002
 871,0.00002096,-0.00004619,-0.00010519,0.00014758,-0.00001348,0.000004
 72,-0.00000953,0.00003203,0.00000065,0.00000437,0.00000565,0.00000485,
 0.00000111,0.00003023,0.00000198,-0.00000499,0.00000356,0.00000082,0.0
 0000136,-0.00000020,-0.00000518,0.00001062,0.00000084,-0.00000002,-0.0
 0000200,0.00000134,-0.00001280,-0.00000543,0.00000173,0.00001435,-0.00
 001506,-0.00002250,0.00007290,-0.00001783,-0.00005863,-0.00015864,0.00
 006916,0.00008726,-0.00003093,0.00043350,0.00009969,0.00006499,-0.0006
 0494,-0.00012189,0.00000370,0.00000490,0.00000127,0.00000008,-0.000004
 09,0.00000015,-0.00000194,-0.00000286,0.00000121,0.00010592,0.00008931
 ,-0.00003233,-0.00002976,0.00003126,0.00002027,-0.00002126,-0.00004131
 ,0.00001627,0.00003312,0.00006145,0.00000373,-0.00001683,-0.00005924,0
 .00000738,0.00003115,0.00000178,-0.00002549,0.00000099,-0.00000368,0.0
 0000281,0.00003993,0.00005239,-0.00000137,0.00025985,-0.00036527,0.000
 14559,-0.20307797,-0.02850577,0.13288656,-0.01834553,-0.00376361,0.017
 85794,0.00401763,0.00147419,-0.00376735,0.21626607,0.00064578,-0.00525
 798,0.00112715,-0.02628382,-0.00572756,0.02188075,-0.00144234,0.001190
 85,0.00101905,-0.00021453,0.00002805,-0.00021912,-0.00002711,0.0000449
 6,-0.00005428,-0.00001126,-0.00003979,0.00002273,0.00006782,0.00007159
 ,-0.00004645,-0.00007148,-0.00015749,0.00008817,0.00014223,0.00003773,
 -0.00000270,0.00002619,-0.00000893,0.00000350,-0.00001802,-0.00002926,
 -0.00004276,0.00001873,0.00000891,-0.00001134,0.00000237,0.00000287,-0
 .00000182,0.00000658,-0.00000083,0.00000271,0.00000117,-0.00000841,-0.
 00000147,-0.00002859,0.00001740,-0.00003032,0.00001426,0.00000330,0.00
 000432,0.00011308,-0.00000894,-0.00002497,-0.00020474,0.00009045,0.000
 05022,0.00038718,0.00101430,0.00018478,0.00004675,-0.00076200,0.000067
 56,-0.00000566,-0.00000068,0.00000509,-0.00000045,-0.00000428,0.000002
 51,-0.00000051,-0.00000247,0.00000272,0.00017204,0.00009826,0.00000159
 ,-0.00002350,-0.00001986,0.00001860,-0.00002815,0.00000142,0.00000459,
 -0.00003918,-0.00000809,0.00000048,0.00001306,-0.00000828,-0.00003382,
 -0.00000951,0.00001065,-0.00000087,0.00000137,0.00000045,0.00000282,0.
 00002530,-0.00003414,0.00001367,0.00079624,-0.00008469,-0.00054885,-0.
 02545035,-0.05264080,0.02217498,0.00541076,0.00016823,-0.00603649,0.01
 584576,0.00291139,-0.01105198,0.03012252,0.05910365,-0.00009343,0.0017
 2193,0.00112780,0.00718738,0.00158991,-0.00720313,0.00007523,-0.001730
 54,0.00055447,-0.00010950,0.00018965,0.00008912,0.00006737,-0.00002620
 ,-0.00003996,-0.00000388,0.00002622,0.00000880,-0.00003425,-0.00002990
 ,0.00003728,0.00009899,-0.00003760,0.00001443,-0.00006242,0.00002817,-
 0.00003495,-0.00001628,0.00000595,0.00000432,0.00009487,-0.00004554,0.
 00005792,-0.00000747,0.00000221,-0.00000116,-0.00000308,0.00000102,-0.
 00000768,0.00000151,-0.00000404,-0.00000220,-0.00000181,0.00000207,-0.
 00000045,0.00001352,-0.00001854,-0.00000741,-0.00006092,0.00004488,0.0
 0000472,-0.00014598,0.00007638,-0.00001685,0.00018693,-0.00011070,-0.0
 0004801,-0.00028375,-0.00039948,-0.00012153,0.00002844,0.00048994,-0.0
 0001198,0.00000412,-0.00000158,-0.00000574,0.00000382,0.00000598,-0.00
 000115,0.00000091,0.00000160,-0.00000276,-0.00011014,-0.00003431,-0.00
 001505,0.00002314,0.00004199,-0.00001675,0.00002044,-0.00001942,-0.000
 02167,0.00006935,0.00004482,0.00001599,-0.00002008,-0.00000714,0.00003
 222,0.00002806,-0.00001509,-0.00001487,-0.00000121,-0.00000403,0.00000
 121,-0.00000309,0.00004813,-0.00002134,-0.00028760,0.00040849,0.000088
 71,0.13209169,0.02483006,-0.15928054,-0.01121161,-0.00275709,0.0106848
 0,0.01848129,0.00425254,-0.01462676,-0.14602058,-0.02857073,0.16878015
 \\-0.00000003,0.00000289,0.00000154,-0.00001018,-0.00000492,-0.0000108
 1,-0.00000429,-0.00000030,-0.00000003,-0.00000003,0.00000102,0.0000000
 3,0.00000182,-0.00000105,-0.00000679,0.00000305,0.00000233,0.00000339,
 0.00000196,0.00000341,0.00000033,0.00000251,0.00000459,-0.00000058,-0.
 00000094,0.00000131,0.00000045,0.00000111,0.00000622,0.00000283,-0.000
 00556,-0.00001021,0.00000945,0.00000250,0.00000401,0.00000326,0.000002
 04,0.00000533,0.00000069,0.00000233,0.00000365,0.00000226,0.00000355,0
 .00000147,0.00000428,-0.00000007,0.00000303,0.00000004,0.00000429,0.00
 000547,-0.00000074,0.00000442,0.00000620,0.00000515,-0.00001072,0.0000
 0505,-0.00000277,0.00000160,0.00000709,0.00000134,0.00000656,-0.000013
 42,-0.00001172,-0.00000074,-0.00000372,-0.00000052,0.00000325,-0.00000
 318,0.00000385,0.00000165,-0.00000369,0.00000169,0.00000450,-0.0000064
 0,0.00000875,0.00000171,-0.00000331,0.00000074,0.00000165,-0.00000116,
 0.00000087,-0.00000047,-0.00000176,-0.00000253,-0.00000062,-0.00000344
 ,-0.00000022,0.00000147,-0.00000339,0.00000283,0.00000281,-0.00000268,
 0.00000306,-0.00000099,-0.00000278,-0.00000103,-0.00000167,0.00000125,
 -0.00000174,-0.00000517,-0.00000031,-0.00000405,-0.00000425,-0.0000006
 3,-0.00000415,-0.00000428,0.00000138,-0.00000491,-0.00000479,0.0000006
 6,-0.00000424\\\@


 WE LEARN WISDOM FROM FAILURE MUCH MORE THAN FROM SUCCESS.
 WE DISCOVER WHAT WILL DO BY FINDING OUT WHAT WILL NOT DO...
 AND HE WHO NEVER MADE A MISTAKE NEVER MADE A DISCOVERY
 Job cpu time:       1 days 17 hours 30 minutes  8.5 seconds.
 Elapsed time:       0 days  1 hours 44 minutes  9.8 seconds.
 File lengths (MBytes):  RWF=   2448 Int=      0 D2E=      0 Chk=     80 Scr=     16
 Normal termination of Gaussian 16 at Wed Jul 25 08:33:32 2018.
