Job Start Time: Wed Jul 18 19:06:23 MDT 2018
SLURM Job ID: 1105372
SLURM Job Name: TS_ROanti8_b
 Entering Gaussian System, Link 0=/projects/jvalegre@colostate.edu/g16/g16
 Initial command:
 /projects/jvalegre@colostate.edu/g16/l1.exe "/gpfs/summit/scratch/jvalegre@colostate.edu/1105372/Gau-61423.inp" -scrdir="/gpfs/summit/scratch/jvalegre@colostate.edu/1105372/"
 Entering Link 1 = /projects/jvalegre@colostate.edu/g16/l1.exe PID=     61424.
  
 Copyright (c) 1988,1990,1992,1993,1995,1998,2003,2009,2016,
            Gaussian, Inc.  All Rights Reserved.
  
 This is part of the Gaussian(R) 16 program.  It is based on
 the Gaussian(R) 09 system (copyright 2009, Gaussian, Inc.),
 the Gaussian(R) 03 system (copyright 2003, Gaussian, Inc.),
 the Gaussian(R) 98 system (copyright 1998, Gaussian, Inc.),
 the Gaussian(R) 94 system (copyright 1995, Gaussian, Inc.),
 the Gaussian 92(TM) system (copyright 1992, Gaussian, Inc.),
 the Gaussian 90(TM) system (copyright 1990, Gaussian, Inc.),
 the Gaussian 88(TM) system (copyright 1988, Gaussian, Inc.),
 the Gaussian 86(TM) system (copyright 1986, Carnegie Mellon
 University), and the Gaussian 82(TM) system (copyright 1983,
 Carnegie Mellon University). Gaussian is a federally registered
 trademark of Gaussian, Inc.
  
 This software contains proprietary and confidential information,
 including trade secrets, belonging to Gaussian, Inc.
  
 This software is provided under written license and may be
 used, copied, transmitted, or stored only in accord with that
 written license.
  
 The following legend is applicable only to US Government
 contracts under FAR:
  
                    RESTRICTED RIGHTS LEGEND
  
 Use, reproduction and disclosure by the US Government is
 subject to restrictions as set forth in subparagraphs (a)
 and (c) of the Commercial Computer Software - Restricted
 Rights clause in FAR 52.227-19.
  
 Gaussian, Inc.
 340 Quinnipiac St., Bldg. 40, Wallingford CT 06492
  
  
 ---------------------------------------------------------------
 Warning -- This program may not be used in any manner that
 competes with the business of Gaussian, Inc. or will provide
 assistance to any competitor of Gaussian, Inc.  The licensee
 of this program is prohibited from giving any competitor of
 Gaussian, Inc. access to this program.  By using this program,
 the user acknowledges that Gaussian, Inc. is engaged in the
 business of creating and licensing software in the field of
 computational chemistry and represents and warrants to the
 licensee that it is not a competitor of Gaussian, Inc. and that
 it will not use this program in any manner prohibited above.
 ---------------------------------------------------------------
  

 Cite this work as:
 Gaussian 16, Revision A.03,
 M. J. Frisch, G. W. Trucks, H. B. Schlegel, G. E. Scuseria, 
 M. A. Robb, J. R. Cheeseman, G. Scalmani, V. Barone, 
 G. A. Petersson, H. Nakatsuji, X. Li, M. Caricato, A. V. Marenich, 
 J. Bloino, B. G. Janesko, R. Gomperts, B. Mennucci, H. P. Hratchian, 
 J. V. Ortiz, A. F. Izmaylov, J. L. Sonnenberg, D. Williams-Young, 
 F. Ding, F. Lipparini, F. Egidi, J. Goings, B. Peng, A. Petrone, 
 T. Henderson, D. Ranasinghe, V. G. Zakrzewski, J. Gao, N. Rega, 
 G. Zheng, W. Liang, M. Hada, M. Ehara, K. Toyota, R. Fukuda, 
 J. Hasegawa, M. Ishida, T. Nakajima, Y. Honda, O. Kitao, H. Nakai, 
 T. Vreven, K. Throssell, J. A. Montgomery, Jr., J. E. Peralta, 
 F. Ogliaro, M. J. Bearpark, J. J. Heyd, E. N. Brothers, K. N. Kudin, 
 V. N. Staroverov, T. A. Keith, R. Kobayashi, J. Normand, 
 K. Raghavachari, A. P. Rendell, J. C. Burant, S. S. Iyengar, 
 J. Tomasi, M. Cossi, J. M. Millam, M. Klene, C. Adamo, R. Cammi, 
 J. W. Ochterski, R. L. Martin, K. Morokuma, O. Farkas, 
 J. B. Foresman, and D. J. Fox, Gaussian, Inc., Wallingford CT, 2016.
 
 ******************************************
 Gaussian 16:  ES64L-G16RevA.03 25-Dec-2016
                18-Jul-2018 
 ******************************************
 %chk=kuf5ss5g.chk
 %nprocshared=24
 Will use up to   24 processors via shared memory.
 %mem=98GB
 ----------------------------------------------------------------------
 # opt=(calcfc,ts,recalc=10,noeigentest,maxcycles=200) freq=noraman scr
 f=(solvent=Chloroform,smd) def2tzvpp empiricaldispersion=gd3 m062x
 ----------------------------------------------------------------------
 1/5=1,6=200,10=4,11=1,18=20,26=3,38=1,71=10/1,3;
 2/9=110,12=2,17=6,18=5,40=1/2;
 3/5=44,7=202,11=2,25=1,30=1,70=32201,71=2,72=7,74=-55,124=31,140=1/1,2,3;
 4//1;
 5/5=2,38=5,53=7/2;
 8/6=4,10=90,11=11/1;
 11/6=1,8=1,9=11,15=111,16=1/1,2,10;
 10/6=1,13=1/2;
 6/7=2,8=2,9=2,10=2,28=1/1;
 7/10=1,18=20,25=1/1,2,3,16;
 1/5=1,6=200,10=4,11=1,18=20,26=3,71=10/3(2);
 2/9=110/2;
 99//99;
 2/9=110/2;
 3/5=44,7=202,11=2,25=1,30=1,70=32205,71=1,72=7,74=-55,124=31/1,2,3;
 4/5=5,16=3,69=1/1;
 5/5=2,38=5,53=7/2;
 7//1,2,3,16;
 1/5=1,6=200,11=1,18=20,26=3,71=10/3(-5);
 2/9=110/2;
 6/7=2,8=2,9=2,10=2,19=2,28=1/1;
 99/9=1/99;
 -------------------
 Title Card Required
 -------------------
 Symbolic Z-matrix:
 Charge =  0 Multiplicity = 1
 C                     2.37605  -0.66039   0.23865 
 C                     2.24134  -1.12833  -1.27394 
 O                     3.06058  -2.00512  -1.54841 
 O                     1.35917  -0.58323  -2.00616 
 H                     0.09799   0.1622   -1.62732 
 H                     3.38576  -0.24497   0.3276 
 N                     1.42132   0.36354   0.7185 
 C                     1.4566    1.62832   0.30186 
 C                     0.47747   2.58582   0.54646 
 H                    -0.29187   2.3746    1.28313 
 O                    -0.62873   1.95703  -1.10115 
 N                    -0.76281   0.69915  -1.25018 
 C                     0.6165   -0.13212   1.85092 
 H                    -0.33437  -0.54205   1.48701 
 H                     0.39871   0.68731   2.54058 
 C                     1.50567  -1.22923   2.44743 
 H                     0.92797  -1.95083   3.03294 
 H                     2.25499  -0.77817   3.10894 
 C                     2.17115  -1.84485   1.2073 
 H                     3.11457  -2.34884   1.42228 
 C                    -1.81969   0.00128  -0.66286 
 C                    -2.85424   0.66271   0.01886 
 C                    -3.89108  -0.08605   0.56797 
 C                    -3.90831  -1.47906   0.44006 
 C                    -2.87477  -2.12989  -0.24271 
 C                    -1.82634  -1.40036  -0.79396 
 H                    -2.83575   1.74456   0.08653 
 H                    -4.69705   0.4201    1.09232 
 H                    -4.7253   -2.05404   0.86615 
 H                    -2.88653  -3.21114  -0.34638 
 H                    -1.01548  -1.88444  -1.33127 
 H                     1.5096   -2.58586   0.74594 
 C                     0.64382   4.01343   0.12826 
 H                     0.86371   4.66174   0.98689 
 H                     1.45127   4.12649  -0.60174 
 H                    -0.28127   4.37915  -0.33292 
 H                     2.24027   1.84819  -0.41899 
 
 Add virtual bond connecting atoms H5         and O4         Dist= 2.86D+00.

 GradGradGradGradGradGradGradGradGradGradGradGradGradGradGradGradGradGrad
 Berny optimization.
 Initialization pass.
                           ----------------------------
                           !    Initial Parameters    !
                           ! (Angstroms and Degrees)  !
 --------------------------                            --------------------------
 ! Name  Definition              Value          Derivative Info.                !
 --------------------------------------------------------------------------------
 ! R1    R(1,2)                  1.589          calculate D2E/DX2 analytically  !
 ! R2    R(1,6)                  1.0954         calculate D2E/DX2 analytically  !
 ! R3    R(1,7)                  1.4799         calculate D2E/DX2 analytically  !
 ! R4    R(1,19)                 1.5438         calculate D2E/DX2 analytically  !
 ! R5    R(2,3)                  1.231          calculate D2E/DX2 analytically  !
 ! R6    R(2,4)                  1.2695         calculate D2E/DX2 analytically  !
 ! R7    R(4,5)                  1.5132         calculate D2E/DX2 analytically  !
 ! R8    R(5,12)                 1.0824         calculate D2E/DX2 analytically  !
 ! R9    R(7,8)                  1.3321         calculate D2E/DX2 analytically  !
 ! R10   R(7,13)                 1.4751         calculate D2E/DX2 analytically  !
 ! R11   R(8,9)                  1.3912         calculate D2E/DX2 analytically  !
 ! R12   R(8,37)                 1.0872         calculate D2E/DX2 analytically  !
 ! R13   R(9,10)                 1.0859         calculate D2E/DX2 analytically  !
 ! R14   R(9,33)                 1.4969         calculate D2E/DX2 analytically  !
 ! R15   R(11,12)                1.2738         calculate D2E/DX2 analytically  !
 ! R16   R(12,21)                1.3961         calculate D2E/DX2 analytically  !
 ! R17   R(13,14)                1.0976         calculate D2E/DX2 analytically  !
 ! R18   R(13,15)                1.0929         calculate D2E/DX2 analytically  !
 ! R19   R(13,16)                1.533          calculate D2E/DX2 analytically  !
 ! R20   R(16,17)                1.0942         calculate D2E/DX2 analytically  !
 ! R21   R(16,18)                1.0966         calculate D2E/DX2 analytically  !
 ! R22   R(16,19)                1.5361         calculate D2E/DX2 analytically  !
 ! R23   R(19,20)                1.091          calculate D2E/DX2 analytically  !
 ! R24   R(19,32)                1.0953         calculate D2E/DX2 analytically  !
 ! R25   R(21,22)                1.4045         calculate D2E/DX2 analytically  !
 ! R26   R(21,26)                1.4078         calculate D2E/DX2 analytically  !
 ! R27   R(22,23)                1.3918         calculate D2E/DX2 analytically  !
 ! R28   R(22,27)                1.0841         calculate D2E/DX2 analytically  !
 ! R29   R(23,24)                1.399          calculate D2E/DX2 analytically  !
 ! R30   R(23,28)                1.0866         calculate D2E/DX2 analytically  !
 ! R31   R(24,25)                1.3993         calculate D2E/DX2 analytically  !
 ! R32   R(24,29)                1.0861         calculate D2E/DX2 analytically  !
 ! R33   R(25,26)                1.3911         calculate D2E/DX2 analytically  !
 ! R34   R(25,30)                1.0863         calculate D2E/DX2 analytically  !
 ! R35   R(26,31)                1.0865         calculate D2E/DX2 analytically  !
 ! R36   R(33,34)                1.0981         calculate D2E/DX2 analytically  !
 ! R37   R(33,35)                1.0944         calculate D2E/DX2 analytically  !
 ! R38   R(33,36)                1.0965         calculate D2E/DX2 analytically  !
 ! A1    A(2,1,6)              105.4926         calculate D2E/DX2 analytically  !
 ! A2    A(2,1,7)              117.2385         calculate D2E/DX2 analytically  !
 ! A3    A(2,1,19)             111.1051         calculate D2E/DX2 analytically  !
 ! A4    A(6,1,7)              107.8138         calculate D2E/DX2 analytically  !
 ! A5    A(6,1,19)             111.2445         calculate D2E/DX2 analytically  !
 ! A6    A(7,1,19)             103.9908         calculate D2E/DX2 analytically  !
 ! A7    A(1,2,3)              111.4434         calculate D2E/DX2 analytically  !
 ! A8    A(1,2,4)              118.7842         calculate D2E/DX2 analytically  !
 ! A9    A(3,2,4)              129.7721         calculate D2E/DX2 analytically  !
 ! A10   A(2,4,5)              130.2641         calculate D2E/DX2 analytically  !
 ! A11   A(1,7,8)              122.5756         calculate D2E/DX2 analytically  !
 ! A12   A(1,7,13)             111.6186         calculate D2E/DX2 analytically  !
 ! A13   A(8,7,13)             125.0021         calculate D2E/DX2 analytically  !
 ! A14   A(7,8,9)              125.441          calculate D2E/DX2 analytically  !
 ! A15   A(7,8,37)             114.7375         calculate D2E/DX2 analytically  !
 ! A16   A(9,8,37)             118.9915         calculate D2E/DX2 analytically  !
 ! A17   A(8,9,10)             118.9491         calculate D2E/DX2 analytically  !
 ! A18   A(8,9,33)             121.9444         calculate D2E/DX2 analytically  !
 ! A19   A(10,9,33)            116.9863         calculate D2E/DX2 analytically  !
 ! A20   A(5,12,11)            116.549          calculate D2E/DX2 analytically  !
 ! A21   A(5,12,21)            120.0443         calculate D2E/DX2 analytically  !
 ! A22   A(11,12,21)           121.6093         calculate D2E/DX2 analytically  !
 ! A23   A(7,13,14)            110.1            calculate D2E/DX2 analytically  !
 ! A24   A(7,13,15)            109.9518         calculate D2E/DX2 analytically  !
 ! A25   A(7,13,16)            102.87           calculate D2E/DX2 analytically  !
 ! A26   A(14,13,15)           108.4581         calculate D2E/DX2 analytically  !
 ! A27   A(14,13,16)           111.3592         calculate D2E/DX2 analytically  !
 ! A28   A(15,13,16)           113.992          calculate D2E/DX2 analytically  !
 ! A29   A(13,16,17)           111.9591         calculate D2E/DX2 analytically  !
 ! A30   A(13,16,18)           109.6751         calculate D2E/DX2 analytically  !
 ! A31   A(13,16,19)           102.9408         calculate D2E/DX2 analytically  !
 ! A32   A(17,16,18)           108.0129         calculate D2E/DX2 analytically  !
 ! A33   A(17,16,19)           113.355          calculate D2E/DX2 analytically  !
 ! A34   A(18,16,19)           110.8434         calculate D2E/DX2 analytically  !
 ! A35   A(1,19,16)            104.8668         calculate D2E/DX2 analytically  !
 ! A36   A(1,19,20)            111.3026         calculate D2E/DX2 analytically  !
 ! A37   A(1,19,32)            109.5698         calculate D2E/DX2 analytically  !
 ! A38   A(16,19,20)           113.62           calculate D2E/DX2 analytically  !
 ! A39   A(16,19,32)           110.4586         calculate D2E/DX2 analytically  !
 ! A40   A(20,19,32)           107.024          calculate D2E/DX2 analytically  !
 ! A41   A(12,21,22)           121.7652         calculate D2E/DX2 analytically  !
 ! A42   A(12,21,26)           117.5234         calculate D2E/DX2 analytically  !
 ! A43   A(22,21,26)           120.7048         calculate D2E/DX2 analytically  !
 ! A44   A(21,22,23)           119.1361         calculate D2E/DX2 analytically  !
 ! A45   A(21,22,27)           119.189          calculate D2E/DX2 analytically  !
 ! A46   A(23,22,27)           121.6628         calculate D2E/DX2 analytically  !
 ! A47   A(22,23,24)           120.582          calculate D2E/DX2 analytically  !
 ! A48   A(22,23,28)           119.4947         calculate D2E/DX2 analytically  !
 ! A49   A(24,23,28)           119.9211         calculate D2E/DX2 analytically  !
 ! A50   A(23,24,25)           119.9113         calculate D2E/DX2 analytically  !
 ! A51   A(23,24,29)           120.0353         calculate D2E/DX2 analytically  !
 ! A52   A(25,24,29)           120.0528         calculate D2E/DX2 analytically  !
 ! A53   A(24,25,26)           120.404          calculate D2E/DX2 analytically  !
 ! A54   A(24,25,30)           120.1024         calculate D2E/DX2 analytically  !
 ! A55   A(26,25,30)           119.4936         calculate D2E/DX2 analytically  !
 ! A56   A(21,26,25)           119.2608         calculate D2E/DX2 analytically  !
 ! A57   A(21,26,31)           119.0854         calculate D2E/DX2 analytically  !
 ! A58   A(25,26,31)           121.6517         calculate D2E/DX2 analytically  !
 ! A59   A(9,33,34)            111.5223         calculate D2E/DX2 analytically  !
 ! A60   A(9,33,35)            111.5229         calculate D2E/DX2 analytically  !
 ! A61   A(9,33,36)            109.9901         calculate D2E/DX2 analytically  !
 ! A62   A(34,33,35)           108.2297         calculate D2E/DX2 analytically  !
 ! A63   A(34,33,36)           107.5122         calculate D2E/DX2 analytically  !
 ! A64   A(35,33,36)           107.9075         calculate D2E/DX2 analytically  !
 ! A65   L(4,5,12,7,-1)        173.9985         calculate D2E/DX2 analytically  !
 ! A66   L(4,5,12,7,-2)        180.6508         calculate D2E/DX2 analytically  !
 ! D1    D(6,1,2,3)             61.8711         calculate D2E/DX2 analytically  !
 ! D2    D(6,1,2,4)           -117.9545         calculate D2E/DX2 analytically  !
 ! D3    D(7,1,2,3)           -178.1458         calculate D2E/DX2 analytically  !
 ! D4    D(7,1,2,4)              2.0286         calculate D2E/DX2 analytically  !
 ! D5    D(19,1,2,3)           -58.7947         calculate D2E/DX2 analytically  !
 ! D6    D(19,1,2,4)           121.3796         calculate D2E/DX2 analytically  !
 ! D7    D(2,1,7,8)            -69.507          calculate D2E/DX2 analytically  !
 ! D8    D(2,1,7,13)           120.2934         calculate D2E/DX2 analytically  !
 ! D9    D(6,1,7,8)             49.2419         calculate D2E/DX2 analytically  !
 ! D10   D(6,1,7,13)          -120.9576         calculate D2E/DX2 analytically  !
 ! D11   D(19,1,7,8)           167.4252         calculate D2E/DX2 analytically  !
 ! D12   D(19,1,7,13)           -2.7744         calculate D2E/DX2 analytically  !
 ! D13   D(2,1,19,16)         -147.1328         calculate D2E/DX2 analytically  !
 ! D14   D(2,1,19,20)           89.6058         calculate D2E/DX2 analytically  !
 ! D15   D(2,1,19,32)          -28.5666         calculate D2E/DX2 analytically  !
 ! D16   D(6,1,19,16)           95.6575         calculate D2E/DX2 analytically  !
 ! D17   D(6,1,19,20)          -27.6038         calculate D2E/DX2 analytically  !
 ! D18   D(6,1,19,32)         -145.7762         calculate D2E/DX2 analytically  !
 ! D19   D(7,1,19,16)          -20.136          calculate D2E/DX2 analytically  !
 ! D20   D(7,1,19,20)         -143.3974         calculate D2E/DX2 analytically  !
 ! D21   D(7,1,19,32)           98.4302         calculate D2E/DX2 analytically  !
 ! D22   D(1,2,4,5)            -21.1044         calculate D2E/DX2 analytically  !
 ! D23   D(3,2,4,5)            159.1068         calculate D2E/DX2 analytically  !
 ! D24   D(2,4,12,11)           91.2718         calculate D2E/DX2 analytically  !
 ! D25   D(2,4,12,21)          -69.9957         calculate D2E/DX2 analytically  !
 ! D26   D(1,7,8,9)            169.5013         calculate D2E/DX2 analytically  !
 ! D27   D(1,7,8,37)             0.0983         calculate D2E/DX2 analytically  !
 ! D28   D(13,7,8,9)           -21.6374         calculate D2E/DX2 analytically  !
 ! D29   D(13,7,8,37)          168.9596         calculate D2E/DX2 analytically  !
 ! D30   D(1,7,13,14)          -94.3598         calculate D2E/DX2 analytically  !
 ! D31   D(1,7,13,15)          146.1998         calculate D2E/DX2 analytically  !
 ! D32   D(1,7,13,16)           24.4197         calculate D2E/DX2 analytically  !
 ! D33   D(8,7,13,14)           95.7253         calculate D2E/DX2 analytically  !
 ! D34   D(8,7,13,15)          -23.7151         calculate D2E/DX2 analytically  !
 ! D35   D(8,7,13,16)         -145.4952         calculate D2E/DX2 analytically  !
 ! D36   D(7,8,9,10)            12.3934         calculate D2E/DX2 analytically  !
 ! D37   D(7,8,9,33)           175.3378         calculate D2E/DX2 analytically  !
 ! D38   D(37,8,9,10)         -178.615          calculate D2E/DX2 analytically  !
 ! D39   D(37,8,9,33)          -15.6705         calculate D2E/DX2 analytically  !
 ! D40   D(8,9,33,34)         -105.3353         calculate D2E/DX2 analytically  !
 ! D41   D(8,9,33,35)           15.7962         calculate D2E/DX2 analytically  !
 ! D42   D(8,9,33,36)          135.478          calculate D2E/DX2 analytically  !
 ! D43   D(10,9,33,34)          57.9258         calculate D2E/DX2 analytically  !
 ! D44   D(10,9,33,35)         179.0573         calculate D2E/DX2 analytically  !
 ! D45   D(10,9,33,36)         -61.2609         calculate D2E/DX2 analytically  !
 ! D46   D(5,12,21,22)         170.0976         calculate D2E/DX2 analytically  !
 ! D47   D(5,12,21,26)         -10.834          calculate D2E/DX2 analytically  !
 ! D48   D(11,12,21,22)          5.8934         calculate D2E/DX2 analytically  !
 ! D49   D(11,12,21,26)       -175.0382         calculate D2E/DX2 analytically  !
 ! D50   D(7,13,16,17)        -157.8103         calculate D2E/DX2 analytically  !
 ! D51   D(7,13,16,18)          82.3046         calculate D2E/DX2 analytically  !
 ! D52   D(7,13,16,19)         -35.7222         calculate D2E/DX2 analytically  !
 ! D53   D(14,13,16,17)        -39.9145         calculate D2E/DX2 analytically  !
 ! D54   D(14,13,16,18)       -159.7995         calculate D2E/DX2 analytically  !
 ! D55   D(14,13,16,19)         82.1736         calculate D2E/DX2 analytically  !
 ! D56   D(15,13,16,17)         83.1895         calculate D2E/DX2 analytically  !
 ! D57   D(15,13,16,18)        -36.6955         calculate D2E/DX2 analytically  !
 ! D58   D(15,13,16,19)       -154.7223         calculate D2E/DX2 analytically  !
 ! D59   D(13,16,19,1)          34.7773         calculate D2E/DX2 analytically  !
 ! D60   D(13,16,19,20)        156.5352         calculate D2E/DX2 analytically  !
 ! D61   D(13,16,19,32)        -83.1868         calculate D2E/DX2 analytically  !
 ! D62   D(17,16,19,1)         155.9188         calculate D2E/DX2 analytically  !
 ! D63   D(17,16,19,20)        -82.3233         calculate D2E/DX2 analytically  !
 ! D64   D(17,16,19,32)         37.9547         calculate D2E/DX2 analytically  !
 ! D65   D(18,16,19,1)         -82.4251         calculate D2E/DX2 analytically  !
 ! D66   D(18,16,19,20)         39.3328         calculate D2E/DX2 analytically  !
 ! D67   D(18,16,19,32)        159.6108         calculate D2E/DX2 analytically  !
 ! D68   D(12,21,22,23)        179.1165         calculate D2E/DX2 analytically  !
 ! D69   D(12,21,22,27)          0.3618         calculate D2E/DX2 analytically  !
 ! D70   D(26,21,22,23)          0.0774         calculate D2E/DX2 analytically  !
 ! D71   D(26,21,22,27)       -178.6773         calculate D2E/DX2 analytically  !
 ! D72   D(12,21,26,25)       -178.8883         calculate D2E/DX2 analytically  !
 ! D73   D(12,21,26,31)          0.5956         calculate D2E/DX2 analytically  !
 ! D74   D(22,21,26,25)          0.1905         calculate D2E/DX2 analytically  !
 ! D75   D(22,21,26,31)        179.6744         calculate D2E/DX2 analytically  !
 ! D76   D(21,22,23,24)         -0.2387         calculate D2E/DX2 analytically  !
 ! D77   D(21,22,23,28)       -179.6961         calculate D2E/DX2 analytically  !
 ! D78   D(27,22,23,24)        178.484          calculate D2E/DX2 analytically  !
 ! D79   D(27,22,23,28)         -0.9734         calculate D2E/DX2 analytically  !
 ! D80   D(22,23,24,25)          0.132          calculate D2E/DX2 analytically  !
 ! D81   D(22,23,24,29)       -179.5796         calculate D2E/DX2 analytically  !
 ! D82   D(28,23,24,25)        179.5871         calculate D2E/DX2 analytically  !
 ! D83   D(28,23,24,29)         -0.1245         calculate D2E/DX2 analytically  !
 ! D84   D(23,24,25,26)          0.1418         calculate D2E/DX2 analytically  !
 ! D85   D(23,24,25,30)       -179.8212         calculate D2E/DX2 analytically  !
 ! D86   D(29,24,25,26)        179.8532         calculate D2E/DX2 analytically  !
 ! D87   D(29,24,25,30)         -0.1097         calculate D2E/DX2 analytically  !
 ! D88   D(24,25,26,21)         -0.2994         calculate D2E/DX2 analytically  !
 ! D89   D(24,25,26,31)       -179.7696         calculate D2E/DX2 analytically  !
 ! D90   D(30,25,26,21)        179.6638         calculate D2E/DX2 analytically  !
 ! D91   D(30,25,26,31)          0.1935         calculate D2E/DX2 analytically  !
 --------------------------------------------------------------------------------
 Trust Radius=3.00D-01 FncErr=1.00D-07 GrdErr=1.00D-06 EigMax=2.50D+02 EigMin=1.00D-04
 Number of steps in this run=    200 maximum allowed number of steps=    222.
 Search for a saddle point of order  1.
 GradGradGradGradGradGradGradGradGradGradGradGradGradGradGradGradGradGrad

                          Input orientation:                          
 ---------------------------------------------------------------------
 Center     Atomic      Atomic             Coordinates (Angstroms)
 Number     Number       Type             X           Y           Z
 ---------------------------------------------------------------------
      1          6           0        2.376053   -0.660387    0.238646
      2          6           0        2.241343   -1.128331   -1.273940
      3          8           0        3.060581   -2.005117   -1.548411
      4          8           0        1.359169   -0.583230   -2.006162
      5          1           0        0.097985    0.162197   -1.627323
      6          1           0        3.385762   -0.244971    0.327603
      7          7           0        1.421321    0.363539    0.718498
      8          6           0        1.456598    1.628317    0.301863
      9          6           0        0.477470    2.585824    0.546455
     10          1           0       -0.291871    2.374596    1.283129
     11          8           0       -0.628730    1.957028   -1.101151
     12          7           0       -0.762809    0.699150   -1.250184
     13          6           0        0.616501   -0.132117    1.850919
     14          1           0       -0.334368   -0.542052    1.487012
     15          1           0        0.398712    0.687307    2.540578
     16          6           0        1.505669   -1.229234    2.447429
     17          1           0        0.927965   -1.950827    3.032938
     18          1           0        2.254988   -0.778171    3.108944
     19          6           0        2.171146   -1.844846    1.207302
     20          1           0        3.114572   -2.348835    1.422277
     21          6           0       -1.819686    0.001279   -0.662858
     22          6           0       -2.854244    0.662710    0.018862
     23          6           0       -3.891083   -0.086045    0.567970
     24          6           0       -3.908307   -1.479057    0.440063
     25          6           0       -2.874766   -2.129894   -0.242707
     26          6           0       -1.826338   -1.400361   -0.793955
     27          1           0       -2.835750    1.744558    0.086533
     28          1           0       -4.697045    0.420099    1.092324
     29          1           0       -4.725302   -2.054042    0.866152
     30          1           0       -2.886526   -3.211139   -0.346380
     31          1           0       -1.015477   -1.884437   -1.331268
     32          1           0        1.509600   -2.585856    0.745940
     33          6           0        0.643816    4.013434    0.128263
     34          1           0        0.863713    4.661744    0.986894
     35          1           0        1.451272    4.126487   -0.601735
     36          1           0       -0.281267    4.379147   -0.332918
     37          1           0        2.240266    1.848190   -0.418986
 ---------------------------------------------------------------------
                    Distance matrix (angstroms):
                    1          2          3          4          5
     1  C    0.000000
     2  C    1.589036   0.000000
     3  O    2.338899   1.230950   0.000000
     4  O    2.465597   1.269455   2.264090   0.000000
     5  H    3.057463   2.526722   3.671574   1.513197   0.000000
     6  H    1.095443   2.157536   2.592930   3.109334   3.846687
     7  N    1.479931   2.620672   3.665594   2.885135   2.700858
     8  C    2.467298   3.270793   4.381566   3.198033   2.777966
     9  C    3.773228   4.496669   5.669009   4.163670   3.277695
    10  H    4.173714   5.022576   6.199874   4.721663   3.676605
    11  O    4.204122   4.217418   5.432279   3.350179   2.006587
    12  N    3.730605   3.516416   4.692580   2.592063   1.082367
    13  C    2.444282   3.660232   4.586622   3.953749   3.528973
    14  H    2.986436   3.821108   4.783308   3.882271   3.222108
    15  H    3.320399   4.608945   5.572659   4.817633   4.211600
    16  C    2.441286   3.794731   4.357348   4.502583   4.530040
    17  H    3.401509   4.577189   5.053687   5.239159   5.183799
    18  H    2.875264   4.396871   4.883168   5.196615   5.288590
    19  C    1.543770   2.583580   2.900127   3.546454   4.044912
    20  H    2.190262   3.085732   2.990994   4.237097   4.970426
    21  C    4.342204   4.259272   5.350405   3.500176   2.152568
    22  C    5.399528   5.553753   6.675238   4.837968   3.417030
    23  C    6.302009   6.487345   7.515819   5.868432   4.560000
    24  C    6.340660   6.393670   7.266097   5.876464   4.797726
    25  C    5.473779   5.314239   6.078551   4.840263   4.001011
    26  C    4.390207   4.104926   4.981657   3.504940   2.615169
    27  H    5.741933   5.990096   7.176338   5.234053   3.748062
    28  H    7.205896   7.492534   8.546105   6.876410   5.518633
    29  H    7.263971   7.346501   8.151839   6.887254   5.864574
    30  H    5.877357   5.611907   6.186069   5.261816   4.682683
    31  H    3.932608   3.343929   4.083621   2.790621   2.348650
    32  H    2.171525   2.596101   2.829637   3.406935   3.895745
    33  C    4.985723   5.563813   6.698876   5.118283   4.267557
    34  H    5.583200   6.366648   7.463313   6.059176   5.259885
    35  H    4.947284   5.356229   6.409574   4.915520   4.312634
    36  H    5.725813   6.130367   7.307818   5.487801   4.427413
    37  H    2.596897   3.096873   4.098352   3.034347   2.981949
                    6          7          8          9         10
     6  H    0.000000
     7  N    2.093349   0.000000
     8  C    2.689153   1.332101   0.000000
     9  C    4.064414   2.420538   1.391164   0.000000
    10  H    4.615208   2.701515   2.139383   1.085906   0.000000
    11  O    4.796487   3.170653   2.534777   2.081746   2.443896
    12  N    4.537777   2.959521   2.863209   2.885436   3.073528
    13  C    3.162599   1.475055   2.490876   3.017973   2.726011
    14  H    3.907922   2.119706   3.053300   3.365611   2.924074
    15  H    3.832606   2.114363   2.648862   2.754468   2.214730
    16  C    2.999531   2.352285   3.573718   4.384696   4.192175
    17  H    4.033553   3.310034   4.533045   5.192952   4.822771
    18  H    3.049395   2.777181   3.782633   4.587198   4.445226
    19  C    2.192889   2.382883   3.659680   4.789164   4.886296
    20  H    2.387069   3.274046   4.452184   5.663235   5.825291
    21  C    5.304559   3.541681   3.783117   3.663228   3.428370
    22  C    6.313231   4.342747   4.426719   3.882916   3.330868
    23  C    7.282548   5.333519   5.622059   5.120899   4.418205
    24  C    7.398585   5.646027   6.201377   5.980771   5.351636
    25  C    6.562957   5.059396   5.760332   5.839371   5.412019
    26  C    5.455163   3.993263   4.599063   4.795196   4.573748
    27  H    6.536326   4.519872   4.299317   3.449157   2.880991
    28  H    8.146096   6.130036   6.320755   5.635951   4.823072
    29  H    8.327793   6.606623   7.217623   6.978495   6.280288
    30  H    6.970940   5.698231   6.534775   6.761539   6.370869
    31  H    4.981025   3.897810   4.595401   5.073260   5.049558
    32  H    3.028982   2.950843   4.237838   5.277439   5.304711
    33  C    5.068729   3.778177   2.525774   1.496872   2.212468
    34  H    5.556190   4.342526   3.165827   2.156992   2.579569
    35  H    4.869863   3.987943   2.656571   2.154129   3.108115
    36  H    5.938506   4.486579   3.315145   2.136583   2.574868
    37  H    2.500176   2.041747   1.087246   2.140941   3.096129
                   11         12         13         14         15
    11  O    0.000000
    12  N    1.273752   0.000000
    13  C    3.824898   3.494330   0.000000
    14  H    3.609797   3.035850   1.097555   0.000000
    15  H    3.991243   3.964738   1.092940   1.777282   0.000000
    16  C    5.224973   4.747315   1.533007   2.186403   2.215211
    17  H    5.897908   5.312836   2.191320   2.442953   2.735375
    18  H    5.789822   5.503778   2.164406   3.064503   2.432371
    19  C    5.255712   4.595568   2.400959   2.837800   3.366147
    20  H    6.238626   5.609487   3.367184   3.894078   4.224293
    21  C    2.331401   1.396053   3.503124   2.668955   3.956504
    22  C    2.807597   2.446611   4.004279   3.155422   4.115991
    23  C    4.195600   3.702474   4.686832   3.701730   4.784516
    24  C    4.993761   4.182784   4.927337   3.840198   5.258870
    25  C    4.741786   3.671357   4.534681   3.459305   5.137991
    26  C    3.577806   2.397329   3.817232   2.857530   4.519769
    27  H    2.515288   2.678950   4.307320   3.666993   4.195457
    28  H    4.870798   4.587311   5.395756   4.484915   5.304298
    29  H    6.061424   5.268804   5.761807   4.685284   6.047662
    30  H    5.690103   4.540638   5.155550   4.122968   5.858771
    31  H    3.867736   2.597179   3.982498   3.195091   4.858497
    32  H    5.349953   4.465380   2.835391   2.850709   3.894662
    33  C    2.712865   3.855281   4.489308   4.853400   4.116122
    34  H    3.728647   4.832416   4.877372   5.363302   4.292588
    35  H    3.046699   4.131498   4.984783   5.417253   4.775979
    36  H    2.564678   3.823040   5.091820   5.247205   4.727476
    37  H    2.950988   3.321091   3.422090   3.996852   3.673961
                   16         17         18         19         20
    16  C    0.000000
    17  H    1.094193   0.000000
    18  H    1.096603   1.772537   0.000000
    19  C    1.536149   2.211262   2.181987   0.000000
    20  H    2.212015   2.744793   2.459820   1.090996   0.000000
    21  C    4.716570   5.001921   5.606871   4.778328   5.849592
    22  C    5.337249   5.497302   6.142393   5.740625   6.831233
    23  C    5.827879   5.725094   6.686537   6.344505   7.411428
    24  C    5.779539   5.507730   6.752805   6.138583   7.144375
    25  C    5.218834   5.022218   6.274958   5.257852   6.220312
    26  C    4.651680   4.747031   5.681282   4.492491   5.497625
    27  H    5.767598   6.041748   6.435429   6.261705   7.344822
    28  H    6.559746   6.405311   7.337123   7.232928   8.294409
    29  H    6.481184   6.055167   7.441936   6.908049   7.865100
    30  H    5.569981   5.249621   6.655356   5.464497   6.315449
    31  H    4.589555   4.777831   5.624522   4.074368   4.985477
    32  H    2.176121   2.443751   3.067102   1.095260   1.757710
    33  C    5.797145   6.640052   5.868544   6.149513   6.946767
    34  H    6.103187   6.922176   6.002618   6.640307   7.375916
    35  H    6.163125   7.100595   6.202481   6.280737   6.985198
    36  H    6.509793   7.270475   6.699025   6.864743   7.738099
    37  H    4.269251   5.298155   4.398213   4.035852   4.665799
                   21         22         23         24         25
    21  C    0.000000
    22  C    1.404473   0.000000
    23  C    2.411068   1.391829   0.000000
    24  C    2.787502   2.423969   1.398978   0.000000
    25  C    2.414875   2.804902   2.422275   1.399275   0.000000
    26  C    1.407773   2.444079   2.800971   2.421485   1.391148
    27  H    2.152439   1.084120   2.167168   3.415707   3.888612
    28  H    3.396361   2.146415   1.086602   2.157393   3.406681
    29  H    3.873606   3.405804   2.158204   1.086113   2.158658
    30  H    3.399696   3.891163   3.407548   2.159314   1.086268
    31  H    2.156258   3.419338   3.887213   3.416198   2.168449
    32  H    4.445461   5.488621   5.953831   5.538256   4.517520
    33  C    4.774107   4.845177   6.128979   7.140483   7.089324
    34  H    5.625144   5.545499   6.732391   7.796194   7.849490
    35  H    5.265002   5.560608   6.903216   7.825123   7.614841
    36  H    4.652023   4.533857   5.812083   6.933359   7.007281
    37  H    4.466964   5.248915   6.504521   7.043684   6.482266
                   26         27         28         29         30
    26  C    0.000000
    27  H    3.418287   0.000000
    28  H    3.887555   2.496042   0.000000
    29  H    3.404004   4.313650   2.484618   0.000000
    30  H    2.145516   4.974829   4.305083   2.488012   0.000000
    31  H    1.086522   4.300367   4.973794   4.315116   2.496190
    32  H    3.860720   6.170038   6.904939   6.258696   4.572753
    33  C    6.021738   4.154145   6.508937   8.135489   8.055002
    34  H    6.867089   4.796525   6.994619   8.738046   8.821802
    35  H    6.428509   4.952359   7.376242   8.860231   8.527746
    36  H    6.000209   3.693559   6.099547   7.910318   8.024961
    37  H    5.218329   5.102179   7.242222   8.086911   7.203199
                   31         32         33         34         35
    31  H    0.000000
    32  H    3.344069   0.000000
    33  C    6.298283   6.684440   0.000000
    34  H    7.194284   7.280311   1.098138   0.000000
    35  H    6.538217   6.846545   1.094378   1.776364   0.000000
    36  H    6.385002   7.272029   1.096454   1.769956   1.771381
    37  H    5.036331   4.642380   2.745253   3.433290   2.417963
                   36         37
    36  H    0.000000
    37  H    3.573693   0.000000
 Stoichiometry    C14H18N2O3
 Framework group  C1[X(C14H18N2O3)]
 Deg. of freedom   105
 Full point group                 C1      NOp   1
 Largest Abelian subgroup         C1      NOp   1
 Largest concise Abelian subgroup C1      NOp   1
                         Standard orientation:                         
 ---------------------------------------------------------------------
 Center     Atomic      Atomic             Coordinates (Angstroms)
 Number     Number       Type             X           Y           Z
 ---------------------------------------------------------------------
      1          6           0        2.376053   -0.660388    0.238646
      2          6           0        2.241343   -1.128331   -1.273940
      3          8           0        3.060581   -2.005118   -1.548411
      4          8           0        1.359169   -0.583230   -2.006162
      5          1           0        0.097985    0.162197   -1.627323
      6          1           0        3.385762   -0.244972    0.327603
      7          7           0        1.421321    0.363539    0.718498
      8          6           0        1.456598    1.628317    0.301863
      9          6           0        0.477470    2.585824    0.546455
     10          1           0       -0.291871    2.374596    1.283129
     11          8           0       -0.628730    1.957028   -1.101151
     12          7           0       -0.762809    0.699150   -1.250184
     13          6           0        0.616501   -0.132117    1.850919
     14          1           0       -0.334368   -0.542052    1.487012
     15          1           0        0.398712    0.687307    2.540578
     16          6           0        1.505669   -1.229234    2.447429
     17          1           0        0.927965   -1.950827    3.032938
     18          1           0        2.254988   -0.778171    3.108944
     19          6           0        2.171146   -1.844846    1.207302
     20          1           0        3.114572   -2.348836    1.422277
     21          6           0       -1.819686    0.001279   -0.662858
     22          6           0       -2.854244    0.662710    0.018862
     23          6           0       -3.891083   -0.086044    0.567970
     24          6           0       -3.908307   -1.479056    0.440063
     25          6           0       -2.874766   -2.129894   -0.242707
     26          6           0       -1.826338   -1.400361   -0.793955
     27          1           0       -2.835750    1.744558    0.086533
     28          1           0       -4.697045    0.420100    1.092324
     29          1           0       -4.725302   -2.054041    0.866152
     30          1           0       -2.886527   -3.211139   -0.346380
     31          1           0       -1.015477   -1.884437   -1.331268
     32          1           0        1.509600   -2.585856    0.745940
     33          6           0        0.643817    4.013434    0.128263
     34          1           0        0.863714    4.661744    0.986894
     35          1           0        1.451273    4.126487   -0.601735
     36          1           0       -0.281266    4.379147   -0.332918
     37          1           0        2.240266    1.848190   -0.418986
 ---------------------------------------------------------------------
 Rotational constants (GHZ):           0.4566543           0.3198708           0.2585498
 Standard basis: def2TZVPP (5D, 7F)
 There are   954 symmetry adapted cartesian basis functions of A   symmetry.
 There are   841 symmetry adapted basis functions of A   symmetry.
   841 basis functions,  1275 primitive gaussians,   954 cartesian basis functions
    70 alpha electrons       70 beta electrons
       nuclear repulsion energy      1504.1216096648 Hartrees.
 NAtoms=   37 NActive=   37 NUniq=   37 SFac= 1.00D+00 NAtFMM=   60 NAOKFM=F Big=F
 Integral buffers will be    131072 words long.
 Raffenetti 2 integral format.
 Two-electron integral symmetry is turned on.
 Nuclear repulsion after empirical dispersion term =     1504.1188853902 Hartrees.
 Force inversion solution in PCM.
 ------------------------------------------------------------------------------
 Polarizable Continuum Model (PCM)
 =================================
 Model                : PCM.
 Atomic radii         : SMD-Coulomb.
 Polarization charges : Total charges.
 Charge compensation  : None.
 Solution method      : Matrix inversion.
 Cavity type          : VdW (van der Waals Surface) (Alpha=1.000).
 Cavity algorithm     : GePol (No added spheres)
                        Default sphere list used, NSphG=   37.
                        Lebedev-Laikov grids with approx.  5.0 points / Ang**2.
                        Smoothing algorithm: York/Karplus (Gamma=1.0000).
                        Polarization charges: spherical gaussians, with
                                              point-specific exponents (IZeta= 3).
                        Self-potential: point-specific (ISelfS= 7).
                        Self-field    : sphere-specific E.n sum rule (ISelfD= 2).
 1st derivatives      : Analytical E(r).r(x)/FMM algorithm (CHGder, D1EAlg=3).
                        Cavity 1st derivative terms included.
 2nd derivatives      : Analytical E(r).r(xy)/FMM algorithm (CHGder, D2EAlg=3).
                        Cavity 2nd derivative terms included.
 Solvent              : Chloroform, Eps=   4.711300 Eps(inf)=   2.090627
 ------------------------------------------------------------------------------
 ------------------------------------------------------------------------------
 Atomic radii for non-electrostatic terms: SMD-CDS.
 ------------------------------------------------------------------------------
 Nuclear repulsion after PCM non-electrostatic terms =     1504.1113427889 Hartrees.
 One-electron integrals computed using PRISM.
   1 Symmetry operations used in ECPInt.
 ECPInt:  NShTT=   50403 NPrTT=  138022 LenC2=   45558 LenP2D=   92498.
 LDataN:  DoStor=T MaxTD1= 6 Len=  172
 NBasis=   841 RedAO= T EigKep=  8.23D-06  NBF=   841
 NBsUse=   841 1.00D-06 EigRej= -1.00D+00 NBFU=   841
 ExpMin= 9.52D-02 ExpMax= 2.70D+04 ExpMxC= 9.22D+02 IAcc=3 IRadAn=         5 AccDes= 0.00D+00
 Harris functional with IExCor= 1009 and IRadAn=       5 diagonalized for initial guess.
 HarFok:  IExCor= 1009 AccDes= 0.00D+00 IRadAn=         5 IDoV= 1 UseB2=F ITyADJ=14
 ICtDFT=  3500011 ScaDFX=  1.000000  1.000000  1.000000  1.000000
 FoFCou: FMM=F IPFlag=           0 FMFlag=      100000 FMFlg1=           0
         NFxFlg=           0 DoJE=T BraDBF=F KetDBF=T FulRan=T
         wScrn=  0.000000 ICntrl=       500 IOpCl=  0 I1Cent=   200000004 NGrid=           0
         NMat0=    1 NMatS0=      1 NMatT0=    0 NMatD0=    1 NMtDS0=    0 NMtDT0=    0
 Petite list used in FoFCou.
 Requested convergence on RMS density matrix=1.00D-08 within 128 cycles.
 Requested convergence on MAX density matrix=1.00D-06.
 Requested convergence on             energy=1.00D-06.
 No special actions if energy rises.
 Inv3:  Mode=1 IEnd=    21035712.
 Iteration    1 A*A^-1 deviation from unit magnitude is 1.13D-14 for   2648.
 Iteration    1 A*A^-1 deviation from orthogonality  is 2.58D-15 for   2641   2609.
 Iteration    1 A^-1*A deviation from unit magnitude is 1.11D-14 for   2648.
 Iteration    1 A^-1*A deviation from orthogonality  is 7.39D-15 for   1748   1715.
 Error on total polarization charges =  0.04362
 SCF Done:  E(RM062X) =  -879.398607340     A.U. after   15 cycles
            NFock= 15  Conv=0.80D-08     -V/T= 2.0055
 SMD-CDS (non-electrostatic) energy       (kcal/mol) =      -4.73
 (included in total energy above)
 DoSCS=F DFT=T ScalE2(SS,OS)=  1.000000  1.000000
 Range of M.O.s used for correlation:     1   841
 NBasis=   841 NAE=    70 NBE=    70 NFC=     0 NFV=     0
 NROrb=    841 NOA=    70 NOB=    70 NVA=   771 NVB=   771

 **** Warning!!: The largest alpha MO coefficient is  0.50114677D+02

   1 Symmetry operations used in ECPInt.
 ECPInt:  NShTT=   50403 NPrTT=  138022 LenC2=   45558 LenP2D=   92498.
 LDataN:  DoStor=T MaxTD1= 7 Len=  274
 Number of processors reduced to  15 by ecpmxn.
 Symmetrizing basis deriv contribution to polar:
 IMax=3 JMax=2 DiffMx= 0.00D+00
 G2DrvN: will do    38 centers at a time, making    1 passes.
 Calling FoFCou, ICntrl=  3107 FMM=F I1Cent=   0 AccDes= 0.00D+00.
 NEqPCM:  Using equilibrium solvation (IEInf=0, Eps=   4.7113, EpsInf=   2.0906)
 G2PCM: DoFxE=T DoFxN=T DoGrad=T DoDP/DQ/DG/TGxP=FFFF NFrqRd=   0 IEInf=0 SqF1=F DoCFld=F IF1Alg=4.
 End of G2Drv F.D. properties file   721 does not exist.
 End of G2Drv F.D. properties file   722 does not exist.
 End of G2Drv F.D. properties file   788 does not exist.
          IDoAtm=1111111111111111111111111111111111111
 NEqPCM:  Using equilibrium solvation (IEInf=0, Eps=   4.7113, EpsInf=   2.0906)
          Differentiating once with respect to nuclear coordinates.
 CalDSu exits because no D1Ps are significant.
          There are   114 degrees of freedom in the 1st order CPHF.  IDoFFX=6 NUNeed=     0.
    108 vectors produced by pass  0 Test12= 5.40D-14 1.00D-09 XBig12= 1.41D-01 7.98D-02.
 AX will form   108 AO Fock derivatives at one time.
    108 vectors produced by pass  1 Test12= 5.40D-14 1.00D-09 XBig12= 3.79D-02 5.00D-02.
    108 vectors produced by pass  2 Test12= 5.40D-14 1.00D-09 XBig12= 7.40D-04 2.64D-03.
    108 vectors produced by pass  3 Test12= 5.40D-14 1.00D-09 XBig12= 8.39D-06 4.25D-04.
    108 vectors produced by pass  4 Test12= 5.40D-14 1.00D-09 XBig12= 6.56D-08 3.54D-05.
    108 vectors produced by pass  5 Test12= 5.40D-14 1.00D-09 XBig12= 4.35D-10 1.58D-06.
     92 vectors produced by pass  6 Test12= 5.40D-14 1.00D-09 XBig12= 2.31D-12 1.15D-07.
     23 vectors produced by pass  7 Test12= 5.40D-14 1.00D-09 XBig12= 1.09D-14 8.23D-09.
     15 vectors produced by pass  8 Test12= 5.40D-14 1.00D-09 XBig12= 2.32D-15 4.04D-09.
     11 vectors produced by pass  9 Test12= 5.40D-14 1.00D-09 XBig12= 3.00D-15 4.57D-09.
     11 vectors produced by pass 10 Test12= 5.40D-14 1.00D-09 XBig12= 4.30D-15 6.19D-09.
      2 vectors produced by pass 11 Test12= 5.40D-14 1.00D-09 XBig12= 6.83D-16 2.33D-09.
 InvSVY:  IOpt=1 It=  1 EMax= 6.94D-16
 Solved reduced A of dimension   802 with   114 vectors.
 End of Minotr F.D. properties file   721 does not exist.
 End of Minotr F.D. properties file   722 does not exist.
 End of Minotr F.D. properties file   788 does not exist.

 **********************************************************************

            Population analysis using the SCF density.

 **********************************************************************

 Orbital symmetries:
       Occupied  (A) (A) (A) (A) (A) (A) (A) (A) (A) (A) (A) (A)
                 (A) (A) (A) (A) (A) (A) (A) (A) (A) (A) (A) (A)
                 (A) (A) (A) (A) (A) (A) (A) (A) (A) (A) (A) (A)
                 (A) (A) (A) (A) (A) (A) (A) (A) (A) (A) (A) (A)
                 (A) (A) (A) (A) (A) (A) (A) (A) (A) (A) (A) (A)
                 (A) (A) (A) (A) (A) (A) (A) (A) (A) (A)
       Virtual   (A) (A) (A) (A) (A) (A) (A) (A) (A) (A) (A) (A)
                 (A) (A) (A) (A) (A) (A) (A) (A) (A) (A) (A) (A)
                 (A) (A) (A) (A) (A) (A) (A) (A) (A) (A) (A) (A)
                 (A) (A) (A) (A) (A) (A) (A) (A) (A) (A) (A) (A)
                 (A) (A) (A) (A) (A) (A) (A) (A) (A) (A) (A) (A)
                 (A) (A) (A) (A) (A) (A) (A) (A) (A) (A) (A) (A)
                 (A) (A) (A) (A) (A) (A) (A) (A) (A) (A) (A) (A)
                 (A) (A) (A) (A) (A) (A) (A) (A) (A) (A) (A) (A)
                 (A) (A) (A) (A) (A) (A) (A) (A) (A) (A) (A) (A)
                 (A) (A) (A) (A) (A) (A) (A) (A) (A) (A) (A) (A)
                 (A) (A) (A) (A) (A) (A) (A) (A) (A) (A) (A) (A)
                 (A) (A) (A) (A) (A) (A) (A) (A) (A) (A) (A) (A)
                 (A) (A) (A) (A) (A) (A) (A) (A) (A) (A) (A) (A)
                 (A) (A) (A) (A) (A) (A) (A) (A) (A) (A) (A) (A)
                 (A) (A) (A) (A) (A) (A) (A) (A) (A) (A) (A) (A)
                 (A) (A) (A) (A) (A) (A) (A) (A) (A) (A) (A) (A)
                 (A) (A) (A) (A) (A) (A) (A) (A) (A) (A) (A) (A)
                 (A) (A) (A) (A) (A) (A) (A) (A) (A) (A) (A) (A)
                 (A) (A) (A) (A) (A) (A) (A) (A) (A) (A) (A) (A)
                 (A) (A) (A) (A) (A) (A) (A) (A) (A) (A) (A) (A)
                 (A) (A) (A) (A) (A) (A) (A) (A) (A) (A) (A) (A)
                 (A) (A) (A) (A) (A) (A) (A) (A) (A) (A) (A) (A)
                 (A) (A) (A) (A) (A) (A) (A) (A) (A) (A) (A) (A)
                 (A) (A) (A) (A) (A) (A) (A) (A) (A) (A) (A) (A)
                 (A) (A) (A) (A) (A) (A) (A) (A) (A) (A) (A) (A)
                 (A) (A) (A) (A) (A) (A) (A) (A) (A) (A) (A) (A)
                 (A) (A) (A) (A) (A) (A) (A) (A) (A) (A) (A) (A)
                 (A) (A) (A) (A) (A) (A) (A) (A) (A) (A) (A) (A)
                 (A) (A) (A) (A) (A) (A) (A) (A) (A) (A) (A) (A)
                 (A) (A) (A) (A) (A) (A) (A) (A) (A) (A) (A) (A)
                 (A) (A) (A) (A) (A) (A) (A) (A) (A) (A) (A) (A)
                 (A) (A) (A) (A) (A) (A) (A) (A) (A) (A) (A) (A)
                 (A) (A) (A) (A) (A) (A) (A) (A) (A) (A) (A) (A)
                 (A) (A) (A) (A) (A) (A) (A) (A) (A) (A) (A) (A)
                 (A) (A) (A) (A) (A) (A) (A) (A) (A) (A) (A) (A)
                 (A) (A) (A) (A) (A) (A) (A) (A) (A) (A) (A) (A)
                 (A) (A) (A) (A) (A) (A) (A) (A) (A) (A) (A) (A)
                 (A) (A) (A) (A) (A) (A) (A) (A) (A) (A) (A) (A)
                 (A) (A) (A) (A) (A) (A) (A) (A) (A) (A) (A) (A)
                 (A) (A) (A) (A) (A) (A) (A) (A) (A) (A) (A) (A)
                 (A) (A) (A) (A) (A) (A) (A) (A) (A) (A) (A) (A)
                 (A) (A) (A) (A) (A) (A) (A) (A) (A) (A) (A) (A)
                 (A) (A) (A) (A) (A) (A) (A) (A) (A) (A) (A) (A)
                 (A) (A) (A) (A) (A) (A) (A) (A) (A) (A) (A) (A)
                 (A) (A) (A) (A) (A) (A) (A) (A) (A) (A) (A) (A)
                 (A) (A) (A) (A) (A) (A) (A) (A) (A) (A) (A) (A)
                 (A) (A) (A) (A) (A) (A) (A) (A) (A) (A) (A) (A)
                 (A) (A) (A) (A) (A) (A) (A) (A) (A) (A) (A) (A)
                 (A) (A) (A) (A) (A) (A) (A) (A) (A) (A) (A) (A)
                 (A) (A) (A) (A) (A) (A) (A) (A) (A) (A) (A) (A)
                 (A) (A) (A) (A) (A) (A) (A) (A) (A) (A) (A) (A)
                 (A) (A) (A) (A) (A) (A) (A) (A) (A) (A) (A) (A)
                 (A) (A) (A) (A) (A) (A) (A) (A) (A) (A) (A) (A)
                 (A) (A) (A) (A) (A) (A) (A) (A) (A) (A) (A) (A)
                 (A) (A) (A) (A) (A) (A) (A) (A) (A) (A) (A) (A)
                 (A) (A) (A) (A) (A) (A) (A) (A) (A) (A) (A) (A)
                 (A) (A) (A) (A) (A) (A) (A) (A) (A) (A) (A) (A)
                 (A) (A) (A) (A) (A) (A) (A) (A) (A) (A) (A) (A)
                 (A) (A) (A) (A) (A) (A) (A) (A) (A) (A) (A) (A)
                 (A) (A) (A) (A) (A) (A) (A) (A) (A) (A) (A) (A)
                 (A) (A) (A) (A) (A) (A) (A) (A) (A) (A) (A) (A)
                 (A) (A) (A) (A) (A) (A) (A) (A) (A) (A) (A) (A)
                 (A) (A) (A) (A) (A) (A) (A) (A) (A) (A) (A) (A)
                 (A) (A) (A) (A) (A) (A) (A) (A) (A) (A) (A) (A)
                 (A) (A) (A)
 The electronic state is 1-A.
 Alpha  occ. eigenvalues --  -19.69635 -19.58111 -19.56776 -14.85094 -14.82422
 Alpha  occ. eigenvalues --  -10.63466 -10.60747 -10.59445 -10.58479 -10.58185
 Alpha  occ. eigenvalues --  -10.57888 -10.55656 -10.55563 -10.55444 -10.55371
 Alpha  occ. eigenvalues --  -10.55109 -10.54440 -10.54058 -10.53760  -1.25119
 Alpha  occ. eigenvalues --   -1.15871  -1.09896  -1.06958  -0.98988  -0.93263
 Alpha  occ. eigenvalues --   -0.91912  -0.87535  -0.85530  -0.84679  -0.81159
 Alpha  occ. eigenvalues --   -0.78455  -0.71823  -0.71326  -0.69039  -0.68749
 Alpha  occ. eigenvalues --   -0.65186  -0.63857  -0.61822  -0.61044  -0.59844
 Alpha  occ. eigenvalues --   -0.57008  -0.56730  -0.54619  -0.53704  -0.51985
 Alpha  occ. eigenvalues --   -0.51574  -0.51057  -0.50311  -0.49817  -0.49121
 Alpha  occ. eigenvalues --   -0.48421  -0.48128  -0.47435  -0.46260  -0.45241
 Alpha  occ. eigenvalues --   -0.44731  -0.43576  -0.43191  -0.42113  -0.41488
 Alpha  occ. eigenvalues --   -0.41116  -0.39958  -0.38965  -0.38086  -0.33701
 Alpha  occ. eigenvalues --   -0.33120  -0.32418  -0.32142  -0.30712  -0.24962
 Alpha virt. eigenvalues --   -0.08274   0.00747   0.02983   0.05571   0.06316
 Alpha virt. eigenvalues --    0.07841   0.08980   0.09053   0.09305   0.10343
 Alpha virt. eigenvalues --    0.10954   0.11429   0.11980   0.13373   0.13466
 Alpha virt. eigenvalues --    0.13840   0.14663   0.14810   0.15080   0.15790
 Alpha virt. eigenvalues --    0.17201   0.17369   0.17497   0.17687   0.18841
 Alpha virt. eigenvalues --    0.19176   0.19517   0.20223   0.20292   0.20977
 Alpha virt. eigenvalues --    0.21791   0.22767   0.22990   0.23201   0.23920
 Alpha virt. eigenvalues --    0.24403   0.25312   0.25435   0.25880   0.26594
 Alpha virt. eigenvalues --    0.26676   0.27630   0.28376   0.28681   0.29541
 Alpha virt. eigenvalues --    0.30270   0.30641   0.31097   0.31354   0.31507
 Alpha virt. eigenvalues --    0.32122   0.32556   0.33473   0.34392   0.35246
 Alpha virt. eigenvalues --    0.35761   0.36488   0.36728   0.37007   0.37882
 Alpha virt. eigenvalues --    0.38616   0.39056   0.39486   0.40174   0.40216
 Alpha virt. eigenvalues --    0.41294   0.41913   0.42463   0.42498   0.42618
 Alpha virt. eigenvalues --    0.43140   0.43892   0.44347   0.44981   0.45225
 Alpha virt. eigenvalues --    0.45532   0.46050   0.46294   0.46493   0.47127
 Alpha virt. eigenvalues --    0.47474   0.48106   0.48519   0.48618   0.48871
 Alpha virt. eigenvalues --    0.49224   0.50089   0.50266   0.50670   0.50877
 Alpha virt. eigenvalues --    0.51653   0.51975   0.52634   0.52818   0.53117
 Alpha virt. eigenvalues --    0.54101   0.54180   0.55182   0.55419   0.56317
 Alpha virt. eigenvalues --    0.56817   0.57756   0.58173   0.58854   0.59611
 Alpha virt. eigenvalues --    0.60315   0.61097   0.62196   0.62762   0.63331
 Alpha virt. eigenvalues --    0.63609   0.64277   0.65376   0.66142   0.67658
 Alpha virt. eigenvalues --    0.68608   0.68938   0.69347   0.69752   0.70477
 Alpha virt. eigenvalues --    0.70948   0.71289   0.72242   0.72568   0.73459
 Alpha virt. eigenvalues --    0.74027   0.74653   0.75345   0.76754   0.76941
 Alpha virt. eigenvalues --    0.77396   0.77958   0.78773   0.79513   0.80479
 Alpha virt. eigenvalues --    0.81761   0.82393   0.82751   0.84158   0.84663
 Alpha virt. eigenvalues --    0.85092   0.85962   0.87596   0.87961   0.88543
 Alpha virt. eigenvalues --    0.89028   0.89889   0.90283   0.90620   0.91755
 Alpha virt. eigenvalues --    0.92208   0.93113   0.94092   0.94568   0.95090
 Alpha virt. eigenvalues --    0.95819   0.96595   0.96835   0.97617   0.98889
 Alpha virt. eigenvalues --    0.99509   0.99887   1.00732   1.01475   1.02190
 Alpha virt. eigenvalues --    1.02837   1.03152   1.03596   1.04398   1.05384
 Alpha virt. eigenvalues --    1.05907   1.06596   1.07964   1.08310   1.09248
 Alpha virt. eigenvalues --    1.09768   1.09982   1.10646   1.11138   1.12165
 Alpha virt. eigenvalues --    1.12429   1.13440   1.13643   1.14346   1.14813
 Alpha virt. eigenvalues --    1.15085   1.15509   1.16368   1.17065   1.17220
 Alpha virt. eigenvalues --    1.18475   1.19506   1.20957   1.21159   1.21376
 Alpha virt. eigenvalues --    1.21771   1.22044   1.22918   1.23633   1.24229
 Alpha virt. eigenvalues --    1.25056   1.25842   1.26954   1.27595   1.27801
 Alpha virt. eigenvalues --    1.28672   1.29467   1.30409   1.31661   1.32664
 Alpha virt. eigenvalues --    1.33148   1.33286   1.33752   1.34354   1.35212
 Alpha virt. eigenvalues --    1.36125   1.36520   1.36751   1.37991   1.38398
 Alpha virt. eigenvalues --    1.39008   1.40013   1.40400   1.41878   1.41982
 Alpha virt. eigenvalues --    1.42356   1.43395   1.44665   1.45676   1.45838
 Alpha virt. eigenvalues --    1.46579   1.47082   1.47578   1.48093   1.48929
 Alpha virt. eigenvalues --    1.49453   1.49814   1.50454   1.51395   1.51989
 Alpha virt. eigenvalues --    1.52513   1.52892   1.53914   1.54726   1.55119
 Alpha virt. eigenvalues --    1.55528   1.56426   1.57284   1.57570   1.58106
 Alpha virt. eigenvalues --    1.58872   1.59265   1.60541   1.60678   1.62414
 Alpha virt. eigenvalues --    1.62684   1.63615   1.64989   1.65772   1.66060
 Alpha virt. eigenvalues --    1.66600   1.67807   1.68204   1.68803   1.69831
 Alpha virt. eigenvalues --    1.70665   1.71292   1.72308   1.72742   1.73579
 Alpha virt. eigenvalues --    1.74317   1.74997   1.76609   1.77366   1.78140
 Alpha virt. eigenvalues --    1.78689   1.79479   1.80568   1.82278   1.83219
 Alpha virt. eigenvalues --    1.84679   1.85272   1.86149   1.87263   1.88010
 Alpha virt. eigenvalues --    1.89985   1.91303   1.92584   1.93428   1.93964
 Alpha virt. eigenvalues --    1.95098   1.96422   1.97529   1.97664   1.99199
 Alpha virt. eigenvalues --    2.00513   2.01380   2.02401   2.02870   2.03878
 Alpha virt. eigenvalues --    2.05718   2.07366   2.08870   2.09443   2.11714
 Alpha virt. eigenvalues --    2.12626   2.13707   2.14654   2.15360   2.17435
 Alpha virt. eigenvalues --    2.18258   2.19018   2.19796   2.23382   2.24322
 Alpha virt. eigenvalues --    2.25730   2.25787   2.26954   2.28803   2.29319
 Alpha virt. eigenvalues --    2.30651   2.31519   2.32086   2.33746   2.36431
 Alpha virt. eigenvalues --    2.37722   2.38319   2.39582   2.39789   2.40396
 Alpha virt. eigenvalues --    2.41163   2.41722   2.43510   2.44021   2.45479
 Alpha virt. eigenvalues --    2.47625   2.49935   2.51004   2.53795   2.54529
 Alpha virt. eigenvalues --    2.56135   2.56977   2.57594   2.58918   2.59904
 Alpha virt. eigenvalues --    2.60865   2.61403   2.61768   2.63179   2.64986
 Alpha virt. eigenvalues --    2.65297   2.66188   2.67623   2.67945   2.68267
 Alpha virt. eigenvalues --    2.69235   2.70261   2.70539   2.71704   2.72076
 Alpha virt. eigenvalues --    2.72568   2.73279   2.75300   2.76082   2.76521
 Alpha virt. eigenvalues --    2.76970   2.77390   2.78480   2.78601   2.80357
 Alpha virt. eigenvalues --    2.80591   2.81107   2.82017   2.82782   2.83586
 Alpha virt. eigenvalues --    2.84197   2.85036   2.86025   2.86802   2.87203
 Alpha virt. eigenvalues --    2.87990   2.88566   2.89427   2.90744   2.91157
 Alpha virt. eigenvalues --    2.92108   2.92976   2.93252   2.94346   2.95243
 Alpha virt. eigenvalues --    2.95660   2.96609   2.97252   2.97964   2.98582
 Alpha virt. eigenvalues --    2.99409   3.00726   3.01868   3.01900   3.02401
 Alpha virt. eigenvalues --    3.03435   3.03586   3.04589   3.05118   3.05996
 Alpha virt. eigenvalues --    3.06107   3.06927   3.07307   3.07647   3.08030
 Alpha virt. eigenvalues --    3.08455   3.09693   3.09800   3.10002   3.11383
 Alpha virt. eigenvalues --    3.12292   3.12464   3.12633   3.13494   3.13983
 Alpha virt. eigenvalues --    3.14749   3.15088   3.16056   3.17018   3.17399
 Alpha virt. eigenvalues --    3.17643   3.18040   3.19224   3.19536   3.19920
 Alpha virt. eigenvalues --    3.20375   3.20820   3.21427   3.22572   3.23291
 Alpha virt. eigenvalues --    3.24005   3.24366   3.24962   3.25873   3.26615
 Alpha virt. eigenvalues --    3.27285   3.27566   3.28483   3.29243   3.29682
 Alpha virt. eigenvalues --    3.30205   3.30712   3.31585   3.32127   3.33497
 Alpha virt. eigenvalues --    3.34244   3.35276   3.35549   3.36473   3.37502
 Alpha virt. eigenvalues --    3.37906   3.38315   3.39457   3.39998   3.40968
 Alpha virt. eigenvalues --    3.41307   3.41781   3.42884   3.43359   3.43838
 Alpha virt. eigenvalues --    3.44298   3.45083   3.46005   3.46200   3.46343
 Alpha virt. eigenvalues --    3.47264   3.47861   3.48154   3.49522   3.50617
 Alpha virt. eigenvalues --    3.51453   3.51850   3.52616   3.52901   3.53151
 Alpha virt. eigenvalues --    3.53949   3.54961   3.55937   3.57268   3.57380
 Alpha virt. eigenvalues --    3.57710   3.59135   3.59666   3.60910   3.61437
 Alpha virt. eigenvalues --    3.62511   3.63577   3.64628   3.64890   3.65853
 Alpha virt. eigenvalues --    3.66176   3.67070   3.67846   3.68421   3.69857
 Alpha virt. eigenvalues --    3.71068   3.71689   3.71734   3.71932   3.72494
 Alpha virt. eigenvalues --    3.73293   3.74134   3.74970   3.75653   3.76227
 Alpha virt. eigenvalues --    3.76756   3.77730   3.78688   3.79276   3.80454
 Alpha virt. eigenvalues --    3.80767   3.81573   3.81660   3.81948   3.82672
 Alpha virt. eigenvalues --    3.83349   3.84164   3.85100   3.85658   3.86533
 Alpha virt. eigenvalues --    3.87279   3.87621   3.88671   3.89569   3.90130
 Alpha virt. eigenvalues --    3.91095   3.92041   3.92872   3.94042   3.94729
 Alpha virt. eigenvalues --    3.95248   3.95749   3.96657   3.96971   3.98336
 Alpha virt. eigenvalues --    3.98574   3.99811   4.00694   4.01443   4.02480
 Alpha virt. eigenvalues --    4.02678   4.03986   4.04897   4.05226   4.06357
 Alpha virt. eigenvalues --    4.06941   4.07063   4.07733   4.08491   4.08553
 Alpha virt. eigenvalues --    4.09519   4.10170   4.11433   4.12217   4.12781
 Alpha virt. eigenvalues --    4.14028   4.14720   4.15372   4.15599   4.16172
 Alpha virt. eigenvalues --    4.17319   4.17886   4.18090   4.18772   4.19534
 Alpha virt. eigenvalues --    4.20130   4.20401   4.21052   4.21695   4.22818
 Alpha virt. eigenvalues --    4.23344   4.24202   4.24919   4.25685   4.26056
 Alpha virt. eigenvalues --    4.26457   4.27822   4.28147   4.30162   4.30717
 Alpha virt. eigenvalues --    4.31670   4.32632   4.33365   4.34545   4.35048
 Alpha virt. eigenvalues --    4.36210   4.37239   4.38409   4.38827   4.40894
 Alpha virt. eigenvalues --    4.42553   4.43387   4.44205   4.45655   4.47272
 Alpha virt. eigenvalues --    4.49969   4.51381   4.52806   4.54069   4.55241
 Alpha virt. eigenvalues --    4.56771   4.57477   4.58926   4.59784   4.60132
 Alpha virt. eigenvalues --    4.60466   4.61491   4.62364   4.63107   4.63655
 Alpha virt. eigenvalues --    4.65258   4.65514   4.66292   4.67284   4.67923
 Alpha virt. eigenvalues --    4.68670   4.69888   4.70749   4.72067   4.72780
 Alpha virt. eigenvalues --    4.73163   4.74299   4.75425   4.76973   4.77063
 Alpha virt. eigenvalues --    4.77992   4.79609   4.79998   4.80789   4.81589
 Alpha virt. eigenvalues --    4.83497   4.84670   4.85744   4.86236   4.88206
 Alpha virt. eigenvalues --    4.88616   4.90095   4.91973   4.92826   4.93239
 Alpha virt. eigenvalues --    4.94901   4.95578   4.98880   4.99110   4.99591
 Alpha virt. eigenvalues --    5.02224   5.03259   5.04581   5.05810   5.09336
 Alpha virt. eigenvalues --    5.10427   5.10811   5.11686   5.13067   5.14206
 Alpha virt. eigenvalues --    5.14414   5.16579   5.18024   5.18603   5.19105
 Alpha virt. eigenvalues --    5.19912   5.22058   5.22455   5.24634   5.25578
 Alpha virt. eigenvalues --    5.26049   5.27330   5.27486   5.28344   5.28923
 Alpha virt. eigenvalues --    5.29250   5.29906   5.30421   5.31956   5.33213
 Alpha virt. eigenvalues --    5.33861   5.34500   5.34591   5.36979   5.37607
 Alpha virt. eigenvalues --    5.38657   5.39493   5.40948   5.41645   5.42530
 Alpha virt. eigenvalues --    5.43053   5.43959   5.45472   5.46667   5.48109
 Alpha virt. eigenvalues --    5.49606   5.51192   5.51288   5.52195   5.54107
 Alpha virt. eigenvalues --    5.56614   5.56805   5.58366   5.58698   5.60481
 Alpha virt. eigenvalues --    5.61230   5.62184   5.63348   5.66296   5.67886
 Alpha virt. eigenvalues --    5.68623   5.69892   5.70914   5.71456   5.76920
 Alpha virt. eigenvalues --    5.77528   5.80871   5.82550   5.91722   5.93320
 Alpha virt. eigenvalues --    5.95066   5.98931   6.01478   6.02755   6.08897
 Alpha virt. eigenvalues --    6.11596   6.14857   6.15755   6.24393   6.25980
 Alpha virt. eigenvalues --    6.27421   6.42014   6.43592   6.48043   6.49321
 Alpha virt. eigenvalues --    6.51399   6.55038   6.59294   6.60982   6.70602
 Alpha virt. eigenvalues --    6.79565   6.84973   6.92013   6.95705   7.00854
 Alpha virt. eigenvalues --    7.04027   7.08437   7.18862   7.19977   7.29080
 Alpha virt. eigenvalues --    7.53469   7.66760  22.87548  23.09626  23.11620
 Alpha virt. eigenvalues --   23.20483  23.24539  23.26851  23.33205  23.42697
 Alpha virt. eigenvalues --   23.46333  23.52438  23.60286  23.65370  23.70245
 Alpha virt. eigenvalues --   24.08235  32.86232  33.33899  44.11883  44.28287
 Alpha virt. eigenvalues --   44.32908
          Condensed to atoms (all electrons):
               1          2          3          4          5          6
     1  C    6.092674   0.086068  -0.199112  -0.181821   0.012066   0.396680
     2  C    0.086068   4.381404   0.700645   0.508764  -0.012164  -0.021370
     3  O   -0.199112   0.700645   8.015854  -0.089406   0.000240   0.007482
     4  O   -0.181821   0.508764  -0.089406   8.192073   0.111034   0.004709
     5  H    0.012066  -0.012164   0.000240   0.111034   0.364660  -0.000561
     6  H    0.396680  -0.021370   0.007482   0.004709  -0.000561   0.514779
     7  N    0.049908   0.011545   0.014353   0.000434  -0.005138  -0.024247
     8  C   -0.124914   0.017470   0.001474   0.035437  -0.001560  -0.016785
     9  C    0.002640  -0.000633  -0.000013  -0.008000  -0.001174   0.000500
    10  H   -0.000541   0.000042   0.000000  -0.000002  -0.000094  -0.000019
    11  O    0.001894  -0.000164  -0.000003   0.003543  -0.030861  -0.000179
    12  N   -0.004327   0.000075  -0.000175  -0.073540   0.365757   0.000915
    13  C   -0.040984  -0.001771  -0.000551   0.002442  -0.000337   0.007655
    14  H    0.002019   0.001823  -0.000088  -0.000259   0.000347  -0.001101
    15  H    0.004301  -0.000229   0.000019  -0.000007  -0.000056   0.000427
    16  C   -0.044068   0.004333   0.004352  -0.001301   0.000260  -0.006319
    17  H    0.008310   0.000161  -0.000014   0.000019  -0.000005  -0.000201
    18  H    0.002934  -0.000085  -0.000091   0.000033  -0.000003   0.001142
    19  C    0.166492  -0.005279   0.012830  -0.002550  -0.000615  -0.027147
    20  H   -0.034203  -0.001552   0.001890   0.000039  -0.000014  -0.007744
    21  C   -0.007240   0.004463   0.000404  -0.009534  -0.036884  -0.000151
    22  C    0.001429  -0.000498  -0.000004  -0.001382   0.007927  -0.000015
    23  C   -0.000403   0.000134   0.000001   0.000114  -0.000400   0.000002
    24  C    0.000271  -0.000110  -0.000001  -0.000059   0.000251  -0.000001
    25  C   -0.000249  -0.000033  -0.000053   0.002145  -0.001133   0.000020
    26  C    0.004604  -0.002072   0.000015   0.004012   0.003126   0.000094
    27  H    0.000084  -0.000037  -0.000000  -0.000079   0.000368   0.000000
    28  H   -0.000001   0.000000   0.000000   0.000000   0.000003   0.000000
    29  H    0.000000  -0.000000  -0.000000  -0.000000  -0.000000  -0.000000
    30  H   -0.000053   0.000020   0.000002  -0.000012  -0.000023   0.000000
    31  H    0.009637  -0.002521  -0.001253   0.010790   0.002850   0.000004
    32  H   -0.048598  -0.001882   0.001015   0.001403  -0.000064   0.005567
    33  C   -0.000314   0.000071   0.000000   0.000222  -0.000443  -0.000054
    34  H   -0.000009   0.000002  -0.000000   0.000000   0.000019  -0.000011
    35  H    0.000046  -0.000022   0.000000  -0.000059  -0.000036   0.000013
    36  H    0.000026  -0.000003   0.000000  -0.000004  -0.000010   0.000008
    37  H    0.004713  -0.003642  -0.000317   0.000604  -0.000602  -0.001052
               7          8          9         10         11         12
     1  C    0.049908  -0.124914   0.002640  -0.000541   0.001894  -0.004327
     2  C    0.011545   0.017470  -0.000633   0.000042  -0.000164   0.000075
     3  O    0.014353   0.001474  -0.000013   0.000000  -0.000003  -0.000175
     4  O    0.000434   0.035437  -0.008000  -0.000002   0.003543  -0.073540
     5  H   -0.005138  -0.001560  -0.001174  -0.000094  -0.030861   0.365757
     6  H   -0.024247  -0.016785   0.000500  -0.000019  -0.000179   0.000915
     7  N    6.546328   0.394663  -0.044466  -0.003891  -0.026567   0.051909
     8  C    0.394663   5.131604   0.320981  -0.054157   0.026408  -0.032361
     9  C   -0.044466   0.320981   5.321421   0.435988   0.014450  -0.082719
    10  H   -0.003891  -0.054157   0.435988   0.474078  -0.009565  -0.005314
    11  O   -0.026567   0.026408   0.014450  -0.009565   8.200967   0.181676
    12  N    0.051909  -0.032361  -0.082719  -0.005314   0.181676   6.323486
    13  C    0.222426  -0.078872  -0.006773  -0.000591  -0.001402   0.005749
    14  H   -0.066035   0.010070   0.000888  -0.000705   0.002848  -0.016232
    15  H   -0.021214  -0.011285   0.000431  -0.005141  -0.000906   0.002814
    16  C   -0.019713   0.000439   0.001048  -0.000042  -0.000131  -0.000028
    17  H    0.004954   0.000177  -0.000066   0.000022   0.000007  -0.000067
    18  H    0.000702   0.001224   0.000223  -0.000015   0.000002   0.000012
    19  C   -0.057733   0.013410  -0.001912   0.000010   0.000042  -0.000964
    20  H    0.006529  -0.000234   0.000083   0.000003   0.000001  -0.000001
    21  C   -0.006975   0.001850   0.026129   0.006841  -0.087705   0.272334
    22  C    0.002104  -0.002666  -0.005242  -0.001723   0.008442  -0.060723
    23  C    0.000026   0.001086  -0.002467   0.000131  -0.003288   0.010383
    24  C    0.000151  -0.000196   0.000029  -0.000109   0.000936  -0.001733
    25  C   -0.000150   0.000381  -0.000398   0.000007  -0.001211   0.009305
    26  C   -0.000965  -0.006725   0.007525  -0.000090   0.014640  -0.042985
    27  H    0.000433  -0.001498   0.000258  -0.001863   0.016714  -0.006916
    28  H   -0.000001   0.000002   0.000013   0.000019  -0.000059  -0.000140
    29  H    0.000000  -0.000000   0.000001  -0.000000   0.000002   0.000003
    30  H    0.000007   0.000006  -0.000003   0.000000   0.000004  -0.000149
    31  H   -0.000799  -0.001861   0.000699  -0.000002   0.000284   0.002808
    32  H   -0.001157  -0.000690  -0.000013  -0.000002  -0.000021   0.000067
    33  C    0.003256  -0.045425   0.264583  -0.012844  -0.004801   0.005224
    34  H   -0.000292  -0.005453  -0.039905  -0.001210   0.001623  -0.000377
    35  H    0.000393  -0.009952  -0.034635   0.004464  -0.000964  -0.000385
    36  H    0.000050   0.009992  -0.052498  -0.005291   0.002991   0.002242
    37  H   -0.027480   0.425209  -0.028069   0.001771  -0.002450   0.000398
              13         14         15         16         17         18
     1  C   -0.040984   0.002019   0.004301  -0.044068   0.008310   0.002934
     2  C   -0.001771   0.001823  -0.000229   0.004333   0.000161  -0.000085
     3  O   -0.000551  -0.000088   0.000019   0.004352  -0.000014  -0.000091
     4  O    0.002442  -0.000259  -0.000007  -0.001301   0.000019   0.000033
     5  H   -0.000337   0.000347  -0.000056   0.000260  -0.000005  -0.000003
     6  H    0.007655  -0.001101   0.000427  -0.006319  -0.000201   0.001142
     7  N    0.222426  -0.066035  -0.021214  -0.019713   0.004954   0.000702
     8  C   -0.078872   0.010070  -0.011285   0.000439   0.000177   0.001224
     9  C   -0.006773   0.000888   0.000431   0.001048  -0.000066   0.000223
    10  H   -0.000591  -0.000705  -0.005141  -0.000042   0.000022  -0.000015
    11  O   -0.001402   0.002848  -0.000906  -0.000131   0.000007   0.000002
    12  N    0.005749  -0.016232   0.002814  -0.000028  -0.000067   0.000012
    13  C    5.136583   0.429175   0.419992   0.216712  -0.038873  -0.049693
    14  H    0.429175   0.532122  -0.026829  -0.045821  -0.003915   0.005388
    15  H    0.419992  -0.026829   0.494200  -0.014881  -0.000630  -0.006498
    16  C    0.216712  -0.045821  -0.014881   5.134091   0.438794   0.441030
    17  H   -0.038873  -0.003915  -0.000630   0.438794   0.515596  -0.013581
    18  H   -0.049693   0.005388  -0.006498   0.441030  -0.013581   0.528069
    19  C   -0.016576  -0.001809   0.005594   0.196105  -0.037418  -0.044515
    20  H    0.006400   0.000018  -0.000189  -0.030157  -0.000226  -0.005578
    21  C    0.007726   0.015102  -0.001975  -0.001006   0.000085   0.000021
    22  C   -0.008224  -0.003785  -0.000871   0.000571  -0.000026  -0.000027
    23  C    0.002021  -0.000434   0.000224  -0.000199   0.000023   0.000006
    24  C   -0.000872  -0.001290   0.000103   0.000134  -0.000051  -0.000002
    25  C    0.001108   0.000620   0.000075  -0.000250   0.000099   0.000014
    26  C   -0.014265  -0.001646   0.000087   0.002252   0.000112  -0.000047
    27  H   -0.000191  -0.000426   0.000090   0.000015  -0.000002  -0.000001
    28  H    0.000014  -0.000005  -0.000002  -0.000001   0.000000   0.000000
    29  H   -0.000014   0.000001  -0.000000   0.000001   0.000000  -0.000000
    30  H    0.000037  -0.000079   0.000000  -0.000002   0.000004   0.000000
    31  H    0.000163   0.000086  -0.000027   0.000212  -0.000035  -0.000001
    32  H    0.006189   0.000010  -0.000149  -0.053031  -0.005115   0.005080
    33  C    0.000487  -0.000161   0.000536  -0.000045  -0.000001  -0.000011
    34  H   -0.000053   0.000034  -0.000154   0.000001   0.000000  -0.000001
    35  H    0.000051  -0.000002  -0.000046  -0.000009  -0.000000   0.000001
    36  H   -0.000009  -0.000072   0.000148   0.000004  -0.000000   0.000000
    37  H    0.005811  -0.000185  -0.000167  -0.000586   0.000017   0.000011
              19         20         21         22         23         24
     1  C    0.166492  -0.034203  -0.007240   0.001429  -0.000403   0.000271
     2  C   -0.005279  -0.001552   0.004463  -0.000498   0.000134  -0.000110
     3  O    0.012830   0.001890   0.000404  -0.000004   0.000001  -0.000001
     4  O   -0.002550   0.000039  -0.009534  -0.001382   0.000114  -0.000059
     5  H   -0.000615  -0.000014  -0.036884   0.007927  -0.000400   0.000251
     6  H   -0.027147  -0.007744  -0.000151  -0.000015   0.000002  -0.000001
     7  N   -0.057733   0.006529  -0.006975   0.002104   0.000026   0.000151
     8  C    0.013410  -0.000234   0.001850  -0.002666   0.001086  -0.000196
     9  C   -0.001912   0.000083   0.026129  -0.005242  -0.002467   0.000029
    10  H    0.000010   0.000003   0.006841  -0.001723   0.000131  -0.000109
    11  O    0.000042   0.000001  -0.087705   0.008442  -0.003288   0.000936
    12  N   -0.000964  -0.000001   0.272334  -0.060723   0.010383  -0.001733
    13  C   -0.016576   0.006400   0.007726  -0.008224   0.002021  -0.000872
    14  H   -0.001809   0.000018   0.015102  -0.003785  -0.000434  -0.001290
    15  H    0.005594  -0.000189  -0.001975  -0.000871   0.000224   0.000103
    16  C    0.196105  -0.030157  -0.001006   0.000571  -0.000199   0.000134
    17  H   -0.037418  -0.000226   0.000085  -0.000026   0.000023  -0.000051
    18  H   -0.044515  -0.005578   0.000021  -0.000027   0.000006  -0.000002
    19  C    5.150417   0.436440   0.001701  -0.000183   0.000130  -0.000089
    20  H    0.436440   0.502816  -0.000053   0.000003  -0.000001   0.000002
    21  C    0.001701  -0.000053   5.423843   0.292417   0.012404  -0.082188
    22  C   -0.000183   0.000003   0.292417   5.155286   0.411138  -0.015205
    23  C    0.000130  -0.000001   0.012404   0.411138   4.982423   0.479260
    24  C   -0.000089   0.000002  -0.082188  -0.015205   0.479260   4.943400
    25  C    0.000117  -0.000006  -0.016679  -0.104568  -0.005055   0.474152
    26  C   -0.005149   0.000031   0.222314   0.083770  -0.122342  -0.012044
    27  H   -0.000013   0.000000  -0.036111   0.412334  -0.013429   0.003873
    28  H    0.000000  -0.000000   0.005577  -0.027781   0.416559  -0.024507
    29  H   -0.000000   0.000000  -0.001675   0.006516  -0.030054   0.421157
    30  H    0.000016  -0.000001   0.006232  -0.000858   0.003734  -0.026161
    31  H   -0.001918   0.000037  -0.064928   0.008751  -0.003935   0.006477
    32  H    0.444119  -0.014457   0.000709  -0.000057   0.000012  -0.000038
    33  C    0.000102  -0.000001  -0.000601   0.000154  -0.000005  -0.000003
    34  H   -0.000001   0.000000   0.000090   0.000016  -0.000003  -0.000000
    35  H    0.000001   0.000000   0.000183  -0.000065   0.000000  -0.000000
    36  H   -0.000003  -0.000000  -0.001304   0.000469   0.000051   0.000002
    37  H    0.000941  -0.000061   0.000320   0.000016   0.000003  -0.000000
              25         26         27         28         29         30
     1  C   -0.000249   0.004604   0.000084  -0.000001   0.000000  -0.000053
     2  C   -0.000033  -0.002072  -0.000037   0.000000  -0.000000   0.000020
     3  O   -0.000053   0.000015  -0.000000   0.000000  -0.000000   0.000002
     4  O    0.002145   0.004012  -0.000079   0.000000  -0.000000  -0.000012
     5  H   -0.001133   0.003126   0.000368   0.000003  -0.000000  -0.000023
     6  H    0.000020   0.000094   0.000000   0.000000  -0.000000   0.000000
     7  N   -0.000150  -0.000965   0.000433  -0.000001   0.000000   0.000007
     8  C    0.000381  -0.006725  -0.001498   0.000002  -0.000000   0.000006
     9  C   -0.000398   0.007525   0.000258   0.000013   0.000001  -0.000003
    10  H    0.000007  -0.000090  -0.001863   0.000019  -0.000000   0.000000
    11  O   -0.001211   0.014640   0.016714  -0.000059   0.000002   0.000004
    12  N    0.009305  -0.042985  -0.006916  -0.000140   0.000003  -0.000149
    13  C    0.001108  -0.014265  -0.000191   0.000014  -0.000014   0.000037
    14  H    0.000620  -0.001646  -0.000426  -0.000005   0.000001  -0.000079
    15  H    0.000075   0.000087   0.000090  -0.000002  -0.000000   0.000000
    16  C   -0.000250   0.002252   0.000015  -0.000001   0.000001  -0.000002
    17  H    0.000099   0.000112  -0.000002   0.000000   0.000000   0.000004
    18  H    0.000014  -0.000047  -0.000001   0.000000  -0.000000   0.000000
    19  C    0.000117  -0.005149  -0.000013   0.000000  -0.000000   0.000016
[...]
 -0.00016363,0.00437963,0.00007945,0.00009363,-0.00004808,0.00087787,0.
 00000356,0.00021540,-0.00001682,-0.00005856,-0.00030864,-0.00015689,0.
 00005027,0.00004485,-0.00019058,-0.00000255,0.00000067,-0.00000360,0.0
 0000548,-0.00001332,-0.00001176,-0.00032844,0.00012772,0.00010342,0.00
 004694,0.00009920,-0.00010559,-0.00074266,-0.00029552,0.00013201,-0.00
 003481,0.00011987,-0.00005776,0.00004526,0.00023860,0.00001779,0.00029
 380,0.00005291,-0.00017640,-0.00001991,-0.00013483,0.00000590,0.000270
 73,0.00006555,-0.00009741,-0.00001804,-0.00007067,0.00005609,0.0000510
 7,-0.00000277,-0.00001681,0.00000380,0.00000101,-0.00000876,0.00001648
 ,0.00003853,-0.00000944,0.00000121,-0.00002792,0.00001174,0.00000936,-
 0.00001727,-0.00000331,0.57261018,-0.00000575,-0.00005174,0.00036375,-
 0.00024013,0.00009860,-0.00045148,0.00004616,-0.00002133,0.00015197,0.
 00045696,-0.00017888,0.00023989,-0.00084977,0.00025161,-0.00036652,-0.
 00003298,-0.00000557,0.00002637,0.00194300,0.00259767,0.00061666,0.000
 50468,-0.02479658,0.00365207,-0.00951943,-0.22304921,0.05143882,0.0003
 2766,-0.00315710,0.00071075,0.00178255,-0.00697333,0.00397557,-0.00245
 194,-0.00267424,-0.00370772,-0.00024919,-0.00005655,0.00008242,0.00002
 122,-0.00001255,-0.00013599,0.00002566,-0.00010188,0.00008246,0.000051
 07,-0.00002927,0.00011950,-0.00001148,0.00002083,-0.00000681,-0.000007
 63,0.00000289,0.00000162,-0.00002374,-0.00005903,-0.00001383,-0.000032
 41,0.00001383,0.00001577,0.00132810,0.00070033,-0.00106244,-0.00005749
 ,0.00013207,0.00032037,-0.00004675,-0.00009359,-0.00001549,-0.00025448
 ,0.00008875,0.00013661,0.00036316,0.00002957,-0.00005540,-0.00029252,-
 0.00049903,0.00014253,-0.00001199,0.00009895,-0.00007200,-0.00001994,0
 .00000097,0.00000681,-0.00000785,0.00000370,-0.00000281,-0.00000798,-0
 .00001751,0.00000138,-0.00003877,0.00002172,-0.00006399,0.00000845,-0.
 00000488,0.00000065,-0.00132791,0.51103940,0.00020590,0.00063483,0.001
 16306,-0.00046196,0.00026729,-0.00001947,0.00027890,-0.00011967,-0.000
 10118,0.00043361,-0.00023087,-0.00007606,-0.00060695,0.00027874,0.0003
 9271,0.00023503,-0.00020024,-0.00004642,0.00237305,-0.00439835,0.00459
 638,-0.00240525,0.00365457,0.00038738,0.01571743,0.05613412,-0.0874628
 3,-0.00019191,0.01809073,-0.00184973,0.00047946,-0.00801420,0.00295370
 ,-0.00154508,-0.00329769,-0.00286354,0.00029275,0.00044137,-0.00061485
 ,-0.00017046,-0.00001448,-0.00003775,0.00000260,0.00004966,0.00045729,
 -0.00004402,-0.00005554,0.00016528,-0.00000389,-0.00002681,0.00004053,
 0.00000250,0.00000554,-0.00000519,-0.00013464,0.00008838,-0.00005866,-
 0.00001214,-0.00001556,0.00002395,0.00128054,0.00074558,-0.00110510,0.
 00026522,0.00020554,0.00023330,-0.00015397,-0.00031966,0.00020872,-0.0
 0027341,0.00031178,0.00016971,0.00043585,0.00003020,-0.00018341,-0.000
 34997,-0.00052080,0.00023881,-0.00011988,-0.00008152,-0.00016819,-0.00
 003221,-0.00001261,0.00001284,-0.00002327,0.00000982,-0.00002118,-0.00
 000911,-0.00001643,0.00000192,-0.00000499,0.00003400,-0.00001256,-0.00
 000105,-0.00002028,0.00000676,-0.02027800,0.01489143,0.55257912,-0.000
 04035,0.00009788,0.00005619,-0.00005359,0.00000400,0.00001288,0.000054
 99,-0.00002200,-0.00002345,0.00012797,-0.00003064,-0.00000658,-0.00030
 614,0.00004145,-0.00010095,0.00002756,-0.00000109,-0.00000082,-0.00025
 588,-0.00049130,-0.00038750,-0.00002281,0.00072510,-0.00022732,-0.0012
 1704,0.00174903,-0.00160324,0.00014051,0.00014762,0.00002063,0.0002577
 2,-0.00078066,0.00073838,-0.00012590,-0.00064542,-0.00072175,0.0000081
 0,0.00008107,-0.00008943,-0.00002293,-0.00000497,0.00001010,0.00002243
 ,0.00000498,0.00003826,0.00001291,0.00002399,-0.00000393,-0.00000609,-
 0.00000036,-0.00000126,-0.00000025,0.00000190,-0.00000294,-0.00000143,
 0.00000867,-0.00000850,0.00000228,-0.00000147,0.00000448,0.00033562,0.
 00011199,-0.00002570,0.00001351,0.00001781,0.00006141,-0.00002463,-0.0
 0005710,-0.00000175,-0.00006518,0.00002647,0.00003803,0.00005462,0.000
 00933,-0.00002245,-0.00008066,-0.00006521,0.00004117,0.00001996,0.0000
 0995,-0.00004214,-0.00001488,-0.00000411,0.00000426,-0.00000238,-0.000
 00073,0.00000080,-0.00000403,-0.00000621,0.00000218,-0.00000187,0.0000
 0875,-0.00000532,-0.00000125,0.00000102,-0.00000056,-0.04646659,-0.017
 02766,-0.01631116,0.04631454,-0.00024830,0.00029372,0.00041842,-0.0003
 9357,0.00015881,-0.00005413,0.00028370,-0.00011591,-0.00008433,0.00052
 841,-0.00024096,-0.00004322,-0.00076977,0.00037587,0.00033053,0.000117
 87,-0.00006087,-0.00002201,0.00052470,-0.00238021,0.00096866,-0.002244
 68,0.00008781,-0.00012146,-0.00075045,-0.02211544,-0.02419279,0.000020
 36,0.00125170,0.00086554,0.00144631,0.00137466,0.00272782,-0.00022219,
 -0.00281851,-0.00097375,0.00032577,0.00007326,-0.00036892,-0.00007587,
 0.00002145,0.00001653,-0.00001142,0.00000064,0.00011568,-0.00006863,-0
 .00002041,0.00002495,0.00000510,-0.00003179,0.00002457,0.00002491,-0.0
 0000961,0.00001322,0.00002263,-0.00000127,-0.00001451,-0.00000204,-0.0
 0003274,0.00001275,0.00074689,0.00042989,-0.00032586,0.00011599,-0.000
 01442,0.00006844,-0.00007323,-0.00022190,0.00004470,-0.00019996,0.0000
 8230,0.00012977,0.00012446,0.00006064,-0.00006008,-0.00022591,-0.00015
 459,0.00011895,0.00000063,-0.00001418,-0.00005848,-0.00003600,-0.00000
 305,0.00001501,-0.00001242,-0.00000130,-0.00000198,-0.00001028,-0.0000
 2437,0.00000542,0.00000453,0.00002431,-0.00000352,-0.00000438,0.000003
 00,0.00000505,-0.01612000,-0.14326715,-0.12964116,0.01631948,0.1596886
 2,0.00001530,-0.00000274,-0.00008215,0.00013795,-0.00003095,0.00013952
 ,-0.00007574,0.00001803,-0.00002349,-0.00030269,0.00008679,-0.00000412
 ,0.00049275,-0.00020894,-0.00015983,-0.00001295,-0.00001605,-0.0000056
 2,-0.00011497,0.00021576,-0.00025561,-0.00037473,0.00060983,0.00034314
 ,0.00108599,0.00615683,0.01095068,0.00002774,-0.00094907,0.00028618,-0
 .00054625,-0.00108460,-0.00044501,0.00041108,0.00233960,0.00050134,0.0
 0004515,-0.00001957,0.00002386,0.00002397,0.00000820,0.00001944,0.0000
 0039,0.00003093,-0.00003492,-0.00002436,-0.00000730,-0.00001229,0.0000
 0815,-0.00000701,0.00000342,-0.00000268,0.00000270,-0.00000138,0.00003
 115,0.00000017,0.00000976,-0.00000025,-0.00000556,-0.00000351,-0.00063
 703,-0.00032346,0.00020963,0.00001065,-0.00001755,-0.00005687,0.000025
 24,0.00010443,-0.00001637,0.00013735,-0.00003508,-0.00008607,-0.000093
 48,-0.00004393,0.00005680,0.00012908,0.00016576,-0.00008459,0.00001619
 ,0.00000943,0.00001950,0.00001550,0.00000005,-0.00000717,0.00000560,-0
 .00000137,0.00000300,0.00000448,0.00001302,-0.00000138,-0.00000131,-0.
 00000846,0.00000081,-0.00000240,-0.00000256,-0.00000261,-0.01679700,-0
 .12730593,-0.21146234,0.02032535,0.13985686,0.22682126,-0.00006230,-0.
 00001913,0.00004120,-0.00000781,-0.00000095,0.00004940,0.00002702,-0.0
 0000513,-0.00002812,0.00008756,-0.00000053,-0.00006275,-0.00019964,0.0
 0005217,0.00009510,0.00000607,0.00000146,0.00000059,0.00018660,-0.0001
 5256,-0.00034403,0.00094077,0.00159412,-0.00126648,-0.00182525,-0.0007
 7518,0.00043350,0.00128722,0.00024597,0.00036388,0.00002691,0.00049836
 ,0.00016830,0.00009434,-0.00065948,-0.00015925,-0.00008356,0.00013396,
 -0.00001354,-0.00000241,0.00000236,0.00002467,-0.00002197,-0.00001903,
 -0.00000411,0.00002986,0.00002288,-0.00004734,-0.00000679,0.00000894,-
 0.00000291,0.00000259,-0.00000148,0.00000152,0.00002024,-0.00001825,-0
 .00000232,0.00000117,-0.00000591,0.00000030,0.00011664,0.00010223,-0.0
 0002997,0.00002277,0.00004868,0.00000291,-0.00001218,-0.00005709,0.000
 00186,-0.00003324,0.00002299,0.00002060,0.00002720,0.00000565,-0.00002
 125,-0.00002356,-0.00004069,0.00001608,0.00002761,0.00003927,0.0000050
 2,0.00000229,0.00000462,0.00000201,-0.00000175,-0.00000273,0.00000124,
 -0.00000036,-0.00000494,0.00000016,0.00000196,-0.00000265,0.00000243,-
 0.00000235,0.00000037,0.00000174,-0.21783991,-0.02720976,0.13039478,0.
 00341602,0.00123425,-0.00295546,0.23203791,-0.00002968,0.00004388,-0.0
 0005060,-0.00000334,-0.00003902,-0.00001203,0.00002075,0.00001186,-0.0
 0000570,0.00010412,0.00002319,-0.00002562,-0.00021885,0.00006308,0.000
 04482,0.00001605,-0.00000495,0.00000867,-0.00014838,0.00005150,-0.0002
 5950,-0.00140234,0.00132152,0.00089437,-0.02751572,-0.00519171,0.02046
 058,0.00045081,-0.00523379,0.00118537,0.00038386,0.00095776,0.00026932
 ,0.00005204,-0.00072094,0.00001706,0.00013729,-0.00003280,0.00025937,0
 .00001254,0.00007220,-0.00002618,-0.00000653,-0.00009184,-0.00011478,0
 .00000081,0.00003094,-0.00008792,-0.00000096,-0.00000720,-0.00000483,0
 .00001034,-0.00000763,0.00000475,0.00000083,-0.00003047,0.00002754,0.0
 0000955,0.00000100,-0.00001788,0.00015089,0.00010139,0.00000575,-0.000
 05572,-0.00001966,-0.00001075,0.00001699,-0.00000229,-0.00003536,-0.00
 001982,-0.00002374,0.00001447,-0.00001110,0.00000751,0.00000170,-0.000
 02385,-0.00000277,0.00000268,0.00003137,-0.00003270,0.00001865,-0.0000
 0461,-0.00000081,0.00000448,-0.00000036,-0.00000278,0.00000245,-0.0000
 0044,-0.00000422,0.00000182,0.00000171,-0.00000019,0.00000201,0.000002
 11,0.00000661,-0.00000374,-0.02378256,-0.05139738,0.01835443,0.0165704
 5,0.00267002,-0.01025641,0.02861296,0.05759725,0.00006778,-0.00003521,
 -0.00001970,0.00011481,-0.00002784,0.00004919,-0.00007893,0.00002481,0
 .00000762,-0.00014010,0.00005950,-0.00002861,0.00017048,-0.00007922,-0
 .00004022,-0.00002384,0.00000843,-0.00000520,-0.00007563,0.00016208,0.
 00006416,-0.00006351,-0.00166182,0.00059878,0.00773613,0.00147986,-0.0
 0703146,-0.00004436,0.00178947,0.00110750,-0.00027777,-0.00034751,-0.0
 0012172,0.00005361,0.00041530,-0.00001170,-0.00001295,-0.00001577,-0.0
 0001566,-0.00000821,-0.00001286,-0.00002481,0.00002513,-0.00000170,0.0
 0003318,-0.00000078,-0.00001377,0.00004356,0.00000155,0.00000184,-0.00
 000117,-0.00000786,0.00000486,-0.00000712,-0.00001511,0.00001034,-0.00
 001027,-0.00000415,0.00000668,0.00000563,-0.00009187,-0.00002418,-0.00
 001376,0.00007696,0.00005238,0.00002158,-0.00002496,-0.00001702,0.0000
 3468,0.00001774,0.00004921,-0.00001064,0.00003257,-0.00001153,-0.00001
 723,0.00001892,-0.00001735,-0.00001763,-0.00000900,0.00004305,-0.00002
 407,0.00000358,-0.00000131,-0.00000551,0.00000058,0.00000180,-0.000002
 78,0.00000344,0.00000615,-0.00000082,-0.00000138,-0.00000369,0.0000015
 5,-0.00000093,-0.00000460,0.00000064,0.12944285,0.02093533,-0.14537445
 ,0.01931674,0.00399741,-0.01366663,-0.14293592,-0.02442159,0.15333774,
 0.00008772,-0.00010053,-0.00001141,-0.00005713,0.00001131,-0.00010625,
 0.00001490,0.00000608,0.00004293,0.00010110,-0.00003159,0.00010029,-0.
 00024141,0.00002898,-0.00029958,-0.00001025,-0.00001163,0.00001176,0.0
 0029684,0.00048558,-0.00008937,0.00025846,-0.00117937,-0.00106830,0.00
 336320,0.00307984,0.00187555,0.00024338,0.00058880,0.00000651,0.000596
 29,-0.00098343,0.00135506,-0.00029460,-0.00008587,-0.00087852,-0.00006
 097,-0.00003138,0.00008474,0.00003257,0.00000153,-0.00001661,0.0000017
 8,-0.00000623,0.00001304,0.00000263,-0.00000023,0.00001665,0.00000013,
 0.00000493,-0.00000416,-0.00000044,-0.00000091,0.00000206,-0.00000460,
 0.00000528,-0.00000228,-0.00000270,0.00000372,0.00000317,0.00016596,0.
 00001016,0.00007623,0.00000153,-0.00011634,0.00005781,-0.00002710,0.00
 005233,-0.00007132,-0.00001537,-0.00003881,0.00000224,-0.00000579,0.00
 000569,0.00002984,-0.00003539,0.00000788,0.00000756,0.00006875,0.00013
 923,0.00004297,-0.00000555,-0.00000375,0.00000341,0.00000708,0.0000022
 7,0.00001140,-0.00000344,-0.00000301,0.00000173,-0.00001425,0.00000883
 ,-0.00002375,0.00000454,0.00000318,0.00000005,-0.22971839,0.05465158,-
 0.10726884,-0.00237635,0.00004554,-0.00095754,-0.01855319,0.00591734,-
 0.01291247,0.24617117,-0.00046991,-0.00025205,-0.00008412,-0.00012240,
 0.00002486,-0.00000597,0.00012170,-0.00003880,-0.00004876,0.00022527,-
 0.00010416,-0.00002136,-0.00039423,0.00026733,0.00008638,-0.00001947,0
 .00005030,0.00001089,0.00045823,-0.00065718,-0.00144535,-0.00065645,-0
 .00466015,0.00301349,0.02650061,-0.01231924,0.01332186,-0.00063478,0.0
 0073710,-0.00048785,0.00145713,0.00367708,0.00219364,-0.00030757,-0.00
 260057,-0.00028863,0.00014488,0.00002426,-0.00014851,-0.00001030,-0.00
 003738,-0.00001441,0.00000814,0.00002958,-0.00002995,-0.00003050,-0.00
 001591,0.00000752,0.00000335,-0.00001141,0.00000573,0.00000701,-0.0000
 0129,0.00000858,0.00012271,-0.00006229,-0.00001921,-0.00001022,-0.0000
 3881,0.00002322,0.00047406,0.00035330,-0.00011226,0.00002604,-0.000149
 69,-0.00000240,-0.00003774,-0.00007316,-0.00000362,-0.00011804,-0.0000
 0486,0.00008202,0.00002175,0.00008514,-0.00001213,-0.00010961,-0.00006
 213,0.00005197,-0.00006658,-0.00002895,0.00002387,-0.00002046,-0.00000
 280,0.00001004,-0.00000281,0.00000638,0.00000004,-0.00000235,-0.000012
 98,0.00000301,-0.00000020,0.00001724,-0.00000320,-0.00000436,0.0000074
 4,-0.00000036,0.05577384,-0.05976092,0.03501118,-0.01693142,0.00516613
 ,-0.00932229,-0.00325561,0.00004886,-0.00272427,-0.06232522,0.07031735
 ,0.00028108,0.00000592,0.00005782,0.00027650,-0.00007019,0.00012488,-0
 .00019117,0.00006920,0.00002210,-0.00044860,0.00017932,0.00001901,0.00
 059160,-0.00030545,-0.00039174,-0.00001434,-0.00001998,-0.00001025,0.0
 0008586,0.00042964,0.00037008,0.00003378,0.00018507,-0.00089717,-0.006
 42418,0.00304226,-0.00390137,0.00023718,-0.00001109,0.00047429,-0.0004
 6049,-0.00327022,0.00014703,-0.00004898,0.00258022,-0.00043405,-0.0001
 7719,-0.00004443,0.00007872,0.00001505,0.00001760,0.00001686,-0.000015
 02,-0.00000907,-0.00002586,0.00003213,0.00000299,-0.00001732,0.0000008
 5,0.00001528,-0.00000513,-0.00000639,-0.00000074,-0.00000475,-0.000034
 22,-0.00000003,0.00001775,-0.00000182,0.00001410,-0.00001102,-0.000575
 11,-0.00025341,0.00015926,0.00001439,0.00012384,-0.00002791,0.00001108
 ,0.00009826,-0.00000135,0.00015488,0.00001521,-0.00009889,-0.00001933,
 -0.00007168,0.00004018,0.00017321,0.00007202,-0.00008367,0.00002766,0.
 00008740,0.00003788,0.00003409,0.00000784,-0.00001655,0.00000425,-0.00
 000197,-0.00000222,0.00000807,0.00001905,-0.00000712,-0.00000964,-0.00
 002025,-0.00000778,0.00000142,-0.00000918,0.00000156,-0.10873144,0.035
 76839,-0.11012081,-0.02129186,0.00659738,-0.01301023,0.01619153,-0.005
 87907,0.01102129,0.12028773,-0.03944676,0.11638674,0.00017436,0.000478
 22,-0.00158018,0.00111949,-0.00075749,0.00007137,-0.00037657,0.0000303
 7,-0.00008311,-0.00006263,0.00046053,-0.00009197,-0.00038259,-0.000094
 07,0.00003326,-0.00025710,-0.00053982,-0.00013128,0.00177049,0.0003923
 3,0.00224609,-0.21658481,-0.04745986,0.13457718,-0.01417726,-0.0034778
 4,0.01499277,0.00024239,0.00344358,0.00228741,0.00066985,0.00141062,0.
 00097270,0.00038997,-0.00116511,0.00031505,0.00383514,0.00151773,0.000
 52652,0.00005584,0.00036909,-0.00068717,-0.00022395,-0.00009380,0.0002
 1056,-0.00030226,0.00007220,0.00019930,0.00005301,-0.00003913,-0.00006
 197,-0.00000418,-0.00002993,0.00001527,-0.00000253,-0.00005416,0.00000
 545,-0.00000766,0.00002477,-0.00000020,0.00004859,-0.00001287,-0.00011
 169,-0.00009201,-0.00007537,0.00003673,0.00002149,0.00006810,-0.000108
 96,-0.00000344,-0.00009362,-0.00003669,-0.00009002,-0.00000257,0.00004
 959,0.00004160,0.00003540,0.00004586,0.00003494,-0.00002826,0.00007602
 ,0.00000553,0.00000330,0.00000173,0.00001085,-0.00000264,0.00001254,0.
 00000036,-0.00000055,0.00000003,-0.00000450,-0.00000968,-0.00000292,-0
 .00000713,0.00001254,-0.00005002,-0.00049571,-0.00178269,-0.00199544,0
 .00028149,-0.00042242,-0.00005018,0.00031353,0.00072146,-0.00035315,0.
 00000890,0.00018550,-0.00001257,0.22399653,-0.00198779,0.00013844,0.00
 063525,-0.00014602,-0.00143288,-0.00052653,-0.00011717,0.00014385,0.00
 023142,0.00012999,0.00020040,0.00015912,-0.00056972,0.00016187,0.00021
 922,0.00015569,0.00007864,0.00026294,-0.02586117,-0.01032150,0.0261058
 2,-0.03928309,-0.07180369,0.03540569,0.01537933,0.00761820,-0.01210586
 ,0.00404594,-0.00185418,0.00119424,-0.00058704,0.00079151,0.00017047,0
 .00058382,-0.00054134,0.00017087,0.00200743,-0.00278034,-0.00215393,-0
 .00028879,-0.00018433,0.00029506,0.00002529,0.00018361,0.00001580,-0.0
 0090719,-0.00035268,0.00089782,0.00033535,-0.00030211,0.00013084,0.000
 05385,-0.00006455,0.00004225,0.00009407,0.00013889,-0.00003488,0.00002
 792,-0.00000300,-0.00005249,-0.00007849,-0.00008143,-0.00018727,0.0000
 7975,-0.00007273,0.00000547,-0.00001320,-0.00000471,-0.00001417,-0.000
 01735,-0.00000499,-0.00001225,-0.00001116,0.00001500,0.00001654,-0.000
 02383,0.00004370,0.00002587,-0.00000982,0.00002577,-0.00000386,-0.0000
 0295,-0.00000196,0.00000296,0.00000518,0.00000255,0.00000536,-0.000000
 74,-0.00000076,0.00000330,-0.00000379,-0.00000176,0.00000308,0.0000260
 0,0.00005083,-0.00001692,0.00047605,0.00110685,-0.00225333,0.00010940,
 -0.00023415,0.00003045,-0.00040009,-0.00016167,0.00037272,-0.00014179,
 0.00008239,0.00008254,0.04691611,0.07942227,-0.00054991,-0.00267990,-0
 .00186496,-0.00006546,-0.00004173,0.00003122,-0.00001338,0.00011405,0.
 00011083,-0.00003788,-0.00030785,0.00005178,0.00001526,0.00011699,0.00
 013553,-0.00087198,0.00037558,0.00005437,0.00756140,0.00691444,-0.0030
 3479,0.13904025,0.03763125,-0.15042096,0.00280955,0.00426644,0.0010782
 7,0.00255850,0.00114962,0.00404855,-0.00063118,0.00069523,0.00118692,0
 .00065154,-0.00017703,-0.00014879,0.00377214,0.00162456,0.00404542,0.0
 0034766,0.00070048,-0.00129232,-0.00025466,-0.00031992,0.00042437,-0.0
 0014450,-0.00001479,0.00046199,0.00001141,0.00001933,0.00000662,-0.000
 03970,0.00000414,-0.00000978,-0.00012098,0.00002996,-0.00034902,-0.000
 00460,0.00004815,0.00002302,-0.00015782,-0.00005354,-0.00018784,-0.000
 03927,-0.00012533,0.00004761,0.00000177,0.00006067,-0.00008145,-0.0000
 0996,-0.00008730,-0.00003245,-0.00009343,-0.00000136,0.00006650,0.0000
 4848,0.00006725,0.00004210,0.00002031,-0.00000712,0.00005156,-0.000000
 57,0.00000044,0.00000192,0.00001090,-0.00000053,0.00001236,-0.00000154
 ,-0.00000094,0.00000025,-0.00000267,-0.00000199,-0.00001098,-0.0000277
 9,-0.00006307,0.00004342,-0.00240402,-0.00042071,-0.00204773,0.0002077
 5,-0.00039146,0.00003384,0.00005463,-0.00036833,0.00012405,-0.00032232
 ,0.00036797,0.00009973,-0.15131793,-0.04912363,0.14729885\\0.00000362,
 0.00000731,-0.00001203,-0.00000109,-0.00000282,-0.00000899,-0.00000153
 ,0.00000495,-0.00000825,-0.00000409,0.00000891,0.00000196,-0.00001009,
 0.00000917,0.00000314,0.00000007,0.00000137,-0.00000632,0.00000541,0.0
 0000640,-0.00000249,0.00000341,-0.00001402,-0.00000199,-0.00001202,0.0
 0000551,0.00000544,0.00000006,0.00000010,0.00000528,-0.00000556,0.0000
 2691,-0.00000188,0.00000352,-0.00002230,-0.00000131,0.00000262,-0.0000
 0420,-0.00000130,0.00000038,-0.00000201,-0.00000293,0.00000373,-0.0000
 0266,0.00000017,0.00000236,-0.00000190,-0.00000762,0.00000627,-0.00000
 227,-0.00000377,0.00000634,-0.00000249,-0.00000623,0.00000440,-0.00000
 012,-0.00000286,0.00000416,0.00000173,-0.00000925,0.00000087,-0.000002
 82,0.00000577,-0.00000124,-0.00000231,0.00000555,0.00000097,-0.0000029
 6,0.00000654,0.00000148,-0.00000397,0.00000437,-0.00000056,-0.00000155
 ,0.00000240,-0.00000044,0.00000141,0.00000166,-0.00000189,-0.00000137,
 0.00000685,0.00000101,-0.00000492,0.00000898,0.00000320,-0.00000480,0.
 00000559,0.00000183,-0.00000186,0.00000035,-0.00000108,0.00000103,-0.0
 0000144,0.00000112,0.00000119,-0.00000563,-0.00000305,0.00000160,0.000
 00622,-0.00000291,-0.00000072,0.00000533,-0.00000456,0.00000244,0.0000
 0356,-0.00000422,0.00000038,0.00000648,-0.00000250,0.00000166,-0.00000
 133\\\@


 EXPERIENCE IS THE FRUIT OF THE TREE OF ERRORS.
 Job cpu time:       1 days 19 hours  5 minutes 35.3 seconds.
 Elapsed time:       0 days  1 hours 48 minutes  9.3 seconds.
 File lengths (MBytes):  RWF=   2448 Int=      0 D2E=      0 Chk=     80 Scr=     16
 Normal termination of Gaussian 16 at Thu Jul 19 09:41:20 2018.
