 Entering Gaussian System, Link 0=/projects/jvalegre@colostate.edu/g16/g16
 Initial command:
 /projects/jvalegre@colostate.edu/g16/l1.exe "/gpfs/summit/scratch/jvalegre@colostate.edu/1580876/Gau-54760.inp" -scrdir="/gpfs/summit/scratch/jvalegre@colostate.edu/1580876/"
 Entering Link 1 = /projects/jvalegre@colostate.edu/g16/l1.exe PID=     54762.
  
 Copyright (c) 1988,1990,1992,1993,1995,1998,2003,2009,2016,
            Gaussian, Inc.  All Rights Reserved.
  
 This is part of the Gaussian(R) 16 program.  It is based on
 the Gaussian(R) 09 system (copyright 2009, Gaussian, Inc.),
 the Gaussian(R) 03 system (copyright 2003, Gaussian, Inc.),
 the Gaussian(R) 98 system (copyright 1998, Gaussian, Inc.),
 the Gaussian(R) 94 system (copyright 1995, Gaussian, Inc.),
 the Gaussian 92(TM) system (copyright 1992, Gaussian, Inc.),
 the Gaussian 90(TM) system (copyright 1990, Gaussian, Inc.),
 the Gaussian 88(TM) system (copyright 1988, Gaussian, Inc.),
 the Gaussian 86(TM) system (copyright 1986, Carnegie Mellon
 University), and the Gaussian 82(TM) system (copyright 1983,
 Carnegie Mellon University). Gaussian is a federally registered
 trademark of Gaussian, Inc.
  
 This software contains proprietary and confidential information,
 including trade secrets, belonging to Gaussian, Inc.
  
 This software is provided under written license and may be
 used, copied, transmitted, or stored only in accord with that
 written license.
  
 The following legend is applicable only to US Government
 contracts under FAR:
  
                    RESTRICTED RIGHTS LEGEND
  
 Use, reproduction and disclosure by the US Government is
 subject to restrictions as set forth in subparagraphs (a)
 and (c) of the Commercial Computer Software - Restricted
 Rights clause in FAR 52.227-19.
  
 Gaussian, Inc.
 340 Quinnipiac St., Bldg. 40, Wallingford CT 06492
  
  
 ---------------------------------------------------------------
 Warning -- This program may not be used in any manner that
 competes with the business of Gaussian, Inc. or will provide
 assistance to any competitor of Gaussian, Inc.  The licensee
 of this program is prohibited from giving any competitor of
 Gaussian, Inc. access to this program.  By using this program,
 the user acknowledges that Gaussian, Inc. is engaged in the
 business of creating and licensing software in the field of
 computational chemistry and represents and warrants to the
 licensee that it is not a competitor of Gaussian, Inc. and that
 it will not use this program in any manner prohibited above.
 ---------------------------------------------------------------
  

 Cite this work as:
 Gaussian 16, Revision A.03,
 M. J. Frisch, G. W. Trucks, H. B. Schlegel, G. E. Scuseria, 
 M. A. Robb, J. R. Cheeseman, G. Scalmani, V. Barone, 
 G. A. Petersson, H. Nakatsuji, X. Li, M. Caricato, A. V. Marenich, 
 J. Bloino, B. G. Janesko, R. Gomperts, B. Mennucci, H. P. Hratchian, 
 J. V. Ortiz, A. F. Izmaylov, J. L. Sonnenberg, D. Williams-Young, 
 F. Ding, F. Lipparini, F. Egidi, J. Goings, B. Peng, A. Petrone, 
 T. Henderson, D. Ranasinghe, V. G. Zakrzewski, J. Gao, N. Rega, 
 G. Zheng, W. Liang, M. Hada, M. Ehara, K. Toyota, R. Fukuda, 
 J. Hasegawa, M. Ishida, T. Nakajima, Y. Honda, O. Kitao, H. Nakai, 
 T. Vreven, K. Throssell, J. A. Montgomery, Jr., J. E. Peralta, 
 F. Ogliaro, M. J. Bearpark, J. J. Heyd, E. N. Brothers, K. N. Kudin, 
 V. N. Staroverov, T. A. Keith, R. Kobayashi, J. Normand, 
 K. Raghavachari, A. P. Rendell, J. C. Burant, S. S. Iyengar, 
 J. Tomasi, M. Cossi, J. M. Millam, M. Klene, C. Adamo, R. Cammi, 
 J. W. Ochterski, R. L. Martin, K. Morokuma, O. Farkas, 
 J. B. Foresman, and D. J. Fox, Gaussian, Inc., Wallingford CT, 2016.
 
 ******************************************
 Gaussian 16:  ES64L-G16RevA.03 25-Dec-2016
                31-Dec-2018 
 ******************************************
 %mem=96GB
 %nprocshared=24
 Will use up to   24 processors via shared memory.
 ----------------------------------------------------------------------
 #opt=(maxcycles=200) freq=noraman def2tzvpp empiricaldispersion=gd3 m0
 62x scrf=(solvent=Chloroform,smd)
 ----------------------------------------------------------------------
 1/6=200,18=20,19=15,26=3,38=1/1,3;
 2/9=110,12=2,17=6,18=5,40=1/2;
 3/5=44,7=202,11=2,25=1,30=1,70=32201,71=1,72=7,74=-55,124=31/1,2,3;
 4//1;
 5/5=2,38=5,53=7/2;
 6/7=2,8=2,9=2,10=2,28=1/1;
 7//1,2,3,16;
 1/6=200,18=20,19=15,26=3/3(2);
 2/9=110/2;
 99//99;
 2/9=110/2;
 3/5=44,7=202,11=2,25=1,30=1,70=32205,71=1,72=7,74=-55,124=31/1,2,3;
 4/5=5,16=3,69=1/1;
 5/5=2,38=5,53=7/2;
 7//1,2,3,16;
 1/6=200,18=20,19=15,26=3/3(-5);
 2/9=110/2;
 6/7=2,8=2,9=2,10=2,19=2,28=1/1;
 99/9=1/99;
 ------------------
 aminox_cat_conf280
 ------------------
 Symbolic Z-matrix:
 Charge =  0 Multiplicity = 1
 H                    -0.1606    2.3998   -0.1483 
 C                     0.7858    2.0344   -0.5362 
 C                     1.0546    0.7238   -0.5571 
 N                     0.2574   -0.3212   -0.128 
 C                    -1.2012   -0.2254    0.1989 
 C                    -1.7343   -1.6305   -0.0864 
 C                    -0.5454   -2.5256    0.2263 
 C                     0.6364   -1.7323   -0.3147 
 H                     1.5597   -1.9744    0.2214 
 H                    -1.7006    0.5244   -0.4241 
 C                    -1.4177    0.1428    1.6745 
 H                    -2.6157   -1.8972    0.5042 
 H                    -1.9929   -1.7213   -1.1485 
 H                    -0.628    -3.5149   -0.2324 
 H                    -0.4476   -2.659     1.3103 
 H                     0.779    -1.9383   -1.3819 
 O                    -2.5098    0.2471    2.214 
 O                    -0.2487    0.3191    2.3426 
 H                     0.4706    0.197     1.6765 
 H                     2.0165    0.3829   -0.9429 
 C                     1.7321    3.0834   -1.0242 
 H                     1.268     3.656    -1.8331 
 H                     2.667     2.6567   -1.4009 
 H                     1.9754    3.7728   -0.2099 
 

 GradGradGradGradGradGradGradGradGradGradGradGradGradGradGradGradGradGrad
 Berny optimization.
 Initialization pass.
                           ----------------------------
                           !    Initial Parameters    !
                           ! (Angstroms and Degrees)  !
 --------------------------                            --------------------------
 ! Name  Definition              Value          Derivative Info.                !
 --------------------------------------------------------------------------------
 ! R1    R(1,2)                  1.0861         estimate D2E/DX2                !
 ! R2    R(2,3)                  1.338          estimate D2E/DX2                !
 ! R3    R(2,21)                 1.4947         estimate D2E/DX2                !
 ! R4    R(3,4)                  1.3826         estimate D2E/DX2                !
 ! R5    R(3,20)                 1.091          estimate D2E/DX2                !
 ! R6    R(4,5)                  1.4979         estimate D2E/DX2                !
 ! R7    R(4,8)                  1.473          estimate D2E/DX2                !
 ! R8    R(5,6)                  1.5297         estimate D2E/DX2                !
 ! R9    R(5,10)                 1.0953         estimate D2E/DX2                !
 ! R10   R(5,11)                 1.5362         estimate D2E/DX2                !
 ! R11   R(6,7)                  1.5207         estimate D2E/DX2                !
 ! R12   R(6,12)                 1.094          estimate D2E/DX2                !
 ! R13   R(6,13)                 1.0969         estimate D2E/DX2                !
 ! R14   R(7,8)                  1.5227         estimate D2E/DX2                !
 ! R15   R(7,14)                 1.0936         estimate D2E/DX2                !
 ! R16   R(7,15)                 1.0965         estimate D2E/DX2                !
 ! R17   R(8,9)                  1.0948         estimate D2E/DX2                !
 ! R18   R(8,16)                 1.0962         estimate D2E/DX2                !
 ! R19   R(11,17)                1.2225         estimate D2E/DX2                !
 ! R20   R(11,18)                1.3579         estimate D2E/DX2                !
 ! R21   R(18,19)                0.9879         estimate D2E/DX2                !
 ! R22   R(21,22)                1.0943         estimate D2E/DX2                !
 ! R23   R(21,23)                1.0945         estimate D2E/DX2                !
 ! R24   R(21,24)                1.0943         estimate D2E/DX2                !
 ! A1    A(1,2,3)              120.674          estimate D2E/DX2                !
 ! A2    A(1,2,21)             115.6049         estimate D2E/DX2                !
 ! A3    A(3,2,21)             123.7208         estimate D2E/DX2                !
 ! A4    A(2,3,4)              128.2887         estimate D2E/DX2                !
 ! A5    A(2,3,20)             119.2547         estimate D2E/DX2                !
 ! A6    A(4,3,20)             112.4534         estimate D2E/DX2                !
 ! A7    A(3,4,5)              125.5113         estimate D2E/DX2                !
 ! A8    A(3,4,8)              122.4359         estimate D2E/DX2                !
 ! A9    A(5,4,8)              109.8459         estimate D2E/DX2                !
 ! A10   A(4,5,6)              103.8817         estimate D2E/DX2                !
 ! A11   A(4,5,10)             111.3239         estimate D2E/DX2                !
 ! A12   A(4,5,11)             111.236          estimate D2E/DX2                !
 ! A13   A(6,5,10)             111.3349         estimate D2E/DX2                !
 ! A14   A(6,5,11)             110.4999         estimate D2E/DX2                !
 ! A15   A(10,5,11)            108.5432         estimate D2E/DX2                !
 ! A16   A(5,6,7)              103.2889         estimate D2E/DX2                !
 ! A17   A(5,6,12)             113.8302         estimate D2E/DX2                !
 ! A18   A(5,6,13)             109.8035         estimate D2E/DX2                !
 ! A19   A(7,6,12)             112.0482         estimate D2E/DX2                !
 ! A20   A(7,6,13)             109.5545         estimate D2E/DX2                !
 ! A21   A(12,6,13)            108.2167         estimate D2E/DX2                !
 ! A22   A(6,7,8)              103.1245         estimate D2E/DX2                !
 ! A23   A(6,7,14)             112.7792         estimate D2E/DX2                !
 ! A24   A(6,7,15)             110.1584         estimate D2E/DX2                !
 ! A25   A(8,7,14)             112.3889         estimate D2E/DX2                !
 ! A26   A(8,7,15)             110.205          estimate D2E/DX2                !
 ! A27   A(14,7,15)            108.1393         estimate D2E/DX2                !
 ! A28   A(4,8,7)              104.7358         estimate D2E/DX2                !
 ! A29   A(4,8,9)              111.5175         estimate D2E/DX2                !
 ! A30   A(4,8,16)             109.6874         estimate D2E/DX2                !
 ! A31   A(7,8,9)              111.4301         estimate D2E/DX2                !
 ! A32   A(7,8,16)             110.4226         estimate D2E/DX2                !
 ! A33   A(9,8,16)             108.9939         estimate D2E/DX2                !
 ! A34   A(5,11,17)            124.7666         estimate D2E/DX2                !
 ! A35   A(5,11,18)            112.4816         estimate D2E/DX2                !
 ! A36   A(17,11,18)           122.7394         estimate D2E/DX2                !
 ! A37   A(11,18,19)           106.2016         estimate D2E/DX2                !
 ! A38   A(2,21,22)            109.8804         estimate D2E/DX2                !
 ! A39   A(2,21,23)            112.3052         estimate D2E/DX2                !
 ! A40   A(2,21,24)            109.8737         estimate D2E/DX2                !
 ! A41   A(22,21,23)           108.1693         estimate D2E/DX2                !
 ! A42   A(22,21,24)           108.3416         estimate D2E/DX2                !
 ! A43   A(23,21,24)           108.1669         estimate D2E/DX2                !
 ! D1    D(1,2,3,4)             -0.1101         estimate D2E/DX2                !
 ! D2    D(1,2,3,20)          -179.411          estimate D2E/DX2                !
 ! D3    D(21,2,3,4)           179.7011         estimate D2E/DX2                !
 ! D4    D(21,2,3,20)            0.4001         estimate D2E/DX2                !
 ! D5    D(1,2,21,22)          -59.6473         estimate D2E/DX2                !
 ! D6    D(1,2,21,23)          179.9052         estimate D2E/DX2                !
 ! D7    D(1,2,21,24)           59.4653         estimate D2E/DX2                !
 ! D8    D(3,2,21,22)          120.5328         estimate D2E/DX2                !
 ! D9    D(3,2,21,23)            0.0853         estimate D2E/DX2                !
 ! D10   D(3,2,21,24)         -120.3546         estimate D2E/DX2                !
 ! D11   D(2,3,4,5)             13.3673         estimate D2E/DX2                !
 ! D12   D(2,3,4,8)            174.745          estimate D2E/DX2                !
 ! D13   D(20,3,4,5)          -167.2926         estimate D2E/DX2                !
 ! D14   D(20,3,4,8)            -5.9149         estimate D2E/DX2                !
 ! D15   D(3,4,5,6)            152.0344         estimate D2E/DX2                !
 ! D16   D(3,4,5,10)            32.1151         estimate D2E/DX2                !
 ! D17   D(3,4,5,11)           -89.0802         estimate D2E/DX2                !
 ! D18   D(8,4,5,6)            -11.3155         estimate D2E/DX2                !
 ! D19   D(8,4,5,10)          -131.2347         estimate D2E/DX2                !
 ! D20   D(8,4,5,11)           107.57           estimate D2E/DX2                !
 ! D21   D(3,4,8,7)           -176.96           estimate D2E/DX2                !
 ! D22   D(3,4,8,9)             62.3901         estimate D2E/DX2                !
 ! D23   D(3,4,8,16)           -58.4497         estimate D2E/DX2                !
 ! D24   D(5,4,8,7)            -13.0022         estimate D2E/DX2                !
 ! D25   D(5,4,8,9)           -133.6521         estimate D2E/DX2                !
 ! D26   D(5,4,8,16)           105.5081         estimate D2E/DX2                !
 ! D27   D(4,5,6,7)             31.0705         estimate D2E/DX2                !
 ! D28   D(4,5,6,12)           152.8049         estimate D2E/DX2                !
 ! D29   D(4,5,6,13)           -85.7102         estimate D2E/DX2                !
 ! D30   D(10,5,6,7)           150.9824         estimate D2E/DX2                !
 ! D31   D(10,5,6,12)          -87.2833         estimate D2E/DX2                !
 ! D32   D(10,5,6,13)           34.2016         estimate D2E/DX2                !
 ! D33   D(11,5,6,7)           -88.3183         estimate D2E/DX2                !
 ! D34   D(11,5,6,12)           33.416          estimate D2E/DX2                !
 ! D35   D(11,5,6,13)          154.901          estimate D2E/DX2                !
 ! D36   D(4,5,11,17)         -177.7549         estimate D2E/DX2                !
 ! D37   D(4,5,11,18)            0.9916         estimate D2E/DX2                !
 ! D38   D(6,5,11,17)          -62.9146         estimate D2E/DX2                !
 ! D39   D(6,5,11,18)          115.8318         estimate D2E/DX2                !
 ! D40   D(10,5,11,17)          59.4359         estimate D2E/DX2                !
 ! D41   D(10,5,11,18)        -121.8176         estimate D2E/DX2                !
 ! D42   D(5,6,7,8)            -39.1554         estimate D2E/DX2                !
 ! D43   D(5,6,7,14)          -160.6289         estimate D2E/DX2                !
 ! D44   D(5,6,7,15)            78.45           estimate D2E/DX2                !
 ! D45   D(12,6,7,8)          -162.0814         estimate D2E/DX2                !
 ! D46   D(12,6,7,14)           76.4451         estimate D2E/DX2                !
 ! D47   D(12,6,7,15)          -44.4761         estimate D2E/DX2                !
 ! D48   D(13,6,7,8)            77.8011         estimate D2E/DX2                !
 ! D49   D(13,6,7,14)          -43.6724         estimate D2E/DX2                !
 ! D50   D(13,6,7,15)         -164.5935         estimate D2E/DX2                !
 ! D51   D(6,7,8,4)             32.2277         estimate D2E/DX2                !
 ! D52   D(6,7,8,9)            152.9356         estimate D2E/DX2                !
 ! D53   D(6,7,8,16)           -85.7833         estimate D2E/DX2                !
 ! D54   D(14,7,8,4)           153.965          estimate D2E/DX2                !
 ! D55   D(14,7,8,9)           -85.3271         estimate D2E/DX2                !
 ! D56   D(14,7,8,16)           35.954          estimate D2E/DX2                !
 ! D57   D(15,7,8,4)           -85.3449         estimate D2E/DX2                !
 ! D58   D(15,7,8,9)            35.363          estimate D2E/DX2                !
 ! D59   D(15,7,8,16)          156.6441         estimate D2E/DX2                !
 ! D60   D(5,11,18,19)           2.3089         estimate D2E/DX2                !
 ! D61   D(17,11,18,19)       -178.9153         estimate D2E/DX2                !
 --------------------------------------------------------------------------------
 Trust Radius=3.00D-01 FncErr=1.00D-07 GrdErr=1.00D-06 EigMax=2.50D+02 EigMin=1.00D-04
 Number of steps in this run=    144 maximum allowed number of steps=    144.
 GradGradGradGradGradGradGradGradGradGradGradGradGradGradGradGradGradGrad

                          Input orientation:                          
 ---------------------------------------------------------------------
 Center     Atomic      Atomic             Coordinates (Angstroms)
 Number     Number       Type             X           Y           Z
 ---------------------------------------------------------------------
      1          1           0       -0.160600    2.399800   -0.148300
      2          6           0        0.785800    2.034400   -0.536200
      3          6           0        1.054600    0.723800   -0.557100
      4          7           0        0.257400   -0.321200   -0.128000
      5          6           0       -1.201200   -0.225400    0.198900
      6          6           0       -1.734300   -1.630500   -0.086400
      7          6           0       -0.545400   -2.525600    0.226300
      8          6           0        0.636400   -1.732300   -0.314700
      9          1           0        1.559700   -1.974400    0.221400
     10          1           0       -1.700600    0.524400   -0.424100
     11          6           0       -1.417700    0.142800    1.674500
     12          1           0       -2.615700   -1.897200    0.504200
     13          1           0       -1.992900   -1.721300   -1.148500
     14          1           0       -0.628000   -3.514900   -0.232400
     15          1           0       -0.447600   -2.659000    1.310300
     16          1           0        0.779000   -1.938300   -1.381900
     17          8           0       -2.509800    0.247100    2.214000
     18          8           0       -0.248700    0.319100    2.342600
     19          1           0        0.470600    0.197000    1.676500
     20          1           0        2.016500    0.382900   -0.942900
     21          6           0        1.732100    3.083400   -1.024200
     22          1           0        1.268000    3.656000   -1.833100
     23          1           0        2.667000    2.656700   -1.400900
     24          1           0        1.975400    3.772800   -0.209900
 ---------------------------------------------------------------------
                    Distance matrix (angstroms):
                    1          2          3          4          5
     1  H    0.000000
     2  C    1.086120   0.000000
     3  C    2.110167   1.338044   0.000000
     4  N    2.752994   2.448405   1.382635   0.000000
     5  C    2.845184   3.097618   2.561474   1.497850   0.000000
     6  C    4.327087   4.470427   3.679980   2.383876   1.529672
     7  C    4.954590   4.811143   3.705714   2.372635   2.392017
     8  C    4.211549   3.776164   2.503213   1.472991   2.431318
     9  H    4.714842   4.152512   2.853326   2.133339   3.268345
    10  H    2.442292   2.911160   2.765606   2.153248   1.095322
    11  C    3.161795   3.649761   3.380809   2.504049   1.536177
    12  H    4.991741   5.301897   4.633260   3.337388   2.211093
    13  H    4.619652   4.711833   3.951648   2.839991   2.163329
    14  H    5.933735   5.734619   4.571996   3.315803   3.366807
    15  H    5.272698   5.192190   4.145736   2.833909   2.779484
    16  H    4.606922   4.061724   2.800540   2.111716   3.058455
    17  O    3.966525   4.649626   4.539954   3.669513   2.448738
    18  O    3.246792   3.507126   3.204783   2.601920   2.408150
    19  H    2.929272   2.893343   2.368025   1.889499   2.270823
    20  H    3.072302   2.099400   1.091011   2.062584   3.468044
    21  C    2.194726   1.494667   2.498980   3.816964   4.587851
    22  H    2.541159   2.131678   3.204920   4.443737   5.029040
    23  H    3.103277   2.161915   2.654795   4.036624   5.082207
    24  H    2.539964   2.131585   3.203876   4.440616   5.122842
                    6          7          8          9         10
     6  C    0.000000
     7  C    1.520680   0.000000
     8  C    2.383842   1.522714   0.000000
     9  H    3.326176   2.176072   1.094760   0.000000
    10  H    2.181461   3.325659   3.250574   4.158152   0.000000
    11  C    2.519047   3.158884   3.419392   3.931787   2.151691
    12  H    1.093985   2.181343   3.357669   4.185678   2.750145
    13  H    1.096893   2.152262   2.758362   3.815973   2.377680
    14  H    2.190018   1.093592   2.187040   2.713873   4.183678
    15  H    2.159671   1.096547   2.162049   2.384037   3.835647
    16  H    2.844246   2.164547   1.096215   1.783639   3.623629
    17  O    3.068977   3.936710   4.495656   5.046419   2.773314
    18  O    3.450795   3.557959   3.471727   3.609701   3.131260
    19  H    3.362909   3.247751   2.777511   2.831684   3.038720
    20  H    4.342335   4.048423   2.602572   2.668543   3.755797
    21  C    5.925897   6.181556   4.989480   5.211773   4.323428
    22  H    6.325492   6.763263   5.633670   6.000622   4.539249
    23  H    6.283266   6.310588   4.956459   5.030413   4.957496
    24  H    6.555362   6.798128   5.666571   5.778333   4.910291
                   11         12         13         14         15
    11  C    0.000000
    12  H    2.639395   0.000000
    13  H    3.431480   1.774891   0.000000
    14  H    4.199841   2.666549   2.432939   0.000000
    15  H    2.987276   2.435322   3.051709   1.773424   0.000000
    16  H    4.300936   3.883690   2.790160   2.405549   3.044979
    17  O    1.222547   2.744568   3.930419   4.866075   3.676243
    18  O    1.357940   3.727518   4.403776   4.634010   3.158209
    19  H    1.889079   3.909630   4.210621   4.316135   3.022239
    20  H    4.324599   5.361924   4.532683   4.763511   4.516841
    21  C    5.084422   6.785702   6.080807   7.052275   6.570855
    22  H    5.644361   7.168272   6.325939   7.588074   7.259716
    23  H    5.697592   7.230099   6.398848   7.093029   6.731122
    24  H    5.314225   7.330555   6.842040   7.738783   7.039175
                   16         17         18         19         20
    16  H    0.000000
    17  O    5.340662   0.000000
    18  O    4.474810   2.265898   0.000000
    19  H    3.742783   3.028894   0.987922   0.000000
    20  H    2.666851   5.520131   3.991204   3.047232   0.000000
    21  C    5.123848   6.043530   4.785422   4.149273   2.716651
    22  H    5.633728   6.501645   5.556235   4.991775   3.473599
    23  H    4.967789   6.758175   5.289563   4.510509   2.408958
    24  H    5.951607   6.198618   4.836313   4.313847   3.468487
                   21         22         23         24
    21  C    0.000000
    22  H    1.094339   0.000000
    23  H    1.094538   1.772738   0.000000
    24  H    1.094327   1.774496   1.772702   0.000000
 Stoichiometry    C8H13NO2
 Framework group  C1[X(C8H13NO2)]
 Deg. of freedom    66
 Full point group                 C1      NOp   1
 Largest Abelian subgroup         C1      NOp   1
 Largest concise Abelian subgroup C1      NOp   1
                         Standard orientation:                         
 ---------------------------------------------------------------------
 Center     Atomic      Atomic             Coordinates (Angstroms)
 Number     Number       Type             X           Y           Z
 ---------------------------------------------------------------------
      1          1           0        1.997656    1.158089   -0.774960
      2          6           0        2.399847    0.258192   -0.318797
      3          6           0        1.584300   -0.706112    0.123203
      4          7           0        0.202488   -0.741083    0.090775
      5          6           0       -0.672704    0.178698   -0.703956
      6          6           0       -1.926801   -0.653342   -0.977540
      7          6           0       -2.020727   -1.555684    0.242880
      8          6           0       -0.568049   -1.922994    0.513929
      9          1           0       -0.403984   -2.151604    1.571908
     10          1           0       -0.186178    0.484600   -1.636396
     11          6           0       -1.028117    1.439701    0.098162
     12          1           0       -2.832260   -0.055389   -1.116821
     13          1           0       -1.778280   -1.265040   -1.875840
     14          1           0       -2.647831   -2.435154    0.071955
     15          1           0       -2.435799   -1.000323    1.092413
     16          1           0       -0.274078   -2.790512   -0.088299
     17          8           0       -1.760180    2.334916   -0.298444
     18          8           0       -0.456996    1.449600    1.330121
     19          1           0        0.091920    0.630117    1.386071
     20          1           0        2.012894   -1.596091    0.586398
     21          6           0        3.890136    0.191812   -0.225733
     22          1           0        4.328564    0.252333   -1.226581
     23          1           0        4.236235   -0.734733    0.243037
     24          1           0        4.263820    1.033526    0.365393
 ---------------------------------------------------------------------
 Rotational constants (GHZ):           1.5096507           0.8322121           0.6285241
 Standard basis: def2TZVPP (5D, 7F)
 There are   591 symmetry adapted cartesian basis functions of A   symmetry.
 There are   523 symmetry adapted basis functions of A   symmetry.
   523 basis functions,   782 primitive gaussians,   591 cartesian basis functions
    42 alpha electrons       42 beta electrons
       nuclear repulsion energy       644.4738511087 Hartrees.
 NAtoms=   24 NActive=   24 NUniq=   24 SFac= 1.00D+00 NAtFMM=   60 NAOKFM=F Big=F
 Integral buffers will be    131072 words long.
 Raffenetti 2 integral format.
 Two-electron integral symmetry is turned on.
 Nuclear repulsion after empirical dispersion term =      644.4729378807 Hartrees.
 ------------------------------------------------------------------------------
 Polarizable Continuum Model (PCM)
 =================================
 Model                : PCM.
 Atomic radii         : SMD-Coulomb.
 Polarization charges : Total charges.
 Charge compensation  : None.
 Solution method      : On-the-fly selection.
 Cavity type          : VdW (van der Waals Surface) (Alpha=1.000).
 Cavity algorithm     : GePol (No added spheres)
                        Default sphere list used, NSphG=   24.
                        Lebedev-Laikov grids with approx.  5.0 points / Ang**2.
                        Smoothing algorithm: York/Karplus (Gamma=1.0000).
                        Polarization charges: spherical gaussians, with
                                              point-specific exponents (IZeta= 3).
                        Self-potential: point-specific (ISelfS= 7).
                        Self-field    : sphere-specific E.n sum rule (ISelfD= 2).
 1st derivatives      : Analytical E(r).r(x)/FMM algorithm (CHGder, D1EAlg=3).
                        Cavity 1st derivative terms included.
 Solvent              : Chloroform, Eps=   4.711300 Eps(inf)=   2.090627
 ------------------------------------------------------------------------------
 ------------------------------------------------------------------------------
 Atomic radii for non-electrostatic terms: SMD-CDS.
 ------------------------------------------------------------------------------
 Nuclear repulsion after PCM non-electrostatic terms =      644.4683498586 Hartrees.
 One-electron integrals computed using PRISM.
   1 Symmetry operations used in ECPInt.
 ECPInt:  NShTT=   19900 NPrTT=   52931 LenC2=   18868 LenP2D=   39817.
 LDataN:  DoStor=T MaxTD1= 6 Len=  172
 NBasis=   523 RedAO= T EigKep=  7.87D-05  NBF=   523
 NBsUse=   523 1.00D-06 EigRej= -1.00D+00 NBFU=   523
 ExpMin= 9.52D-02 ExpMax= 2.70D+04 ExpMxC= 9.22D+02 IAcc=3 IRadAn=         5 AccDes= 0.00D+00
 Harris functional with IExCor= 1009 and IRadAn=       5 diagonalized for initial guess.
 HarFok:  IExCor= 1009 AccDes= 0.00D+00 IRadAn=         5 IDoV= 1 UseB2=F ITyADJ=14
 ICtDFT=  3500011 ScaDFX=  1.000000  1.000000  1.000000  1.000000
 FoFCou: FMM=F IPFlag=           0 FMFlag=      100000 FMFlg1=           0
         NFxFlg=           0 DoJE=T BraDBF=F KetDBF=T FulRan=T
         wScrn=  0.000000 ICntrl=       500 IOpCl=  0 I1Cent=   200000004 NGrid=           0
         NMat0=    1 NMatS0=      1 NMatT0=    0 NMatD0=    1 NMtDS0=    0 NMtDT0=    0
 Petite list used in FoFCou.
 Requested convergence on RMS density matrix=1.00D-08 within 128 cycles.
 Requested convergence on MAX density matrix=1.00D-06.
 Requested convergence on             energy=1.00D-06.
 No special actions if energy rises.
 Inv3:  Mode=1 IEnd=     9590832.
 Iteration    1 A*A^-1 deviation from unit magnitude is 6.00D-15 for   1786.
 Iteration    1 A*A^-1 deviation from orthogonality  is 2.22D-15 for    800    430.
 Iteration    1 A^-1*A deviation from unit magnitude is 6.22D-15 for   1786.
 Iteration    1 A^-1*A deviation from orthogonality  is 2.59D-15 for   1215   1150.
 Error on total polarization charges =  0.03670
 SCF Done:  E(RM062X) =  -517.869374057     A.U. after   13 cycles
            NFock= 13  Conv=0.51D-08     -V/T= 2.0055
 SMD-CDS (non-electrostatic) energy       (kcal/mol) =      -2.88
 (included in total energy above)

 **********************************************************************

            Population analysis using the SCF density.

 **********************************************************************

 Orbital symmetries:
       Occupied  (A) (A) (A) (A) (A) (A) (A) (A) (A) (A) (A) (A)
                 (A) (A) (A) (A) (A) (A) (A) (A) (A) (A) (A) (A)
                 (A) (A) (A) (A) (A) (A) (A) (A) (A) (A) (A) (A)
                 (A) (A) (A) (A) (A) (A)
       Virtual   (A) (A) (A) (A) (A) (A) (A) (A) (A) (A) (A) (A)
                 (A) (A) (A) (A) (A) (A) (A) (A) (A) (A) (A) (A)
                 (A) (A) (A) (A) (A) (A) (A) (A) (A) (A) (A) (A)
                 (A) (A) (A) (A) (A) (A) (A) (A) (A) (A) (A) (A)
                 (A) (A) (A) (A) (A) (A) (A) (A) (A) (A) (A) (A)
                 (A) (A) (A) (A) (A) (A) (A) (A) (A) (A) (A) (A)
                 (A) (A) (A) (A) (A) (A) (A) (A) (A) (A) (A) (A)
                 (A) (A) (A) (A) (A) (A) (A) (A) (A) (A) (A) (A)
                 (A) (A) (A) (A) (A) (A) (A) (A) (A) (A) (A) (A)
                 (A) (A) (A) (A) (A) (A) (A) (A) (A) (A) (A) (A)
                 (A) (A) (A) (A) (A) (A) (A) (A) (A) (A) (A) (A)
                 (A) (A) (A) (A) (A) (A) (A) (A) (A) (A) (A) (A)
                 (A) (A) (A) (A) (A) (A) (A) (A) (A) (A) (A) (A)
                 (A) (A) (A) (A) (A) (A) (A) (A) (A) (A) (A) (A)
                 (A) (A) (A) (A) (A) (A) (A) (A) (A) (A) (A) (A)
                 (A) (A) (A) (A) (A) (A) (A) (A) (A) (A) (A) (A)
                 (A) (A) (A) (A) (A) (A) (A) (A) (A) (A) (A) (A)
                 (A) (A) (A) (A) (A) (A) (A) (A) (A) (A) (A) (A)
                 (A) (A) (A) (A) (A) (A) (A) (A) (A) (A) (A) (A)
                 (A) (A) (A) (A) (A) (A) (A) (A) (A) (A) (A) (A)
                 (A) (A) (A) (A) (A) (A) (A) (A) (A) (A) (A) (A)
                 (A) (A) (A) (A) (A) (A) (A) (A) (A) (A) (A) (A)
                 (A) (A) (A) (A) (A) (A) (A) (A) (A) (A) (A) (A)
                 (A) (A) (A) (A) (A) (A) (A) (A) (A) (A) (A) (A)
                 (A) (A) (A) (A) (A) (A) (A) (A) (A) (A) (A) (A)
                 (A) (A) (A) (A) (A) (A) (A) (A) (A) (A) (A) (A)
                 (A) (A) (A) (A) (A) (A) (A) (A) (A) (A) (A) (A)
                 (A) (A) (A) (A) (A) (A) (A) (A) (A) (A) (A) (A)
                 (A) (A) (A) (A) (A) (A) (A) (A) (A) (A) (A) (A)
                 (A) (A) (A) (A) (A) (A) (A) (A) (A) (A) (A) (A)
                 (A) (A) (A) (A) (A) (A) (A) (A) (A) (A) (A) (A)
                 (A) (A) (A) (A) (A) (A) (A) (A) (A) (A) (A) (A)
                 (A) (A) (A) (A) (A) (A) (A) (A) (A) (A) (A) (A)
                 (A) (A) (A) (A) (A) (A) (A) (A) (A) (A) (A) (A)
                 (A) (A) (A) (A) (A) (A) (A) (A) (A) (A) (A) (A)
                 (A) (A) (A) (A) (A) (A) (A) (A) (A) (A) (A) (A)
                 (A) (A) (A) (A) (A) (A) (A) (A) (A) (A) (A) (A)
                 (A) (A) (A) (A) (A) (A) (A) (A) (A) (A) (A) (A)
                 (A) (A) (A) (A) (A) (A) (A) (A) (A) (A) (A) (A)
                 (A) (A) (A) (A) (A) (A) (A) (A) (A) (A) (A) (A)
                 (A)
 The electronic state is 1-A.
 Alpha  occ. eigenvalues --  -19.66460 -19.61964 -14.77075 -10.67882 -10.59476
 Alpha  occ. eigenvalues --  -10.57030 -10.57005 -10.54409 -10.53834 -10.52355
 Alpha  occ. eigenvalues --  -10.52292  -1.22006  -1.13675  -1.06330  -0.91739
 Alpha  occ. eigenvalues --   -0.86099  -0.84888  -0.77112  -0.71860  -0.68215
 Alpha  occ. eigenvalues --   -0.67584  -0.64889  -0.60745  -0.59049  -0.54907
 Alpha  occ. eigenvalues --   -0.54202  -0.52404  -0.51730  -0.48968  -0.48451
 Alpha  occ. eigenvalues --   -0.47388  -0.45529  -0.45390  -0.43252  -0.41847
 Alpha  occ. eigenvalues --   -0.41636  -0.40808  -0.40483  -0.39030  -0.38218
 Alpha  occ. eigenvalues --   -0.35059  -0.25174
 Alpha virt. eigenvalues --    0.03753   0.06067   0.06451   0.09168   0.09463
 Alpha virt. eigenvalues --    0.10400   0.11311   0.12144   0.12776   0.14365
 Alpha virt. eigenvalues --    0.15179   0.15599   0.15799   0.16835   0.17381
 Alpha virt. eigenvalues --    0.17711   0.18431   0.19223   0.20788   0.21476
 Alpha virt. eigenvalues --    0.23260   0.23507   0.24236   0.25057   0.25162
 Alpha virt. eigenvalues --    0.26171   0.27221   0.29275   0.29909   0.30514
 Alpha virt. eigenvalues --    0.31075   0.32479   0.33322   0.33786   0.35283
 Alpha virt. eigenvalues --    0.35503   0.37029   0.37186   0.38231   0.40612
 Alpha virt. eigenvalues --    0.41284   0.41699   0.42383   0.43039   0.44112
 Alpha virt. eigenvalues --    0.44125   0.45068   0.45393   0.46085   0.46705
 Alpha virt. eigenvalues --    0.47140   0.47834   0.48150   0.48670   0.48785
 Alpha virt. eigenvalues --    0.49868   0.50921   0.51216   0.51816   0.52863
 Alpha virt. eigenvalues --    0.54316   0.54451   0.55606   0.55817   0.56841
 Alpha virt. eigenvalues --    0.58492   0.59385   0.60967   0.62056   0.63529
 Alpha virt. eigenvalues --    0.64446   0.66162   0.66408   0.68148   0.68764
 Alpha virt. eigenvalues --    0.70103   0.71318   0.72092   0.74235   0.75197
 Alpha virt. eigenvalues --    0.75425   0.77740   0.81136   0.81974   0.83924
 Alpha virt. eigenvalues --    0.84241   0.84937   0.86026   0.87510   0.87619
 Alpha virt. eigenvalues --    0.89040   0.91132   0.92099   0.93166   0.94185
 Alpha virt. eigenvalues --    0.94674   0.95866   0.96514   0.97393   0.99247
 Alpha virt. eigenvalues --    0.99625   1.01711   1.02703   1.03182   1.03506
 Alpha virt. eigenvalues --    1.04620   1.05563   1.06683   1.07645   1.09511
 Alpha virt. eigenvalues --    1.11477   1.11612   1.12853   1.13464   1.14034
 Alpha virt. eigenvalues --    1.15411   1.16427   1.17199   1.17371   1.18808
 Alpha virt. eigenvalues --    1.19803   1.20500   1.20562   1.22944   1.24398
 Alpha virt. eigenvalues --    1.25754   1.27322   1.28131   1.29763   1.30139
 Alpha virt. eigenvalues --    1.32016   1.32634   1.33992   1.35583   1.37831
 Alpha virt. eigenvalues --    1.38581   1.39473   1.40386   1.41532   1.43940
 Alpha virt. eigenvalues --    1.44250   1.45669   1.46736   1.47885   1.49169
 Alpha virt. eigenvalues --    1.49728   1.50387   1.50553   1.51762   1.52619
 Alpha virt. eigenvalues --    1.52986   1.54217   1.56637   1.57337   1.58298
 Alpha virt. eigenvalues --    1.59255   1.59454   1.60988   1.62030   1.63379
 Alpha virt. eigenvalues --    1.64781   1.65965   1.67271   1.68170   1.69851
 Alpha virt. eigenvalues --    1.71203   1.73486   1.73960   1.74682   1.76970
 Alpha virt. eigenvalues --    1.77481   1.80581   1.81864   1.83450   1.84958
 Alpha virt. eigenvalues --    1.85610   1.87915   1.91409   1.92967   1.94020
 Alpha virt. eigenvalues --    1.98516   1.99833   2.00863   2.04206   2.07131
 Alpha virt. eigenvalues --    2.09245   2.11094   2.11744   2.13986   2.15311
 Alpha virt. eigenvalues --    2.16792   2.18260   2.21232   2.21984   2.24937
 Alpha virt. eigenvalues --    2.27746   2.29045   2.31324   2.33235   2.35439
 Alpha virt. eigenvalues --    2.40178   2.41699   2.43945   2.46391   2.47667
 Alpha virt. eigenvalues --    2.48668   2.51972   2.52941   2.53332   2.54958
 Alpha virt. eigenvalues --    2.57518   2.58486   2.60273   2.61014   2.63231
 Alpha virt. eigenvalues --    2.63640   2.65276   2.66792   2.68594   2.70127
 Alpha virt. eigenvalues --    2.70998   2.72307   2.73807   2.74852   2.76155
 Alpha virt. eigenvalues --    2.77360   2.79044   2.80343   2.80976   2.82477
 Alpha virt. eigenvalues --    2.83630   2.84234   2.86189   2.87698   2.88816
 Alpha virt. eigenvalues --    2.89876   2.92107   2.92629   2.94045   2.94965
 Alpha virt. eigenvalues --    2.96003   2.96450   2.97723   2.98087   2.99777
 Alpha virt. eigenvalues --    3.01042   3.01690   3.02115   3.02817   3.04955
 Alpha virt. eigenvalues --    3.05740   3.07233   3.07554   3.08254   3.09970
 Alpha virt. eigenvalues --    3.11346   3.12164   3.13478   3.14842   3.15118
 Alpha virt. eigenvalues --    3.16479   3.18378   3.18769   3.19485   3.20050
 Alpha virt. eigenvalues --    3.20516   3.22217   3.22703   3.24032   3.25681
 Alpha virt. eigenvalues --    3.26303   3.26962   3.29019   3.29788   3.30874
 Alpha virt. eigenvalues --    3.31717   3.32050   3.33263   3.36320   3.37058
 Alpha virt. eigenvalues --    3.37716   3.39240   3.40680   3.41916   3.42609
 Alpha virt. eigenvalues --    3.44608   3.44719   3.45489   3.47464   3.48644
 Alpha virt. eigenvalues --    3.49702   3.50634   3.51664   3.52562   3.54421
 Alpha virt. eigenvalues --    3.54545   3.55755   3.57542   3.57884   3.59367
 Alpha virt. eigenvalues --    3.59778   3.60258   3.61035   3.62478   3.63385
 Alpha virt. eigenvalues --    3.64153   3.67099   3.68213   3.69172   3.70191
 Alpha virt. eigenvalues --    3.71491   3.72099   3.74245   3.76342   3.76733
 Alpha virt. eigenvalues --    3.77409   3.78974   3.79707   3.82247   3.82420
 Alpha virt. eigenvalues --    3.83233   3.84375   3.86330   3.86454   3.87594
 Alpha virt. eigenvalues --    3.88420   3.91046   3.91744   3.92806   3.93589
 Alpha virt. eigenvalues --    3.93777   3.95189   3.97008   3.98784   3.99439
 Alpha virt. eigenvalues --    4.01040   4.01777   4.02761   4.03472   4.04967
 Alpha virt. eigenvalues --    4.05473   4.06396   4.07129   4.08342   4.10275
 Alpha virt. eigenvalues --    4.10716   4.12827   4.13670   4.15419   4.15898
 Alpha virt. eigenvalues --    4.16188   4.17978   4.18807   4.21335   4.21612
 Alpha virt. eigenvalues --    4.22167   4.23615   4.26254   4.27235   4.28816
 Alpha virt. eigenvalues --    4.30226   4.30490   4.32465   4.33277   4.35718
 Alpha virt. eigenvalues --    4.37853   4.38818   4.39154   4.42106   4.42251
 Alpha virt. eigenvalues --    4.43633   4.45109   4.48066   4.49559   4.50564
 Alpha virt. eigenvalues --    4.54807   4.56043   4.58412   4.59697   4.62354
 Alpha virt. eigenvalues --    4.64289   4.64589   4.66034   4.67564   4.68847
 Alpha virt. eigenvalues --    4.69370   4.71969   4.73822   4.74894   4.75917
 Alpha virt. eigenvalues --    4.78485   4.79321   4.81350   4.82276   4.85972
 Alpha virt. eigenvalues --    4.86924   4.87263   4.88090   4.89681   4.92970
 Alpha virt. eigenvalues --    4.95371   4.96649   4.97935   5.01627   5.05234
 Alpha virt. eigenvalues --    5.06340   5.07869   5.09562   5.13566   5.14354
 Alpha virt. eigenvalues --    5.15768   5.19044   5.19495   5.20651   5.20752
 Alpha virt. eigenvalues --    5.22614   5.24071   5.26112   5.27389   5.29542
 Alpha virt. eigenvalues --    5.30988   5.31307   5.32389   5.32956   5.34812
 Alpha virt. eigenvalues --    5.36194   5.39303   5.41285   5.41940   5.44590
 Alpha virt. eigenvalues --    5.46539   5.48641   5.50657   5.51349   5.53622
 Alpha virt. eigenvalues --    5.55107   5.56622   5.57173   5.58880   5.60304
 Alpha virt. eigenvalues --    5.61548   5.62539   5.63812   5.68153   5.70393
 Alpha virt. eigenvalues --    5.71468   5.75204   5.82338   5.89884   5.92275
 Alpha virt. eigenvalues --    5.96888   6.00641   6.04022   6.15713   6.28183
 Alpha virt. eigenvalues --    6.32501   6.34038   6.44145   6.47639   6.53430
 Alpha virt. eigenvalues --    6.62117   6.75021   6.77442   6.82737   6.83503
 Alpha virt. eigenvalues --    6.98971   7.07256   7.13654   7.33932   7.48874
 Alpha virt. eigenvalues --   23.06623  23.10370  23.38626  23.46786  23.52420
 Alpha virt. eigenvalues --   23.54971  23.60031  23.71948  33.38999  44.06329
 Alpha virt. eigenvalues --   44.15725
          Condensed to atoms (all electrons):
               1          2          3          4          5          6
     1  H    0.510123   0.419409  -0.041653  -0.002180   0.008802   0.000474
     2  C    0.419409   5.153254   0.580032  -0.070774  -0.006913   0.001884
     3  C   -0.041653   0.580032   4.973214   0.304372  -0.073044   0.005939
     4  N   -0.002180  -0.070774   0.304372   6.865014   0.123905  -0.032079
     5  C    0.008802  -0.006913  -0.073044   0.123905   5.638426   0.180277
     6  C    0.000474   0.001884   0.005939  -0.032079   0.180277   5.188640
     7  C   -0.000029   0.000461   0.004444  -0.038115  -0.003327   0.162819
     8  C    0.000096  -0.001399  -0.055275   0.231870  -0.056974  -0.022236
     9  H   -0.000033  -0.000770  -0.001538  -0.045270   0.002570   0.013357
    10  H   -0.002451   0.004858  -0.005391  -0.026811   0.423506  -0.027455
    11  C   -0.003367  -0.000104   0.017246  -0.029137   0.178567  -0.005022
    12  H    0.000003   0.000038  -0.000290   0.004579  -0.035055   0.437787
    13  H   -0.000022   0.000255   0.000360   0.000367  -0.047508   0.445901
    14  H    0.000002  -0.000003  -0.000283   0.005738   0.007032  -0.035336
    15  H    0.000003  -0.000003  -0.000655  -0.000802   0.022097  -0.066574
    16  H    0.000003   0.003223  -0.010217  -0.048581   0.004024  -0.015463
    17  O    0.000391  -0.000436  -0.000190   0.008358  -0.113359  -0.005743
    18  O   -0.000904   0.007542  -0.005199  -0.021160  -0.129015  -0.007609
    19  H   -0.000068  -0.005273  -0.004517   0.042368  -0.007367  -0.000032
    20  H    0.003259  -0.030262   0.418394  -0.022607   0.008527  -0.000721
    21  C   -0.018549   0.275479  -0.065033   0.006215  -0.002244   0.000034
    22  H   -0.003055  -0.051329   0.000378  -0.000251   0.000069   0.000008
    23  H    0.003960  -0.063762   0.008155   0.000537   0.000173   0.000001
    24  H   -0.002205  -0.046861  -0.007474   0.000228  -0.000118  -0.000004
               7          8          9         10         11         12
     1  H   -0.000029   0.000096  -0.000033  -0.002451  -0.003367   0.000003
     2  C    0.000461  -0.001399  -0.000770   0.004858  -0.000104   0.000038
     3  C    0.004444  -0.055275  -0.001538  -0.005391   0.017246  -0.000290
     4  N   -0.038115   0.231870  -0.045270  -0.026811  -0.029137   0.004579
     5  C   -0.003327  -0.056974   0.002570   0.423506   0.178567  -0.035055
     6  C    0.162819  -0.022236   0.013357  -0.027455  -0.005022   0.437787
     7  C    5.154535   0.220847  -0.043282   0.014413  -0.016474  -0.045863
     8  C    0.220847   5.044670   0.446536  -0.000784   0.001756   0.009905
     9  H   -0.043282   0.446536   0.531791  -0.000784   0.003002  -0.000149
    10  H    0.014413  -0.000784  -0.000784   0.499082  -0.055367   0.001656
    11  C   -0.016474   0.001756   0.003002  -0.055367   4.511599  -0.004145
    12  H   -0.045863   0.009905  -0.000149   0.001656  -0.004145   0.495953
    13  H   -0.042971  -0.001882  -0.000300  -0.007879   0.001344  -0.012703
    14  H    0.440801  -0.038151   0.000885  -0.000156   0.000332  -0.001601
    15  H    0.459397  -0.055366  -0.009429   0.000359  -0.005781  -0.003429
    16  H   -0.014578   0.418068  -0.038548   0.002288  -0.002036  -0.000408
    17  O    0.001460  -0.000659  -0.000013   0.005003   0.707609   0.009990
    18  O    0.004725   0.004832   0.000347   0.004253   0.355585   0.001121
    19  H    0.000737  -0.002641  -0.003055   0.002017  -0.038150  -0.000269
    20  H    0.000746  -0.004572   0.000247  -0.000121  -0.000232   0.000020
    21  C    0.000048  -0.000220  -0.000004   0.000050   0.000432   0.000002
    22  H   -0.000011   0.000056   0.000013  -0.000270   0.000084   0.000000
    23  H    0.000005   0.000118  -0.000003  -0.000023  -0.000019  -0.000000
    24  H    0.000005  -0.000030  -0.000022   0.000152  -0.000153  -0.000000
              13         14         15         16         17         18
     1  H   -0.000022   0.000002   0.000003   0.000003   0.000391  -0.000904
     2  C    0.000255  -0.000003  -0.000003   0.003223  -0.000436   0.007542
     3  C    0.000360  -0.000283  -0.000655  -0.010217  -0.000190  -0.005199
     4  N    0.000367   0.005738  -0.000802  -0.048581   0.008358  -0.021160
     5  C   -0.047508   0.007032   0.022097   0.004024  -0.113359  -0.129015
     6  C    0.445901  -0.035336  -0.066574  -0.015463  -0.005743  -0.007609
     7  C   -0.042971   0.440801   0.459397  -0.014578   0.001460   0.004725
     8  C   -0.001882  -0.038151  -0.055366   0.418068  -0.000659   0.004832
     9  H   -0.000300   0.000885  -0.009429  -0.038548  -0.000013   0.000347
    10  H   -0.007879  -0.000156   0.000359   0.002288   0.005003   0.004253
    11  C    0.001344   0.000332  -0.005781  -0.002036   0.707609   0.355585
    12  H   -0.012703  -0.001601  -0.003429  -0.000408   0.009990   0.001121
    13  H    0.529310  -0.005921   0.005282   0.001440  -0.000439  -0.000504
    14  H   -0.005921   0.513318  -0.014338  -0.005953  -0.000063   0.000124
    15  H    0.005282  -0.014338   0.529439   0.006019  -0.000185   0.001334
    16  H    0.001440  -0.005953   0.006019   0.558196   0.000029  -0.000120
    17  O   -0.000439  -0.000063  -0.000185   0.000029   7.852446  -0.086041
    18  O   -0.000504   0.000124   0.001334  -0.000120  -0.086041   7.879255
    19  H   -0.000028   0.000054   0.000665   0.001021   0.005304   0.322438
    20  H   -0.000006  -0.000023  -0.000017  -0.001188   0.000008   0.000027
    21  C   -0.000007  -0.000001  -0.000002  -0.000045  -0.000007   0.000295
    22  H   -0.000001   0.000000  -0.000000  -0.000039  -0.000000  -0.000008
    23  H    0.000000  -0.000000   0.000000  -0.000002   0.000000  -0.000002
    24  H    0.000000   0.000000   0.000000   0.000021   0.000000   0.000038
              19         20         21         22         23         24
     1  H   -0.000068   0.003259  -0.018549  -0.003055   0.003960  -0.002205
     2  C   -0.005273  -0.030262   0.275479  -0.051329  -0.063762  -0.046861
     3  C   -0.004517   0.418394  -0.065033   0.000378   0.008155  -0.007474
     4  N    0.042368  -0.022607   0.006215  -0.000251   0.000537   0.000228
     5  C   -0.007367   0.008527  -0.002244   0.000069   0.000173  -0.000118
     6  C   -0.000032  -0.000721   0.000034   0.000008   0.000001  -0.000004
     7  C    0.000737   0.000746   0.000048  -0.000011   0.000005   0.000005
     8  C   -0.002641  -0.004572  -0.000220   0.000056   0.000118  -0.000030
     9  H   -0.003055   0.000247  -0.000004   0.000013  -0.000003  -0.000022
    10  H    0.002017  -0.000121   0.000050  -0.000270  -0.000023   0.000152
    11  C   -0.038150  -0.000232   0.000432   0.000084  -0.000019  -0.000153
    12  H   -0.000269   0.000020   0.000002   0.000000  -0.000000  -0.000000
    13  H   -0.000028  -0.000006  -0.000007  -0.000001   0.000000   0.000000
    14  H    0.000054  -0.000023  -0.000001   0.000000  -0.000000   0.000000
    15  H    0.000665  -0.000017  -0.000002  -0.000000   0.000000   0.000000
    16  H    0.001021  -0.001188  -0.000045  -0.000039  -0.000002   0.000021
    17  O    0.005304   0.000008  -0.000007  -0.000000   0.000000   0.000000
    18  O    0.322438   0.000027   0.000295  -0.000008  -0.000002   0.000038
    19  H    0.392779   0.000048  -0.000039  -0.000049   0.000017   0.000165
    20  H    0.000048   0.506319  -0.004138   0.000326   0.001990  -0.000120
    21  C   -0.000039  -0.004138   4.884882   0.418975   0.433863   0.420263
    22  H   -0.000049   0.000326   0.418975   0.575485  -0.026649  -0.035554
    23  H    0.000017   0.001990   0.433863  -0.026649   0.568910  -0.026121
    24  H    0.000165  -0.000120   0.420263  -0.035554  -0.026121   0.575875
 Mulliken charges:
               1
     1  H    0.127990
     2  C   -0.168547
     3  C   -0.041773
     4  N   -0.255785
     5  C   -0.123050
     6  C   -0.218849
     7  C   -0.260794
     8  C   -0.138565
     9  H    0.144452
    10  H    0.169853
    11  C    0.382430
    12  H    0.142859
    13  H    0.135911
    14  H    0.133544
    15  H    0.131987
    16  H    0.142846
    17  O   -0.383462
    18  O   -0.331355
    19  H    0.293876
    20  H    0.124094
    21  C   -0.350250
    22  H    0.121823
    23  H    0.098853
    24  H    0.121912
 Sum of Mulliken charges =  -0.00000
 Mulliken charges with hydrogens summed into heavy atoms:
               1
     2  C   -0.040557
     3  C    0.082321
     4  N   -0.255785
     5  C    0.046803
     6  C    0.059921
     7  C    0.004738
     8  C    0.148733
    11  C    0.382430
    17  O   -0.383462
    18  O   -0.037480
    21  C   -0.007662
 Electronic spatial extent (au):  <R**2>=           1946.7632
 Charge=             -0.0000 electrons
 Dipole moment (field-independent basis, Debye):
    X=              1.3441    Y=             -6.0502    Z=             -0.4331  Tot=              6.2129
 Quadrupole moment (field-independent basis, Debye-Ang):
   XX=            -67.7153   YY=            -75.0188   ZZ=            -67.0124
   XY=              9.8786   XZ=              0.9713   YZ=             -2.9488
 Traceless Quadrupole moment (field-independent basis, Debye-Ang):
   XX=              2.2002   YY=             -5.1033   ZZ=              2.9031
   XY=              9.8786   XZ=              0.9713   YZ=             -2.9488
 Octapole moment (field-independent basis, Debye-Ang**2):
  XXX=             -3.7308  YYY=            -31.2064  ZZZ=              1.5536  XYY=             16.4154
  XXY=            -16.1705  XXZ=              2.8531  XZZ=             -3.3904  YZZ=             -3.3259
  YYZ=              0.8575  XYZ=             -4.9716
 Hexadecapole moment (field-independent basis, Debye-Ang**3):
 XXXX=          -1590.3544 YYYY=           -799.2228 ZZZZ=           -254.0957 XXXY=             22.1396
 XXXZ=              1.5195 YYYX=             49.4531 YYYZ=              0.6874 ZZZX=              3.4430
 ZZZY=             -4.6230 XXYY=           -413.1634 XXZZ=           -311.8623 YYZZ=           -174.5220
 XXYZ=              1.6529 YYXZ=              0.7717 ZZXY=              4.4423
 N-N= 6.444683498586D+02 E-N=-2.495624231958D+03  KE= 5.150451786507D+02
   1 Symmetry operations used in ECPInt.
 ECPInt:  NShTT=   19900 NPrTT=   52931 LenC2=   18868 LenP2D=   39817.
 LDataN:  DoStor=T MaxTD1= 7 Len=  274
 D1PCM: PCM CHGder 1st derivatives, ID1Alg=3 FixD1E=F DoIter=F DoCFld=F I1PDM=0.
 Calling FoFJK, ICntrl=      2127 FMM=F ISym2X=0 I1Cent= 0 IOpClX= 0 NMat=1 NMatS=1 NMatT=0.
 ***** Axes restored to original set *****
 -------------------------------------------------------------------
 Center     Atomic                   Forces (Hartrees/Bohr)
 Number     Number              X              Y              Z
 -------------------------------------------------------------------
      1        1          -0.000976143   -0.002650859    0.000539400
      2        6          -0.002410551   -0.004944888    0.001365478
      3        6           0.001473226    0.001640268   -0.007107996
      4        7          -0.025409729   -0.010636959    0.013139470
      5        6           0.013203812    0.004380366   -0.007052655
      6        6          -0.005535247   -0.006161522   -0.003693988
      7        6           0.002754421   -0.002559916    0.002717651
      8        6           0.005276084    0.000892712   -0.004653217
      9        1          -0.001079180    0.002848937   -0.002797402
     10        1           0.002112121    0.000448762    0.003127008
     11        6          -0.003588865    0.005559547    0.018600135
     12        1           0.002430647    0.005247771   -0.001916083
     13        1           0.000870902    0.002544505    0.004048779
     14        1           0.000975852    0.003713357    0.001566603
     15        1          -0.000137129    0.000590282   -0.002844830
     16        1           0.001352071   -0.000501654    0.001240278
     17        8           0.037154741   -0.002944851   -0.017575425
     18        8          -0.019195381   -0.000316062   -0.007550558
     19        1          -0.008161692   -0.000602389    0.007725360
     20        1          -0.002377408    0.000950686    0.001532197
     21        6           0.001000636   -0.000608114   -0.000020143
     22        1           0.002564671    0.001592230    0.001598120
     23        1          -0.002735700    0.000111983    0.001122661
     24        1           0.000437840    0.001405807   -0.003110843
 -------------------------------------------------------------------
 Cartesian Forces:  Max     0.037154741 RMS     0.007663670

 GradGradGradGradGradGradGradGradGradGradGradGradGradGradGradGradGradGrad
 Berny optimization.
 FormGI is forming the generalized inverse of G from B-inverse, IUseBI=4.
 Internal  Forces:  Max     0.041202963 RMS     0.005973925
 Search for a local minimum.
 Step number   1 out of a maximum of  144
 All quantities printed in internal units (Hartrees-Bohrs-Radians)
 Mixed Optimization -- RFO/linear search
 Second derivative matrix not updated -- first step.
 ITU=  0
     Eigenvalues ---    0.00287   0.00514   0.00651   0.00762   0.00836
     Eigenvalues ---    0.00994   0.01713   0.01921   0.02248   0.02444
     Eigenvalues ---    0.02675   0.02908   0.03114   0.04672   0.04931
     Eigenvalues ---    0.05253   0.05449   0.05843   0.06165   0.06405
     Eigenvalues ---    0.06648   0.06874   0.06926   0.07193   0.07477
     Eigenvalues ---    0.08317   0.09320   0.10691   0.13571   0.16000
     Eigenvalues ---    0.16000   0.16000   0.16000   0.16000   0.16000
     Eigenvalues ---    0.18988   0.20975   0.22000   0.22000   0.23171
     Eigenvalues ---    0.24996   0.25000   0.27384   0.28813   0.28860
     Eigenvalues ---    0.29103   0.31851   0.32943   0.34028   0.34067
     Eigenvalues ---    0.34104   0.34205   0.34246   0.34268   0.34293
     Eigenvalues ---    0.34316   0.34317   0.34356   0.34401   0.34696
     Eigenvalues ---    0.35265   0.48624   0.49876   0.53366   0.57645
     Eigenvalues ---    0.94264
 RFO step:  Lambda=-1.26255724D-02 EMin= 2.87399156D-03
 Linear search not attempted -- first point.
 Iteration  1 RMS(Cart)=  0.08381079 RMS(Int)=  0.00414545
 Iteration  2 RMS(Cart)=  0.00548245 RMS(Int)=  0.00032328
 Iteration  3 RMS(Cart)=  0.00002221 RMS(Int)=  0.00032263
 Iteration  4 RMS(Cart)=  0.00000000 RMS(Int)=  0.00032263
 Variable       Old X    -DE/DX   Delta X   Delta X   Delta X     New X
                                 (Linear)    (Quad)   (Total)
    R1        2.05247   0.00016   0.00000   0.00043   0.00043   2.05289
    R2        2.52854  -0.00452   0.00000  -0.00767  -0.00767   2.52087
    R3        2.82451   0.00269   0.00000   0.00785   0.00785   2.83236
    R4        2.61280  -0.00237   0.00000  -0.00476  -0.00476   2.60804
    R5        2.06171  -0.00294   0.00000  -0.00817  -0.00817   2.05355
    R6        2.83053  -0.02378   0.00000  -0.07133  -0.07096   2.75957
    R7        2.78355  -0.00472   0.00000  -0.01266  -0.01238   2.77117
    R8        2.89066  -0.00026   0.00000  -0.00268  -0.00273   2.88793
    R9        2.06986  -0.00244   0.00000  -0.00688  -0.00688   2.06298
   R10        2.90295   0.00070   0.00000   0.00231   0.00231   2.90526
   R11        2.87367   0.00441   0.00000   0.01633   0.01599   2.88966
   R12        2.06733  -0.00427   0.00000  -0.01198  -0.01198   2.05535
   R13        2.07283  -0.00434   0.00000  -0.01230  -0.01230   2.06052
   R14        2.87751  -0.00049   0.00000  -0.00117  -0.00140   2.87612
   R15        2.06659  -0.00409   0.00000  -0.01146  -0.01146   2.05513
   R16        2.07217  -0.00290   0.00000  -0.00821  -0.00821   2.06397
   R17        2.06880  -0.00292   0.00000  -0.00821  -0.00821   2.06059
   R18        2.07155  -0.00093   0.00000  -0.00263  -0.00263   2.06892
   R19        2.31028  -0.04120   0.00000  -0.04313  -0.04313   2.26715
   R20        2.56613  -0.02356   0.00000  -0.04314  -0.04314   2.52300
   R21        1.86690  -0.01107   0.00000  -0.02164  -0.02164   1.84526
   R22        2.06800  -0.00143   0.00000  -0.00402  -0.00402   2.06398
   R23        2.06838  -0.00277   0.00000  -0.00780  -0.00780   2.06058
   R24        2.06798  -0.00133   0.00000  -0.00375  -0.00375   2.06423
    A1        2.10616  -0.00250   0.00000  -0.01514  -0.01514   2.09102
    A2        2.01769   0.00340   0.00000   0.01901   0.01901   2.03670
    A3        2.15934  -0.00090   0.00000  -0.00388  -0.00388   2.15545
    A4        2.23906  -0.00696   0.00000  -0.02992  -0.02994   2.20912
    A5        2.08139   0.00348   0.00000   0.01492   0.01490   2.09629
    A6        1.96268   0.00347   0.00000   0.01489   0.01487   1.97755
    A7        2.19059  -0.01117   0.00000  -0.04848  -0.04916   2.14142
    A8        2.13691  -0.00129   0.00000  -0.01076  -0.01204   2.12487
    A9        1.91717   0.01200   0.00000   0.04033   0.03991   1.95708
   A10        1.81308  -0.00274   0.00000  -0.00937  -0.00932   1.80376
   A11        1.94297  -0.00124   0.00000  -0.01782  -0.01774   1.92523
   A12        1.94144   0.00514   0.00000   0.04006   0.04014   1.98157
   A13        1.94316   0.00228   0.00000   0.01455   0.01453   1.95769
   A14        1.92859  -0.00023   0.00000   0.00346   0.00304   1.93163
   A15        1.89444  -0.00301   0.00000  -0.02867  -0.02840   1.86603
   A16        1.80273  -0.00148   0.00000  -0.00666  -0.00703   1.79570
   A17        1.98671  -0.00283   0.00000  -0.02746  -0.02725   1.95946
   A18        1.91643   0.00021   0.00000  -0.01149  -0.01137   1.90507
   A19        1.95561   0.00382   0.00000   0.03221   0.03211   1.98772
   A20        1.91209   0.00023   0.00000   0.00907   0.00912   1.92121
   A21        1.88874   0.00006   0.00000   0.00446   0.00369   1.89242
   A22        1.79986  -0.00235   0.00000  -0.00706  -0.00741   1.79245
   A23        1.96837   0.00138   0.00000   0.00262   0.00278   1.97115
   A24        1.92263   0.00036   0.00000   0.00471   0.00470   1.92732
   A25        1.96156  -0.00029   0.00000  -0.00593  -0.00585   1.95570
   A26        1.92344   0.00123   0.00000   0.00341   0.00355   1.92699
   A27        1.88739  -0.00032   0.00000   0.00221   0.00214   1.88953
   A28        1.82798  -0.00703   0.00000  -0.03008  -0.02962   1.79837
   A29        1.94635   0.00049   0.00000  -0.01224  -0.01200   1.93435
   A30        1.91441   0.00269   0.00000   0.01543   0.01531   1.92972
   A31        1.94482   0.00398   0.00000   0.02607   0.02572   1.97054
   A32        1.92724   0.00190   0.00000   0.00852   0.00841   1.93565
   A33        1.90230  -0.00203   0.00000  -0.00775  -0.00787   1.89443
   A34        2.17759  -0.01040   0.00000  -0.03956  -0.03957   2.13802
   A35        1.96317   0.02278   0.00000   0.08678   0.08677   2.04994
   A36        2.14221  -0.01237   0.00000  -0.04706  -0.04707   2.09514
   A37        1.85357  -0.00041   0.00000  -0.00235  -0.00235   1.85122
   A38        1.91777   0.00373   0.00000   0.02156   0.02148   1.93926
   A39        1.96010  -0.00282   0.00000  -0.01660  -0.01651   1.94359
   A40        1.91766   0.00384   0.00000   0.02251   0.02243   1.94009
   A41        1.88791  -0.00067   0.00000  -0.00441  -0.00433   1.88358
   A42        1.89092  -0.00368   0.00000  -0.02086  -0.02110   1.86982
   A43        1.88787  -0.00060   0.00000  -0.00340  -0.00331   1.88456
    D1       -0.00192  -0.00037   0.00000  -0.00902  -0.00904  -0.01096
    D2       -3.13131   0.00009   0.00000   0.00319   0.00318  -3.12813
    D3        3.13638  -0.00044   0.00000  -0.01157  -0.01156   3.12481
    D4        0.00698   0.00002   0.00000   0.00064   0.00066   0.00764
    D5       -1.04104  -0.00015   0.00000  -0.00318  -0.00332  -1.04436
    D6        3.13994  -0.00000   0.00000  -0.00147  -0.00148   3.13846
    D7        1.03787  -0.00002   0.00000  -0.00170  -0.00158   1.03628
    D8        2.10369  -0.00007   0.00000  -0.00069  -0.00081   2.10288
    D9        0.00149   0.00008   0.00000   0.00102   0.00103   0.00252
   D10       -2.10058   0.00006   0.00000   0.00079   0.00093  -2.09966
   D11        0.23330  -0.00015   0.00000   0.03331   0.03226   0.26557
   D12        3.04987   0.00008   0.00000  -0.03726  -0.03622   3.01365
   D13       -2.91981  -0.00057   0.00000   0.02181   0.02078  -2.89903
   D14       -0.10324  -0.00034   0.00000  -0.04875  -0.04771  -0.15094
   D15        2.65350  -0.00138   0.00000  -0.05210  -0.05188   2.60162
   D16        0.56051  -0.00184   0.00000  -0.05475  -0.05478   0.50573
   D17       -1.55474  -0.00069   0.00000  -0.03355  -0.03344  -1.58818
   D18       -0.19749  -0.00005   0.00000   0.01693   0.01722  -0.18027
   D19       -2.29048  -0.00050   0.00000   0.01428   0.01432  -2.27615
   D20        1.87745   0.00065   0.00000   0.03548   0.03567   1.91311
   D21       -3.08853   0.00178   0.00000   0.04688   0.04781  -3.04072
   D22        1.08891   0.00105   0.00000   0.04060   0.04113   1.13004
   D23       -1.02014   0.00147   0.00000   0.04793   0.04867  -0.97147
   D24       -0.22693  -0.00156   0.00000  -0.02747  -0.02801  -0.25494
   D25       -2.33267  -0.00229   0.00000  -0.03375  -0.03469  -2.36736
   D26        1.84146  -0.00187   0.00000  -0.02641  -0.02715   1.81431
   D27        0.54228   0.00066   0.00000  -0.00326  -0.00309   0.53920
   D28        2.66695   0.00280   0.00000   0.01662   0.01654   2.68349
   D29       -1.49592   0.00107   0.00000  -0.00511  -0.00495  -1.50088
   D30        2.63514  -0.00128   0.00000  -0.02258  -0.02240   2.61274
   D31       -1.52338   0.00086   0.00000  -0.00270  -0.00277  -1.52615
   D32        0.59693  -0.00087   0.00000  -0.02443  -0.02427   0.57266
   D33       -1.54145  -0.00372   0.00000  -0.04677  -0.04662  -1.58806
   D34        0.58322  -0.00158   0.00000  -0.02690  -0.02699   0.55623
   D35        2.70353  -0.00331   0.00000  -0.04863  -0.04849   2.65504
   D36       -3.10241  -0.00081   0.00000  -0.06538  -0.06570   3.11508
   D37        0.01731  -0.00066   0.00000  -0.05762  -0.05794  -0.04063
   D38       -1.09807  -0.00126   0.00000  -0.05107  -0.05088  -1.14894
   D39        2.02165  -0.00111   0.00000  -0.04332  -0.04312   1.97853
   D40        1.03735  -0.00055   0.00000  -0.04959  -0.04947   0.98788
   D41       -2.12612  -0.00039   0.00000  -0.04184  -0.04171  -2.16783
   D42       -0.68339  -0.00153   0.00000  -0.01517  -0.01525  -0.69864
   D43       -2.80350  -0.00042   0.00000  -0.00491  -0.00497  -2.80847
   D44        1.36921  -0.00121   0.00000  -0.01286  -0.01300   1.35621
   D45       -2.82885   0.00074   0.00000   0.00473   0.00496  -2.82390
   D46        1.33422   0.00185   0.00000   0.01498   0.01524   1.34945
   D47       -0.77625   0.00107   0.00000   0.00703   0.00721  -0.76904
   D48        1.35789  -0.00195   0.00000  -0.02780  -0.02796   1.32993
   D49       -0.76223  -0.00084   0.00000  -0.01754  -0.01768  -0.77991
   D50       -2.87270  -0.00163   0.00000  -0.02549  -0.02571  -2.89841
   D51        0.56248   0.00034   0.00000   0.02010   0.01994   0.58241
   D52        2.66923  -0.00124   0.00000   0.00101   0.00077   2.67000
   D53       -1.49720   0.00018   0.00000   0.01460   0.01451  -1.48269
   D54        2.68720   0.00037   0.00000   0.01567   0.01562   2.70282
   D55       -1.48924  -0.00121   0.00000  -0.00341  -0.00355  -1.49279
   D56        0.62752   0.00021   0.00000   0.01018   0.01019   0.63771
   D57       -1.48955   0.00063   0.00000   0.01688   0.01687  -1.47268
   D58        0.61720  -0.00096   0.00000  -0.00221  -0.00229   0.61491
   D59        2.73396   0.00046   0.00000   0.01139   0.01145   2.74541
   D60        0.04030  -0.00186   0.00000  -0.05443  -0.05442  -0.01413
   D61       -3.12266  -0.00169   0.00000  -0.04680  -0.04681   3.11371
         Item               Value     Threshold  Converged?
 Maximum Force            0.041203     0.000450     NO 
 RMS     Force            0.005974     0.000300     NO 
 Maximum Displacement     0.499895     0.001800     NO 
 RMS     Displacement     0.083490     0.001200     NO 
 Predicted change in Energy=-6.903196D-03
 GradGradGradGradGradGradGradGradGradGradGradGradGradGradGradGradGradGrad

                          Input orientation:                          
 ---------------------------------------------------------------------
 Center     Atomic      Atomic             Coordinates (Angstroms)
 Number     Number       Type             X           Y           Z
 ---------------------------------------------------------------------
      1          1           0       -0.191403    2.303380   -0.116822
      2          6           0        0.758834    1.985266   -0.536343
      3          6           0        1.067277    0.687891   -0.570995
      4          7           0        0.292124   -0.354399   -0.104632
      5          6           0       -1.126357   -0.204020    0.208065
      6          6           0       -1.703589   -1.585433   -0.098486
      7          6           0       -0.534023   -2.520306    0.211994
      8          6           0        0.661274   -1.754490   -0.336820
      9          1           0        1.593082   -1.999601    0.173731
     10          1           0       -1.570862    0.575394   -0.413785
     11          6           0       -1.394682    0.183856    1.671332
     12          1           0       -2.600500   -1.794987    0.479965
     13          1           0       -1.955914   -1.640668   -1.157832
     14          1           0       -0.639324   -3.498931   -0.250519
     15          1           0       -0.433970   -2.660464    1.290537
     16          1           0        0.789904   -1.945884   -1.407084
     17          8           0       -2.500675    0.374906    2.095139
     18          8           0       -0.340184    0.289695    2.483343
     19          1           0        0.441618    0.070197    1.941033
     20          1           0        2.021749    0.365172   -0.978094
     21          6           0        1.665036    3.064886   -1.045941
     22          1           0        1.184831    3.638452   -1.841776
     23          1           0        2.592021    2.650528   -1.443434
     24          1           0        1.923731    3.769660   -0.252475
 ---------------------------------------------------------------------
                    Distance matrix (angstroms):
                    1          2          3          4          5
     1  H    0.000000
     2  C    1.086345   0.000000
     3  C    2.097702   1.333986   0.000000
     4  N    2.701433   2.424505   1.380118   0.000000
     5  C    2.695690   2.983465   2.492884   1.460302   0.000000
     6  C    4.172519   4.359488   3.615103   2.344857   1.528225
     7  C    4.847006   4.746754   3.670118   2.339643   2.390828
     8  C    4.152321   3.746346   2.486947   1.466437   2.428267
     9  H    4.667382   4.132716   2.837905   2.115813   3.258932
    10  H    2.230926   2.725847   2.645212   2.104949   1.091682
    11  C    3.022872   3.571629   3.367985   2.507804   1.537399
    12  H    4.791296   5.158325   4.552119   3.283949   2.185910
    13  H    4.444403   4.572035   3.860861   2.795960   2.148906
    14  H    5.821111   5.666830   4.532623   3.282828   3.362134
    15  H    5.165196   5.132551   4.114673   2.791352   2.772231
    16  H    4.547965   4.026549   2.777185   2.115890   3.052024
    17  O    3.734236   4.488024   4.465032   3.629133   2.405193
    18  O    3.292099   3.633359   3.386516   2.740855   2.457378
    19  H    3.102030   3.147302   2.661444   2.094606   2.353065
    20  H    3.065369   2.101143   1.086689   2.066959   3.411968
    21  C    2.211226   1.498823   2.496596   3.802953   4.477739
    22  H    2.579128   2.149105   3.214733   4.444935   4.930317
    23  H    3.102880   2.150805   2.633996   4.013914   4.970134
    24  H    2.577240   2.149796   3.214384   4.437551   5.030433
                    6          7          8          9         10
     6  C    0.000000
     7  C    1.529140   0.000000
     8  C    2.382847   1.521975   0.000000
     9  H    3.333718   2.190246   1.090417   0.000000
    10  H    2.187740   3.324154   3.227494   4.121446   0.000000
    11  C    2.521520   3.191065   3.466528   3.992120   2.128862
    12  H    1.087643   2.206405   3.362729   4.209724   2.734529
    13  H    1.090383   2.161472   2.745303   3.807528   2.369135
    14  H    2.194823   1.087526   2.177631   2.722428   4.182648
    15  H    2.167258   1.092204   2.160703   2.406852   3.829885
    16  H    2.838989   2.168907   1.094825   1.773966   3.593981
    17  O    3.047994   3.974444   4.521800   5.107733   2.683179
    18  O    3.469988   3.618385   3.624215   3.783213   3.160624
    19  H    3.391557   3.263765   2.926832   2.955214   3.138546
    20  H    4.296128   4.034138   2.599057   2.665072   3.642731
    21  C    5.819860   6.132914   4.973608   5.209779   4.131370
    22  H    6.218601   6.715857   5.623418   6.001381   4.360656
    23  H    6.180980   6.264992   4.935237   5.023624   4.764027
    24  H    6.469790   6.769044   5.667199   5.794424   4.737249
                   11         12         13         14         15
    11  C    0.000000
    12  H    2.605604   0.000000
    13  H    3.412922   1.766829   0.000000
    14  H    4.222203   2.698749   2.451483   0.000000
    15  H    3.026241   2.469803   3.057909   1.766366   0.000000
    16  H    4.334149   3.883112   2.773949   2.406717   3.047236
    17  O    1.199722   2.706877   3.865375   4.896259   3.759272
    18  O    1.335113   3.669938   4.426628   4.681578   3.183555
    19  H    1.859476   3.855919   4.275299   4.325507   2.940461
    20  H    4.327162   5.306356   4.458419   4.747838   4.509071
    21  C    5.004575   6.643910   5.938521   7.001890   6.530282
    22  H    5.561478   7.017226   6.180709   7.536702   7.218604
    23  H    5.628502   7.101010   6.259364   7.048438   6.696108
    24  H    5.250798   7.209051   6.718851   7.707248   7.020408
                   16         17         18         19         20
    16  H    0.000000
    17  O    5.336622   0.000000
    18  O    4.627130   2.196743   0.000000
    19  H    3.923744   2.962040   0.976470   0.000000
    20  H    2.653763   5.467831   4.191178   3.332436   0.000000
    21  C    5.099421   5.869882   4.917157   4.403059   2.724023
    22  H    5.615135   6.303411   5.678599   5.253042   3.487225
    23  H    4.937201   6.605718   5.439755   4.768329   2.400958
    24  H    5.940213   6.050703   4.971937   4.549084   3.482336
                   21         22         23         24
    21  C    0.000000
    22  H    1.092213   0.000000
    23  H    1.090411   1.764895   0.000000
    24  H    1.092345   1.757574   1.765631   0.000000
 Stoichiometry    C8H13NO2
 Framework group  C1[X(C8H13NO2)]
 Deg. of freedom    66
 Full point group                 C1      NOp   1
 Largest Abelian subgroup         C1      NOp   1
 Largest concise Abelian subgroup C1      NOp   1
                         Standard orientation:                         
 ---------------------------------------------------------------------
 Center     Atomic      Atomic             Coordinates (Angstroms)
 Number     Number       Type             X           Y           Z
 ---------------------------------------------------------------------
      1          1           0        1.901575    1.134733   -0.720686
      2          6           0        2.347390    0.242126   -0.290978
      3          6           0        1.564304   -0.743429    0.150585
      4          7           0        0.184412   -0.765404    0.138716
      5          6           0       -0.612467    0.163999   -0.657323
      6          6           0       -1.860670   -0.647423   -1.002369
      7          6           0       -2.010400   -1.573029    0.205564
      8          6           0       -0.571303   -1.967476    0.505262
      9          1           0       -0.410516   -2.222008    1.553293
     10          1           0       -0.060477    0.469506   -1.548245
     11          6           0       -0.991710    1.449102    0.096520
     12          1           0       -2.726820   -0.014717   -1.182465
     13          1           0       -1.669036   -1.233571   -1.901614
     14          1           0       -2.636898   -2.438227    0.001493
     15          1           0       -2.440483   -1.030669    1.050421
     16          1           0       -0.263045   -2.818317   -0.110926
     17          8           0       -1.621626    2.333594   -0.413591
     18          8           0       -0.606434    1.551714    1.370710
     19          1           0       -0.138326    0.720529    1.579277
     20          1           0        2.004667   -1.633076    0.592741
     21          6           0        3.844237    0.201818   -0.225455
     22          1           0        4.283963    0.283322   -1.221911
     23          1           0        4.197283   -0.727734    0.222079
     24          1           0        4.235420    1.031465    0.367740
 ---------------------------------------------------------------------
 Rotational constants (GHZ):           1.4559989           0.8572438           0.6374667
 Standard basis: def2TZVPP (5D, 7F)
 There are   591 symmetry adapted cartesian basis functions of A   symmetry.
 There are   523 symmetry adapted basis functions of A   symmetry.
   523 basis functions,   782 primitive gaussians,   591 cartesian basis functions
    42 alpha electrons       42 beta electrons
       nuclear repulsion energy       646.4754864049 Hartrees.
 NAtoms=   24 NActive=   24 NUniq=   24 SFac= 1.00D+00 NAtFMM=   60 NAOKFM=F Big=F
 Integral buffers will be    131072 words long.
 Raffenetti 2 integral format.
 Two-electron integral symmetry is turned on.
 Nuclear repulsion after empirical dispersion term =      646.4745681431 Hartrees.
 ------------------------------------------------------------------------------
 Polarizable Continuum Model (PCM)
 =================================
 Model                : PCM.
 Atomic radii         : SMD-Coulomb.
 Polarization charges : Total charges.
 Charge compensation  : None.
 Solution method      : On-the-fly selection.
 Cavity type          : VdW (van der Waals Surface) (Alpha=1.000).
 Cavity algorithm     : GePol (No added spheres)
                        Default sphere list used, NSphG=   24.
                        Lebedev-Laikov grids with approx.  5.0 points / Ang**2.
                        Smoothing algorithm: York/Karplus (Gamma=1.0000).
                        Polarization charges: spherical gaussians, with
                                              point-specific exponents (IZeta= 3).
                        Self-potential: point-specific (ISelfS= 7).
                        Self-field    : sphere-specific E.n sum rule (ISelfD= 2).
 1st derivatives      : Analytical E(r).r(x)/FMM algorithm (CHGder, D1EAlg=3).
                        Cavity 1st derivative terms included.
 Solvent              : Chloroform, Eps=   4.711300 Eps(inf)=   2.090627
 ------------------------------------------------------------------------------
 ------------------------------------------------------------------------------
 Atomic radii for non-electrostatic terms: SMD-CDS.
 ------------------------------------------------------------------------------
 Nuclear repulsion after PCM non-electrostatic terms =      646.4699416536 Hartrees.
 One-electron integrals computed using PRISM.
   1 Symmetry operations used in ECPInt.
 ECPInt:  NShTT=   19900 NPrTT=   52931 LenC2=   18887 LenP2D=   39898.
 LDataN:  DoStor=T MaxTD1= 6 Len=  172
 NBasis=   523 RedAO= T EigKep=  7.93D-05  NBF=   523
 NBsUse=   523 1.00D-06 EigRej= -1.00D+00 NBFU=   523
 Initial guess from the checkpoint file:  "/gpfs/summit/scratch/jvalegre@colostate.edu/1580876/Gau-54762.chk"
 B after Tr=    -0.000000   -0.000000   -0.000000
         Rot=    0.999946    0.004235    0.009387    0.001140 Ang=   1.19 deg.
 ExpMin= 9.52D-02 ExpMax= 2.70D+04 ExpMxC= 9.22D+02 IAcc=2 IRadAn=         4 AccDes= 0.00D+00
 Harris functional with IExCor= 1009 and IRadAn=       4 diagonalized for initial guess.
 HarFok:  IExCor= 1009 AccDes= 0.00D+00 IRadAn=         4 IDoV= 1 UseB2=F ITyADJ=14
 ICtDFT=  3500011 ScaDFX=  1.000000  1.000000  1.000000  1.000000
 FoFCou: FMM=F IPFlag=           0 FMFlag=      100000 FMFlg1=           0
         NFxFlg=           0 DoJE=T BraDBF=F KetDBF=T FulRan=T
         wScrn=  0.000000 ICntrl=       500 IOpCl=  0 I1Cent=   200000004 NGrid=           0
         NMat0=    1 NMatS0=      1 NMatT0=    0 NMatD0=    1 NMtDS0=    0 NMtDT0=    0
 Petite list used in FoFCou.
 Requested convergence on RMS density matrix=1.00D-08 within 128 cycles.
 Requested convergence on MAX density matrix=1.00D-06.
 Requested convergence on             energy=1.00D-06.
 No special actions if energy rises.
 Inv3:  Mode=1 IEnd=     9612300.
 Iteration    1 A*A^-1 deviation from unit magnitude is 7.11D-15 for    209.
 Iteration    1 A*A^-1 deviation from orthogonality  is 3.25D-15 for   1782   1513.
 Iteration    1 A^-1*A deviation from unit magnitude is 6.22D-15 for    209.
 Iteration    1 A^-1*A deviation from orthogonality  is 2.27D-14 for   1003    939.
 Error on total polarization charges =  0.03684
 SCF Done:  E(RM062X) =  -517.875168521     A.U. after   12 cycles
            NFock= 12  Conv=0.56D-08     -V/T= 2.0049
 SMD-CDS (non-electrostatic) energy       (kcal/mol) =      -2.90
 (included in total energy above)
   1 Symmetry operations used in ECPInt.
 ECPInt:  NShTT=   19900 NPrTT=   52931 LenC2=   18887 LenP2D=   39898.
 LDataN:  DoStor=T MaxTD1= 7 Len=  274
 D1PCM: PCM CHGder 1st derivatives, ID1Alg=3 FixD1E=F DoIter=F DoCFld=F I1PDM=0.
 Calling FoFJK, ICntrl=      2127 FMM=F ISym2X=0 I1Cent= 0 IOpClX= 0 NMat=1 NMatS=1 NMatT=0.
 ***** Axes restored to original set *****
 -------------------------------------------------------------------
 Center     Atomic                   Forces (Hartrees/Bohr)
 Number     Number              X              Y              Z
 -------------------------------------------------------------------
      1        1           0.000597705   -0.000273990    0.000242573
[...]
 98,0.00885453,0.00045867,-0.00004116,0.00063338,0.00138323,-0.00022563
 ,0.00022494,0.00174060,0.00035674,0.02339834,-0.05711771,0.00063183,-0
 .01806385,-0.00062202,-0.00074401,-0.02926193,0.00023769,-0.00001338,-
 0.00011216,0.00007312,0.00026369,0.00012684,-0.00002336,-0.00008317,-0
 .00029192,-0.00026117,-0.00010691,-0.00018123,0.00121115,0.00043033,-0
 .00065197,-0.00290190,-0.00164811,0.00219496,0.05340231,-0.00016401,-0
 .00000035,-0.00030782,0.00028070,-0.00155274,0.00085683,0.00298465,0.0
 0603044,-0.00270050,0.00081316,-0.01816630,-0.03718110,-0.00368936,0.0
 0027182,-0.00077614,0.00080983,0.00004895,-0.00026612,0.00158561,-0.00
 041998,0.02090936,-0.00025932,-0.04689311,-0.00603985,-0.00007137,0.00
 188336,0.00756883,0.00010255,-0.00019209,0.00014000,-0.00014692,0.0000
 0833,-0.00026248,-0.00002118,-0.00003123,-0.00009340,-0.00008875,0.000
 41425,-0.00027508,0.00080116,0.00065079,-0.00019877,-0.00392535,-0.000
 98598,0.00194345,-0.00033627,0.05981769,0.00003612,0.00005663,0.000120
 39,-0.00016028,-0.00091866,0.00013226,0.00212417,0.00191687,0.00018663
 ,0.00166733,-0.01139744,-0.00601916,-0.00112676,-0.00018375,-0.0004766
 8,-0.00027644,-0.00050769,0.00036926,-0.00139795,0.00132877,-0.0128976
 2,-0.01692809,-0.00660705,-0.29664827,-0.00073866,0.00064153,-0.009602
 98,0.00029700,-0.00017900,-0.00020899,-0.00025454,0.00009734,0.0000436
 6,0.00017850,0.00010647,0.00018706,0.00044785,-0.00028659,0.00009190,-
 0.00007481,0.00017970,0.00071444,0.00217016,0.00101550,0.00028631,0.01
 373848,0.01575109,0.32366932,-0.00032720,0.00016084,0.00011020,0.00029
 106,-0.00126643,0.00027252,0.00217929,0.00533130,-0.00196918,-0.003884
 55,0.00076001,0.01027668,-0.01267881,0.01724085,0.00891295,-0.00252703
 ,-0.00466324,0.00236279,0.00054723,0.00089849,-0.00007641,-0.00035700,
 -0.00213273,0.00029321,-0.00016941,0.00037026,0.00006520,-0.00015686,-
 0.00100274,0.00030899,-0.61077742,0.21825913,0.17624141,0.00082402,0.0
 0119671,-0.00058430,0.00052014,0.00171775,0.00001040,-0.00025530,0.000
 33436,-0.00000827,-0.00005770,-0.00015325,0.00003112,-0.00010851,0.000
 76759,0.00051358,0.73618476,0.00008640,-0.00007704,-0.00035487,-0.0002
 4108,0.00090722,-0.00020997,-0.00096195,-0.00383531,0.00097512,0.00411
 907,-0.00022784,-0.00673856,0.02001540,0.00953674,-0.00882458,0.000986
 40,0.00227199,0.00256910,-0.00044364,-0.00006402,-0.00042117,0.0008479
 7,0.00147810,-0.00005482,0.00017644,-0.00024641,-0.00014338,0.00027989
 ,-0.00022629,-0.00251732,0.21207037,-0.16813784,-0.07835702,0.00034664
 ,0.00016397,-0.00033126,0.00008414,-0.00019990,-0.00021694,0.00020055,
 -0.00016477,-0.00001580,-0.00007545,0.00004867,0.00004246,-0.00002934,
 -0.00035277,-0.00027696,-0.26460452,0.14039230,0.00004747,-0.00019698,
 -0.00022123,-0.00025953,0.00101767,-0.00002503,-0.00059815,-0.00317600
 ,0.00071749,0.00504275,-0.00475455,-0.00579601,0.03044221,-0.01711337,
 0.00031103,0.00302157,0.00238313,-0.00115668,-0.00058740,-0.00048212,-
 0.00079159,0.00197542,0.00121866,-0.00018545,0.00034257,-0.00059343,-0
 .00036163,0.00118779,0.00036162,0.00308761,0.15658485,-0.07245322,-0.1
 5952065,-0.00021072,-0.00018475,-0.00018847,-0.00038679,-0.00109812,-0
 .00021600,0.00040765,-0.00041281,0.00009652,0.00011277,-0.00006350,0.0
 0015641,0.00002376,-0.00042164,-0.00030842,-0.15686322,0.08171194,0.13
 831270,-0.00039271,-0.00013424,-0.00023007,-0.00038162,-0.00067848,0.0
 0066896,0.00343731,0.00451828,-0.00191778,0.00019091,0.00080905,0.0183
 0724,-0.00665583,0.00516287,-0.00936221,0.00085807,0.00137926,0.000644
 13,-0.00048768,-0.00009398,-0.00066946,0.00132863,-0.00243669,0.000737
 04,0.00001010,0.00011900,-0.00032851,0.00152353,-0.00132698,-0.0007803
 5,-0.17473534,-0.00432282,-0.12486343,0.00024119,0.00041257,0.00007477
 ,-0.00005024,-0.00048869,0.00001539,0.00038734,-0.00007269,0.00007267,
 0.00012751,-0.00020815,0.00016694,-0.00025934,0.00113936,0.00043377,-0
 .11260143,0.02729111,-0.03671736,0.58527038,-0.00035351,-0.00008788,-0
 .00031606,-0.00018769,0.00149546,0.00057296,-0.00179166,-0.00371934,0.
 00153344,0.00046650,0.00149845,-0.00971743,-0.00332331,0.02178596,-0.0
 1542922,0.00018352,-0.00016622,0.00389590,0.00017347,-0.00110938,0.000
 17059,-0.00007333,0.00111800,0.00019890,0.00008392,-0.00023449,0.00009
 792,0.00065506,-0.00205548,-0.00406331,0.01280424,-0.06706724,-0.02028
 123,-0.00007326,-0.00061572,0.00028041,0.00006492,0.00079850,0.0000229
 8,-0.00012562,-0.00001013,-0.00015114,-0.00013346,0.00008838,-0.000134
 93,0.00009243,-0.00029751,-0.00018909,0.03059902,0.01081328,0.01583139
 ,-0.15725210,0.10991256,0.00006215,-0.00022273,-0.00005553,0.00026703,
 0.00099917,-0.00009716,-0.00140097,-0.00399784,0.00101228,0.00030968,-
 0.00078998,-0.01068119,-0.03091579,-0.00519281,-0.02583664,0.00076066,
 0.00247070,-0.00443737,-0.00056197,-0.00036521,-0.00109303,-0.00015317
 ,0.00181960,-0.00060441,0.00043248,-0.00042824,-0.00019103,0.00121928,
 -0.00238592,-0.00471368,-0.06498742,-0.03778669,-0.23901915,-0.0002863
 1,-0.00003299,0.00031012,-0.00047266,-0.00251274,0.00004825,0.00039165
 ,-0.00042776,0.00032343,0.00022304,-0.00058178,0.00015857,0.00003663,-
 0.00075575,-0.00024866,-0.02642486,0.01282980,0.03188902,-0.01984849,0
 .11312466,0.39982733,-0.00006648,0.00016712,0.00005379,0.00002463,0.00
 000551,-0.00028464,-0.00083967,-0.00139633,0.00216987,-0.00167169,-0.0
 0063814,-0.00308405,0.00135227,-0.00048558,-0.00071881,-0.00035031,-0.
 00064406,0.00026789,0.00020915,0.00007067,-0.00023623,-0.00015813,0.00
 071519,0.00035811,-0.00009782,0.00002586,0.00021885,-0.00087161,0.0004
 6160,0.00095799,-0.05098820,0.01574876,0.00706330,-0.00013532,-0.00000
 920,-0.00012716,0.00012805,0.00044994,0.00007802,-0.00017650,0.0000411
 5,0.00007769,0.00015663,-0.00011576,0.00006010,-0.00000564,-0.00018521
 ,-0.00005845,0.00392638,-0.00060587,-0.00425203,-0.29784142,0.11789807
 ,0.14076642,0.34762144,0.00027380,-0.00011940,0.00021371,0.00013466,-0
 .00172031,-0.00020282,0.00167421,0.00355125,-0.00029885,-0.00092610,-0
 .00345805,0.00695746,-0.00276775,-0.00108367,-0.00127415,-0.00017235,0
 .00020490,-0.00084861,-0.00015637,0.00021145,-0.00065154,-0.00012333,-
 0.00097508,-0.00194395,0.00002098,0.00017678,-0.00016694,0.00022604,-0
 .00007696,0.00021961,0.00987245,-0.00430784,0.00664815,0.00003371,0.00
 009571,0.00000916,0.00000645,-0.00036762,0.00002125,0.00015989,-0.0000
 0402,0.00023368,-0.00002224,-0.00044512,0.00025705,-0.00002637,-0.0000
 1315,0.00015697,-0.00296763,0.00717542,-0.00227889,0.12660330,-0.07263
 779,-0.07648451,-0.13161398,0.07427949,-0.00010354,0.00003031,-0.00007
 923,0.00024958,-0.00252082,0.00039214,0.00561256,0.00962396,-0.0068302
 4,-0.00188323,-0.00080964,0.01267963,-0.00838344,0.00037540,-0.0065801
 1,-0.00007266,-0.00011631,-0.00022488,-0.00023749,-0.00007731,0.000389
 84,0.00111490,-0.00424053,-0.00021244,-0.00027189,0.00055662,-0.000022
 98,0.00077391,-0.00059612,0.00017585,-0.01319090,0.01234866,0.02577268
 ,0.00028075,0.00023991,0.00006843,0.00000536,0.00001005,0.00001300,0.0
 0021443,0.00023950,-0.00007170,0.00000949,0.00006119,-0.00010048,-0.00
 018632,0.00160468,0.00078391,-0.01352043,0.00031432,-0.00562153,0.1735
 5267,-0.08546779,-0.14607637,-0.14342471,0.06949193,0.12494728,0.00177
 876,0.00110388,0.00277438,-0.00572248,0.00191003,0.00461205,-0.2823683
 3,0.07148964,0.08134824,-0.01851584,0.00261311,0.00652688,0.00176266,-
 0.00241562,0.00189594,-0.00039775,0.00034907,0.00030022,0.00001905,-0.
 00011246,-0.00012804,0.00005905,0.00188904,0.00004934,0.00016039,-0.00
 052095,-0.00003918,0.00020081,0.00017636,-0.00005741,-0.00031220,-0.00
 043352,-0.00078999,-0.00004382,-0.00024603,-0.00004481,-0.00004357,-0.
 00008910,-0.00002414,0.00001565,-0.00006151,0.00001759,0.00004674,0.00
 002301,-0.00002207,-0.00010903,-0.00043875,-0.00034501,-0.00036180,0.0
 0034142,0.00046809,0.00002698,0.00010084,0.00034816,-0.00012981,-0.000
 06202,-0.00029277,0.30294625,0.00142883,-0.00469044,0.00114476,0.02716
 667,-0.00557004,-0.00847499,0.07599646,-0.07889464,-0.02206817,-0.0270
 5631,0.00543451,0.00871579,-0.00035625,-0.00336325,0.00221812,-0.00106
 449,0.00005817,0.00035349,0.00001466,0.00026578,-0.00006750,-0.0020434
 7,0.00076523,0.00048466,0.00017749,0.00003207,0.00022521,0.00013095,0.
 00008092,-0.00016240,-0.00027490,-0.00052670,-0.00066303,-0.00019146,-
 0.00030830,-0.00011511,-0.00005980,-0.00007027,-0.00002760,0.00005681,
 -0.00002374,-0.00000672,0.00001722,0.00002235,-0.00001340,0.00001681,-
 0.00000363,-0.00020058,-0.00027812,0.00033687,0.00037111,0.00005770,0.
 00007000,0.00021491,-0.00001783,-0.00002036,-0.00006404,-0.07425934,0.
 08533927,0.00267502,0.00126231,0.00838794,0.00191211,0.00053579,0.0071
 6104,0.07934029,-0.02103249,-0.06848841,0.01387918,-0.00173133,-0.0025
 8715,-0.00131094,0.00200558,0.00202309,0.00056557,-0.00027676,-0.00005
 599,0.00001738,-0.00000763,-0.00005817,-0.00017072,-0.00037069,0.00017
 576,-0.00026296,0.00027109,0.00000688,0.00037179,-0.00004585,0.0000226
 8,-0.00037569,-0.00000007,0.00047617,0.00003566,0.00015348,0.00006470,
 0.00005123,0.00010546,0.00001413,-0.00001349,0.00001370,0.00000154,-0.
 00000886,0.00001069,-0.00003214,-0.00004781,0.00016949,-0.00008387,0.0
 0003269,-0.00006156,-0.00016288,0.00001288,-0.00012503,-0.00032412,0.0
 0012640,0.00005774,0.00034405,-0.09390233,0.01925672,0.05877320,-0.013
 02865,-0.02092301,0.00820629,-0.14285463,-0.06895807,0.03822296,0.0060
 7168,-0.00015682,-0.00238962,0.00138549,0.00658045,0.00207368,-0.00118
 837,-0.00015415,0.00025565,0.00014781,0.00000888,0.00003420,-0.0000888
 1,0.00017256,0.00009189,0.00128761,-0.00030116,0.00017138,-0.00009901,
 -0.00004169,-0.00002663,0.00040642,-0.00011235,0.00032300,-0.00046549,
 0.00018611,-0.00025282,0.00005779,-0.00000083,0.00000243,0.00000323,0.
 00000802,0.00000970,0.00012396,0.00008181,-0.00006945,0.00001557,0.000
 01459,-0.00002448,-0.00001239,0.00026754,0.00014262,0.00027882,-0.0001
 8054,-0.00009890,0.00035161,-0.00004550,-0.00017490,-0.00015237,0.0000
 6338,0.00054922,0.00024215,0.00151410,-0.00305010,0.54931684,0.0057365
 9,0.00841631,-0.00309082,-0.06257596,-0.16172564,0.03557533,-0.0194624
 8,-0.02639331,0.01013398,0.00108084,-0.00311594,0.00142074,0.00154013,
 -0.00024211,-0.00005468,-0.00023128,0.00001592,-0.00002068,0.00012544,
 -0.00022044,-0.00012971,-0.00073013,0.00064319,0.00094540,0.00005270,-
 0.00009216,-0.00001301,-0.00028340,0.00020174,-0.00035794,0.00004913,-
 0.00036752,0.00035019,-0.00004156,-0.00002354,-0.00000650,-0.00001204,
 0.00000578,-0.00001280,-0.00013489,-0.00004022,0.00002755,-0.00000186,
 -0.00000856,-0.00000367,0.00004308,-0.00000530,-0.00021948,-0.00016455
 ,0.00015707,0.00003167,-0.00022614,0.00023583,0.00007661,0.00010954,-0
 .00029058,-0.00031715,-0.00171049,0.00110175,-0.00013387,-0.03809203,0
 .53321852,0.00509047,0.00743618,-0.00088097,0.03762188,0.03738297,-0.0
 8297148,-0.00014048,0.00337802,-0.00149841,0.00107341,-0.00085614,0.01
 133453,0.00176384,-0.00053347,0.00020195,-0.00004274,0.00011254,0.0000
 8379,0.00009415,0.00009186,-0.00015518,0.00114819,0.00083460,0.0015749
 4,-0.00009943,-0.00032569,-0.00007012,0.00022163,0.00057393,-0.0003278
 8,-0.00020796,-0.00042691,-0.00005851,0.00000912,-0.00004006,0.0000029
 8,-0.00001364,0.00000690,-0.00001535,-0.00005175,-0.00001809,-0.000123
 46,0.00003510,0.00005292,-0.00004682,0.00007814,0.00026169,-0.00029357
 ,-0.00020772,0.00018873,0.00013247,-0.00011022,0.00027290,0.00003828,-
 0.00002315,-0.00025766,-0.00011286,-0.00248639,-0.00153642,-0.00588252
 ,0.00089851,0.01420376,0.53893846,0.00036953,0.00091792,-0.00063550,0.
 01054830,-0.01223094,0.01695447,-0.00061776,0.00076821,0.00077217,-0.0
 0084863,-0.00246600,0.00004319,0.00051733,-0.00003947,-0.00008584,0.00
 002523,0.00001856,0.00001501,0.00002145,-0.00007291,-0.00002585,-0.000
 57911,0.00039545,-0.00019860,0.00004407,0.00000833,0.00000722,-0.00014
 268,-0.00000902,-0.00003294,0.00023545,-0.00003367,-0.00006777,-0.0000
 2682,-0.00000896,0.00000184,-0.00000294,-0.00001181,-0.00000947,-0.000
 03230,-0.00003516,0.00002658,-0.00001105,-0.00001173,0.00001000,0.0000
 3282,-0.00012691,-0.00011831,-0.00017478,0.00010118,0.00009217,-0.0001
 4854,0.00005820,0.00013592,0.00003239,-0.00007458,-0.00030781,0.000219
 67,-0.00005933,0.00017208,-0.09326490,0.05513352,-0.08289996,0.0972117
 2,-0.00030384,0.00065234,-0.00065477,0.00895197,-0.01689192,0.01757559
 ,-0.00195135,0.00115838,0.00222527,-0.00104186,-0.00252775,-0.00077876
 ,0.00046097,-0.00018618,-0.00016443,-0.00001395,0.00001465,0.00007224,
 -0.00000097,-0.00010936,-0.00006951,-0.00059066,0.00037931,-0.00005985
 ,0.00004742,0.00001244,-0.00000439,-0.00010630,0.00002972,-0.00001112,
 0.00032530,-0.00000067,-0.00012215,-0.00003807,-0.00002989,-0.00000604
 ,-0.00001167,-0.00002223,-0.00001587,-0.00003773,-0.00005072,0.0000361
 1,-0.00000400,-0.00000492,0.00001072,0.00001657,-0.00015739,-0.0001033
 7,-0.00019802,0.00009409,0.00010129,-0.00018549,0.00001333,0.00013627,
 0.00005264,-0.00001027,-0.00031164,0.00025766,0.00011737,0.00107909,0.
 05618224,-0.10768252,0.09999709,-0.05681569,0.12046445,0.00029256,-0.0
 0000655,0.00025228,-0.00225345,0.00584283,-0.00458944,0.00072595,-0.00
 167461,-0.00008373,0.00055771,0.00155571,-0.00067116,-0.00046305,0.000
 09455,0.00008346,-0.00002006,-0.00002310,-0.00003183,-0.00000929,0.000
 04578,0.00003216,0.00033101,-0.00041401,0.00003406,-0.00002728,0.00000
 480,0.00000333,0.00006773,-0.00003877,0.00006612,-0.00028443,0.0000425
 1,0.00008035,0.00002160,0.00001434,-0.00000262,0.00000246,0.00000929,0
 .00001049,0.00002175,0.00002992,-0.00001150,0.00000310,0.00000468,-0.0
 0000515,-0.00002155,0.00007210,0.00010555,0.00019273,-0.00010039,-0.00
 008762,0.00018050,-0.00003708,-0.00009414,-0.00004287,0.00003818,0.000
 22522,-0.00007822,-0.00000516,-0.00010286,-0.08387429,0.10034828,-0.20
 075284,0.09151194,-0.11168713,0.21580646,-0.00079147,-0.00313937,0.001
 33115,-0.01870553,0.00702591,0.00608382,0.00137268,0.00278495,-0.00118
 619,-0.00011069,-0.00092501,0.00039815,0.00005384,0.00002443,-0.000154
 21,0.00011092,0.00002968,0.00004216,-0.00002088,-0.00005692,-0.0000302
 2,-0.00014164,0.00023651,0.00005417,0.00002625,-0.00002619,0.00000069,
 0.00002504,0.00000854,0.00009054,0.00008499,0.00005587,-0.00021764,-0.
 00000715,-0.00001203,0.00000232,-0.00000499,-0.00000954,-0.00000614,0.
 00000330,-0.00002463,0.00000396,0.00000421,-0.00000136,0.00000025,0.00
 000711,-0.00004250,-0.00008242,-0.00006940,0.00000961,0.00007468,-0.00
 001833,0.00000529,0.00009632,-0.00003038,0.00000404,-0.00012237,0.0004
 7716,-0.00082928,0.00001080,-0.25345246,0.08882167,0.07081668,-0.01056
 757,0.00416341,0.00385214,0.27557244,-0.00258240,-0.00315722,0.0015900
 3,-0.02238670,0.00940318,0.00761806,-0.00161177,0.00130844,0.00038835,
 -0.00005938,0.00010822,0.00009314,-0.00021301,-0.00015576,-0.00009022,
 0.00004395,0.00001634,0.00004840,-0.00002117,-0.00000579,0.00000869,0.
 00002859,0.00005892,-0.00007022,0.00000857,-0.00001232,0.00000359,0.00
 006631,-0.00006264,0.00008964,0.00008169,0.00005266,-0.00013163,0.0000
 0043,-0.00001865,-0.00000063,0.00000006,-0.00000410,-0.00000249,0.0000
 1813,-0.00000241,-0.00000137,0.00000269,-0.00000046,-0.00000213,0.0000
 0076,-0.00001112,-0.00001854,-0.00002002,0.00000682,0.00001717,0.00000
 387,0.00000027,0.00002977,-0.00001886,0.00001032,-0.00001562,0.0005406
 4,-0.00002208,-0.00019740,0.09164565,-0.08632730,-0.03135921,0.0122044
 4,-0.00631990,-0.00571870,-0.09582440,0.09296774,0.00118695,0.00174766
 ,0.00091575,0.00918510,-0.00390129,-0.00425359,-0.00038690,-0.00127939
 ,0.00027916,-0.00005168,0.00039562,-0.00046227,0.00001412,-0.00006680,
 0.00012844,-0.00006759,-0.00001526,-0.00000560,0.00000663,0.00002183,0
 .00000435,0.00005592,-0.00012905,0.00002385,-0.00001543,0.00001698,0.0
 0000066,0.00000668,0.00005796,-0.00006515,-0.00002480,-0.00006317,0.00
 011653,0.00000177,0.00000114,-0.00000341,-0.00000176,0.00000294,0.0000
 0108,-0.00000269,0.00000911,-0.00000165,0.00000062,0.00000312,-0.00000
 397,-0.00001062,0.00001822,0.00002510,0.00001541,0.00001018,-0.0000369
 5,-0.00002003,0.00000129,-0.00007956,0.00004634,0.00001469,0.00006588,
 -0.00018942,0.00033848,0.00010592,0.07053365,-0.03021652,-0.07078118,-
 0.02176924,0.00889746,0.00885793,-0.07952959,0.03204986,0.07170831,0.0
 0038132,0.00073733,0.00024287,-0.00225115,-0.01502722,-0.01382425,-0.0
 0098805,0.00165567,-0.00094868,-0.00099801,-0.00243427,0.00246121,0.00
 081846,-0.00027785,-0.00034055,-0.00002350,0.00004959,0.00008970,0.000
 03219,-0.00004506,-0.00006780,-0.00018986,0.00063544,0.00034728,0.0000
 3762,-0.00007465,-0.00001439,-0.00009078,0.00013079,-0.00008935,0.0002
 5240,-0.00020933,-0.00018434,-0.00003392,-0.00004164,-0.00000026,-0.00
 000482,-0.00000453,-0.00001345,-0.00003963,-0.00004039,-0.00000853,0.0
 0000802,0.00000167,-0.00000338,0.00004079,-0.00005624,-0.00018787,-0.0
 0024450,0.00018580,0.00015034,-0.00018108,0.00017398,0.00017710,0.0000
 6442,-0.00016020,-0.00036530,0.00004931,-0.00008712,-0.00006019,-0.055
 08189,-0.02902584,-0.03256767,-0.00284087,-0.00915857,-0.01068669,0.00
 618256,0.01809194,0.02101656,0.05510099,0.00008195,0.00070301,0.000620
 04,-0.00392880,-0.02041527,-0.01455047,-0.00312115,0.00118754,-0.00079
 391,-0.00049620,-0.00223199,0.00291246,0.00089206,-0.00022706,-0.00014
 204,0.00000184,0.00004538,0.00007694,0.00002758,-0.00007553,-0.0000988
 3,-0.00014726,0.00059670,0.00037122,0.00001550,-0.00010016,-0.00002647
 ,-0.00001435,0.00015157,-0.00007880,0.00010253,-0.00014834,-0.00031307
 ,-0.00003235,-0.00003681,0.00000015,-0.00000553,-0.00000773,-0.0000126
 4,-0.00004327,-0.00004829,-0.00000377,0.00000611,0.00000583,0.00000520
 ,0.00004319,-0.00004299,-0.00016268,-0.00018503,0.00014962,0.00018371,
 -0.00006990,0.00017118,0.00026345,-0.00001522,-0.00017509,-0.00035955,
 -0.00044492,-0.00013082,-0.00093847,-0.02775919,-0.15746094,-0.1294404
 6,0.00239036,0.01105765,0.01160254,-0.00227865,-0.00783315,-0.00791507
 ,0.03498071,0.17486568,-0.00047599,-0.00076072,0.00014527,0.00168686,0
 .00955964,0.01162912,0.00068326,0.00069524,0.00061720,0.00002767,0.000
 74865,-0.00144066,-0.00025927,0.00008500,0.00008603,0.00000974,-0.0000
 1398,-0.00001803,-0.00001071,0.00001117,0.00002416,-0.00000620,-0.0002
 0021,-0.00024062,-0.00000693,0.00003163,0.00001272,0.00002366,-0.00005
 848,0.00005963,0.00005234,0.00004536,0.00005291,0.00000506,0.00001007,
 0.00000249,0.00000415,0.00000071,0.00000319,0.00001592,0.00000882,0.00
 000928,-0.00000520,-0.00000108,0.00000809,-0.00000934,-0.00001710,0.00
 007241,0.00001454,-0.00001706,-0.00002312,-0.00001906,-0.00009104,-0.0
 0005522,0.00000734,0.00008835,0.00007492,0.00005889,0.00008185,0.00022
 101,-0.03155398,-0.12853667,-0.18833625,-0.00359131,-0.01614209,-0.019
 12453,-0.00152907,-0.00432858,-0.00653964,0.03487764,0.13880052,0.2027
 5964\\0.00000411,-0.00000084,-0.00000962,0.00000295,0.00000291,-0.0000
 0411,0.00000043,-0.00000702,0.00000385,0.00000185,0.00000639,-0.000001
 02,0.00000389,0.00000441,-0.00000615,-0.00000120,-0.00000217,0.0000037
 1,-0.00000792,-0.00000532,0.00000129,-0.00000132,-0.00000025,0.0000141
 8,-0.00000076,-0.00000319,0.00001500,0.00000113,-0.00000144,-0.0000096
 6,-0.00000183,-0.00000181,-0.00001124,-0.00000571,0.00000482,-0.000005
 82,0.00000617,-0.00000165,-0.00000522,-0.00000114,-0.00000368,0.000010
 55,-0.00000704,0.00000702,0.00000908,0.00000484,-0.00000616,0.00000920
 ,-0.00000914,0.00001266,-0.00001098,-0.00001332,0.00001301,0.00000104,
 -0.00001257,0.00000671,-0.00000010,0.00000502,-0.00000255,0.00000813,0
 .00000719,-0.00000707,-0.00000165,0.00001129,-0.00000700,-0.00000794,0
 .00000867,-0.00000649,0.00000232,0.00000443,-0.00000130,-0.00000483\\\
 @


 HE THAT FOLLOWS NATURE IS NEVER LOST.

                             -- BACON
 Job cpu time:       0 days 10 hours 25 minutes 33.2 seconds.
 Elapsed time:       0 days  0 hours 26 minutes  7.3 seconds.
 File lengths (MBytes):  RWF=   1160 Int=      0 D2E=      0 Chk=     40 Scr=     16
 Normal termination of Gaussian 16 at Mon Dec 31 13:34:17 2018.
