 Entering Gaussian System, Link 0=/projects/jvalegre@colostate.edu/g16/g16
 Initial command:
 /projects/jvalegre@colostate.edu/g16/l1.exe "/gpfs/summit/scratch/jvalegre@colostate.edu/1580876/Gau-76679.inp" -scrdir="/gpfs/summit/scratch/jvalegre@colostate.edu/1580876/"
 Entering Link 1 = /projects/jvalegre@colostate.edu/g16/l1.exe PID=     76680.
  
 Copyright (c) 1988,1990,1992,1993,1995,1998,2003,2009,2016,
            Gaussian, Inc.  All Rights Reserved.
  
 This is part of the Gaussian(R) 16 program.  It is based on
 the Gaussian(R) 09 system (copyright 2009, Gaussian, Inc.),
 the Gaussian(R) 03 system (copyright 2003, Gaussian, Inc.),
 the Gaussian(R) 98 system (copyright 1998, Gaussian, Inc.),
 the Gaussian(R) 94 system (copyright 1995, Gaussian, Inc.),
 the Gaussian 92(TM) system (copyright 1992, Gaussian, Inc.),
 the Gaussian 90(TM) system (copyright 1990, Gaussian, Inc.),
 the Gaussian 88(TM) system (copyright 1988, Gaussian, Inc.),
 the Gaussian 86(TM) system (copyright 1986, Carnegie Mellon
 University), and the Gaussian 82(TM) system (copyright 1983,
 Carnegie Mellon University). Gaussian is a federally registered
 trademark of Gaussian, Inc.
  
 This software contains proprietary and confidential information,
 including trade secrets, belonging to Gaussian, Inc.
  
 This software is provided under written license and may be
 used, copied, transmitted, or stored only in accord with that
 written license.
  
 The following legend is applicable only to US Government
 contracts under FAR:
  
                    RESTRICTED RIGHTS LEGEND
  
 Use, reproduction and disclosure by the US Government is
 subject to restrictions as set forth in subparagraphs (a)
 and (c) of the Commercial Computer Software - Restricted
 Rights clause in FAR 52.227-19.
  
 Gaussian, Inc.
 340 Quinnipiac St., Bldg. 40, Wallingford CT 06492
  
  
 ---------------------------------------------------------------
 Warning -- This program may not be used in any manner that
 competes with the business of Gaussian, Inc. or will provide
 assistance to any competitor of Gaussian, Inc.  The licensee
 of this program is prohibited from giving any competitor of
 Gaussian, Inc. access to this program.  By using this program,
 the user acknowledges that Gaussian, Inc. is engaged in the
 business of creating and licensing software in the field of
 computational chemistry and represents and warrants to the
 licensee that it is not a competitor of Gaussian, Inc. and that
 it will not use this program in any manner prohibited above.
 ---------------------------------------------------------------
  

 Cite this work as:
 Gaussian 16, Revision A.03,
 M. J. Frisch, G. W. Trucks, H. B. Schlegel, G. E. Scuseria, 
 M. A. Robb, J. R. Cheeseman, G. Scalmani, V. Barone, 
 G. A. Petersson, H. Nakatsuji, X. Li, M. Caricato, A. V. Marenich, 
 J. Bloino, B. G. Janesko, R. Gomperts, B. Mennucci, H. P. Hratchian, 
 J. V. Ortiz, A. F. Izmaylov, J. L. Sonnenberg, D. Williams-Young, 
 F. Ding, F. Lipparini, F. Egidi, J. Goings, B. Peng, A. Petrone, 
 T. Henderson, D. Ranasinghe, V. G. Zakrzewski, J. Gao, N. Rega, 
 G. Zheng, W. Liang, M. Hada, M. Ehara, K. Toyota, R. Fukuda, 
 J. Hasegawa, M. Ishida, T. Nakajima, Y. Honda, O. Kitao, H. Nakai, 
 T. Vreven, K. Throssell, J. A. Montgomery, Jr., J. E. Peralta, 
 F. Ogliaro, M. J. Bearpark, J. J. Heyd, E. N. Brothers, K. N. Kudin, 
 V. N. Staroverov, T. A. Keith, R. Kobayashi, J. Normand, 
 K. Raghavachari, A. P. Rendell, J. C. Burant, S. S. Iyengar, 
 J. Tomasi, M. Cossi, J. M. Millam, M. Klene, C. Adamo, R. Cammi, 
 J. W. Ochterski, R. L. Martin, K. Morokuma, O. Farkas, 
 J. B. Foresman, and D. J. Fox, Gaussian, Inc., Wallingford CT, 2016.
 
 ******************************************
 Gaussian 16:  ES64L-G16RevA.03 25-Dec-2016
                31-Dec-2018 
 ******************************************
 %mem=96GB
 %nprocshared=24
 Will use up to   24 processors via shared memory.
 ----------------------------------------------------------------------
 #opt=(maxcycles=200) freq=noraman def2tzvpp empiricaldispersion=gd3 m0
 62x scrf=(solvent=Chloroform,smd)
 ----------------------------------------------------------------------
 1/6=200,18=20,19=15,26=3,38=1/1,3;
 2/9=110,12=2,17=6,18=5,40=1/2;
 3/5=44,7=202,11=2,25=1,30=1,70=32201,71=1,72=7,74=-55,124=31/1,2,3;
 4//1;
 5/5=2,38=5,53=7/2;
 6/7=2,8=2,9=2,10=2,28=1/1;
 7//1,2,3,16;
 1/6=200,18=20,19=15,26=3/3(2);
 2/9=110/2;
 99//99;
 2/9=110/2;
 3/5=44,7=202,11=2,25=1,30=1,70=32205,71=1,72=7,74=-55,124=31/1,2,3;
 4/5=5,16=3,69=1/1;
 5/5=2,38=5,53=7/2;
 7//1,2,3,16;
 1/6=200,18=20,19=15,26=3/3(-5);
 2/9=110/2;
 6/7=2,8=2,9=2,10=2,19=2,28=1/1;
 99/9=1/99;
 -------------------
 aminox_subs_conf713
 -------------------
 Symbolic Z-matrix:
 Charge =  0 Multiplicity = 1
 O                     3.3052   -0.7369   -0.0486 
 N                     2.4704    0.4309   -0.0242 
 H                    -1.742     2.0645    0.0464 
 H                    -1.3033   -2.2126   -0.0118 
 H                    -2.7826   -0.202     0.0308 
 C                     1.1313    0.1954   -0.0111 
 C                    -1.7064   -0.0908    0.0193 
 C                     0.5071   -1.065    -0.0192 
 C                     0.2682    1.3056    0.013 
 C                    -1.127     1.1738    0.028 
 C                    -0.886    -1.2138   -0.0044 
 H                     1.1484   -1.9449   -0.0378 
 H                     0.7167    2.2959    0.0199 
 

 GradGradGradGradGradGradGradGradGradGradGradGradGradGradGradGradGradGrad
 Berny optimization.
 Initialization pass.
                           ----------------------------
                           !    Initial Parameters    !
                           ! (Angstroms and Degrees)  !
 --------------------------                            --------------------------
 ! Name  Definition              Value          Derivative Info.                !
 --------------------------------------------------------------------------------
 ! R1    R(1,2)                  1.4357         estimate D2E/DX2                !
 ! R2    R(2,6)                  1.3597         estimate D2E/DX2                !
 ! R3    R(3,10)                 1.0825         estimate D2E/DX2                !
 ! R4    R(4,11)                 1.0825         estimate D2E/DX2                !
 ! R5    R(5,7)                  1.082          estimate D2E/DX2                !
 ! R6    R(6,8)                  1.4065         estimate D2E/DX2                !
 ! R7    R(6,9)                  1.4064         estimate D2E/DX2                !
 ! R8    R(7,10)                 1.391          estimate D2E/DX2                !
 ! R9    R(7,11)                 1.391          estimate D2E/DX2                !
 ! R10   R(8,11)                 1.4011         estimate D2E/DX2                !
 ! R11   R(8,12)                 1.089          estimate D2E/DX2                !
 ! R12   R(9,10)                 1.4015         estimate D2E/DX2                !
 ! R13   R(9,13)                 1.0871         estimate D2E/DX2                !
 ! A1    A(1,2,6)              115.5899         estimate D2E/DX2                !
 ! A2    A(2,6,8)              126.3141         estimate D2E/DX2                !
 ! A3    A(2,6,9)              117.893          estimate D2E/DX2                !
 ! A4    A(8,6,9)              115.7928         estimate D2E/DX2                !
 ! A5    A(5,7,10)             120.508          estimate D2E/DX2                !
 ! A6    A(5,7,11)             120.2558         estimate D2E/DX2                !
 ! A7    A(10,7,11)            119.2362         estimate D2E/DX2                !
 ! A8    A(6,8,11)             122.4364         estimate D2E/DX2                !
 ! A9    A(6,8,12)             117.5693         estimate D2E/DX2                !
 ! A10   A(11,8,12)            119.9943         estimate D2E/DX2                !
 ! A11   A(6,9,10)             122.471          estimate D2E/DX2                !
 ! A12   A(6,9,13)             117.7741         estimate D2E/DX2                !
 ! A13   A(10,9,13)            119.755          estimate D2E/DX2                !
 ! A14   A(3,10,7)             120.7619         estimate D2E/DX2                !
 ! A15   A(3,10,9)             119.2328         estimate D2E/DX2                !
 ! A16   A(7,10,9)             120.0053         estimate D2E/DX2                !
 ! A17   A(4,11,7)             121.177          estimate D2E/DX2                !
 ! A18   A(4,11,8)             118.7648         estimate D2E/DX2                !
 ! A19   A(7,11,8)             120.0582         estimate D2E/DX2                !
 ! D1    D(1,2,6,8)              0.0001         estimate D2E/DX2                !
 ! D2    D(1,2,6,9)            179.9966         estimate D2E/DX2                !
 ! D3    D(2,6,8,11)          -179.9992         estimate D2E/DX2                !
 ! D4    D(2,6,8,12)            -0.0042         estimate D2E/DX2                !
 ! D5    D(9,6,8,11)             0.0042         estimate D2E/DX2                !
 ! D6    D(9,6,8,12)           179.9992         estimate D2E/DX2                !
 ! D7    D(2,6,9,10)           179.9972         estimate D2E/DX2                !
 ! D8    D(2,6,9,13)             0.0012         estimate D2E/DX2                !
 ! D9    D(8,6,9,10)            -0.0059         estimate D2E/DX2                !
 ! D10   D(8,6,9,13)           179.9981         estimate D2E/DX2                !
 ! D11   D(5,7,10,3)             0.002          estimate D2E/DX2                !
 ! D12   D(5,7,10,9)           179.9971         estimate D2E/DX2                !
 ! D13   D(11,7,10,3)         -179.9982         estimate D2E/DX2                !
 ! D14   D(11,7,10,9)           -0.0031         estimate D2E/DX2                !
 ! D15   D(5,7,11,4)             0.0026         estimate D2E/DX2                !
 ! D16   D(5,7,11,8)          -179.9988         estimate D2E/DX2                !
 ! D17   D(10,7,11,4)         -179.9971         estimate D2E/DX2                !
 ! D18   D(10,7,11,8)            0.0015         estimate D2E/DX2                !
 ! D19   D(6,8,11,4)           179.9965         estimate D2E/DX2                !
 ! D20   D(6,8,11,7)            -0.0021         estimate D2E/DX2                !
 ! D21   D(12,8,11,4)            0.0016         estimate D2E/DX2                !
 ! D22   D(12,8,11,7)         -179.9971         estimate D2E/DX2                !
 ! D23   D(6,9,10,3)          -179.9993         estimate D2E/DX2                !
 ! D24   D(6,9,10,7)             0.0056         estimate D2E/DX2                !
 ! D25   D(13,9,10,3)           -0.0034         estimate D2E/DX2                !
 ! D26   D(13,9,10,7)         -179.9985         estimate D2E/DX2                !
 --------------------------------------------------------------------------------
 Trust Radius=3.00D-01 FncErr=1.00D-07 GrdErr=1.00D-06 EigMax=2.50D+02 EigMin=1.00D-04
 Number of steps in this run=    100 maximum allowed number of steps=    100.
 GradGradGradGradGradGradGradGradGradGradGradGradGradGradGradGradGradGrad

                          Input orientation:                          
 ---------------------------------------------------------------------
 Center     Atomic      Atomic             Coordinates (Angstroms)
 Number     Number       Type             X           Y           Z
 ---------------------------------------------------------------------
      1          8           0        3.305200   -0.736900   -0.048600
      2          7           0        2.470400    0.430900   -0.024200
      3          1           0       -1.742000    2.064500    0.046400
      4          1           0       -1.303300   -2.212600   -0.011800
      5          1           0       -2.782600   -0.202000    0.030800
      6          6           0        1.131300    0.195400   -0.011100
      7          6           0       -1.706400   -0.090800    0.019300
      8          6           0        0.507100   -1.065000   -0.019200
      9          6           0        0.268200    1.305600    0.013000
     10          6           0       -1.127000    1.173800    0.028000
     11          6           0       -0.886000   -1.213800   -0.004400
     12          1           0        1.148400   -1.944900   -0.037800
     13          1           0        0.716700    2.295900    0.019900
 ---------------------------------------------------------------------
                    Distance matrix (angstroms):
                    1          2          3          4          5
     1  O    0.000000
     2  N    1.435703   0.000000
     3  H    5.773309   4.518622   0.000000
     4  H    4.839144   4.607500   4.299934   0.000000
     5  H    6.111770   5.291275   2.494016   2.496529   0.000000
     6  C    2.365678   1.359713   3.428220   3.424287   3.934247
     7  C    5.053532   4.209480   2.155764   2.159975   1.081991
     8  C    2.817424   2.468256   3.854416   2.143499   3.401381
     9  C    3.660460   2.369846   2.148941   3.853305   3.403021
    10  C    4.827115   3.673678   1.082548   3.391220   2.152637
    11  C    4.218477   3.737760   3.388594   1.082495   2.149900
    12  H    2.472077   2.718877   4.943358   2.466409   4.300601
    13  H    3.987844   2.560397   2.469707   4.940443   4.299386
                    6          7          8          9         10
     6  C    0.000000
     7  C    2.852258   0.000000
     8  C    1.406520   2.418704   0.000000
     9  C    1.406438   2.418474   2.382825   0.000000
    10  C    2.461446   1.391040   2.772136   1.401492   0.000000
    11  C    2.460770   1.390952   1.401102   2.771255   2.399951
    12  H    2.140535   3.404531   1.088961   3.367949   3.861096
    13  H    2.141251   3.401140   3.367656   1.087149   2.158334
                   11         12         13
    11  C    0.000000
    12  H    2.162037   0.000000
    13  H    3.858398   4.263107   0.000000
 Stoichiometry    C6H5NO
 Framework group  C1[X(C6H5NO)]
 Deg. of freedom    33
 Full point group                 C1      NOp   1
 Largest Abelian subgroup         C1      NOp   1
 Largest concise Abelian subgroup C1      NOp   1
                         Standard orientation:                         
 ---------------------------------------------------------------------
 Center     Atomic      Atomic             Coordinates (Angstroms)
 Number     Number       Type             X           Y           Z
 ---------------------------------------------------------------------
      1          8           0        2.852331    0.401959   -0.000010
      2          7           0        1.891989   -0.665275    0.000021
      3          1           0       -2.477164   -1.817857   -0.000005
      4          1           0       -1.562439    2.383656    0.000026
      5          1           0       -3.257624    0.550897   -0.000010
      6          6           0        0.587546   -0.281547    0.000016
      7          6           0       -2.200539    0.320086    0.000000
      8          6           0        0.108291    1.040805   -0.000017
      9          6           0       -0.394474   -1.288376   -0.000028
     10          6           0       -1.766277   -1.001432    0.000021
     11          6           0       -1.259522    1.344408   -0.000004
     12          1           0        0.844107    1.843557    0.000028
     13          1           0       -0.059598   -2.322664   -0.000036
 ---------------------------------------------------------------------
 Rotational constants (GHZ):           5.2740508           1.5760398           1.2134312
 Standard basis: def2TZVPP (5D, 7F)
 There are   363 symmetry adapted cartesian basis functions of A   symmetry.
 There are   318 symmetry adapted basis functions of A   symmetry.
   318 basis functions,   493 primitive gaussians,   363 cartesian basis functions
    28 alpha electrons       28 beta electrons
       nuclear repulsion energy       319.5180944701 Hartrees.
 NAtoms=   13 NActive=   13 NUniq=   13 SFac= 1.00D+00 NAtFMM=   60 NAOKFM=F Big=F
 Integral buffers will be    131072 words long.
 Raffenetti 2 integral format.
 Two-electron integral symmetry is turned on.
 Nuclear repulsion after empirical dispersion term =      319.5178673806 Hartrees.
 ------------------------------------------------------------------------------
 Polarizable Continuum Model (PCM)
 =================================
 Model                : PCM.
 Atomic radii         : SMD-Coulomb.
 Polarization charges : Total charges.
 Charge compensation  : None.
 Solution method      : On-the-fly selection.
 Cavity type          : VdW (van der Waals Surface) (Alpha=1.000).
 Cavity algorithm     : GePol (No added spheres)
                        Default sphere list used, NSphG=   13.
                        Lebedev-Laikov grids with approx.  5.0 points / Ang**2.
                        Smoothing algorithm: York/Karplus (Gamma=1.0000).
                        Polarization charges: spherical gaussians, with
                                              point-specific exponents (IZeta= 3).
                        Self-potential: point-specific (ISelfS= 7).
                        Self-field    : sphere-specific E.n sum rule (ISelfD= 2).
 1st derivatives      : Analytical E(r).r(x)/FMM algorithm (CHGder, D1EAlg=3).
                        Cavity 1st derivative terms included.
 Solvent              : Chloroform, Eps=   4.711300 Eps(inf)=   2.090627
 ------------------------------------------------------------------------------
 Spheres list:
 ISph  on   Nord     Re0    Alpha      Xe            Ye            Ze
    1   O      1    2.0240  1.000      2.852331      0.401959     -0.000010
    2   N      2    1.8900  1.000      1.891989     -0.665275      0.000021
    3   H      3    1.2000  1.000     -2.477164     -1.817857     -0.000005
    4   H      4    1.2000  1.000     -1.562439      2.383656      0.000026
    5   H      5    1.2000  1.000     -3.257624      0.550897     -0.000010
    6   C      6    1.8500  1.000      0.587546     -0.281547      0.000016
    7   C      7    1.8500  1.000     -2.200539      0.320086      0.000000
    8   C      8    1.8500  1.000      0.108291      1.040805     -0.000017
    9   C      9    1.8500  1.000     -0.394474     -1.288376     -0.000028
   10   C     10    1.8500  1.000     -1.766277     -1.001432      0.000021
   11   C     11    1.8500  1.000     -1.259522      1.344408     -0.000004
   12   H     12    1.2000  1.000      0.844107      1.843557      0.000028
   13   H     13    1.2000  1.000     -0.059598     -2.322664     -0.000036
 ------------------------------------------------------------------------------
 ------------------------------------------------------------------------------
 Atomic radii for non-electrostatic terms: SMD-CDS.
 ------------------------------------------------------------------------------
 Nuclear repulsion after PCM non-electrostatic terms =      319.5148166925 Hartrees.
 One-electron integrals computed using PRISM.
   1 Symmetry operations used in ECPInt.
 ECPInt:  NShTT=    7021 NPrTT=   20291 LenC2=    6843 LenP2D=   16139.
 LDataN:  DoStor=T MaxTD1= 6 Len=  172
 NBasis=   318 RedAO= T EigKep=  1.07D-05  NBF=   318
 NBsUse=   318 1.00D-06 EigRej= -1.00D+00 NBFU=   318
 ExpMin= 9.52D-02 ExpMax= 2.70D+04 ExpMxC= 9.22D+02 IAcc=3 IRadAn=         5 AccDes= 0.00D+00
 Harris functional with IExCor= 1009 and IRadAn=       5 diagonalized for initial guess.
 HarFok:  IExCor= 1009 AccDes= 0.00D+00 IRadAn=         5 IDoV= 1 UseB2=F ITyADJ=14
 ICtDFT=  3500011 ScaDFX=  1.000000  1.000000  1.000000  1.000000
 FoFCou: FMM=F IPFlag=           0 FMFlag=      100000 FMFlg1=           0
         NFxFlg=           0 DoJE=T BraDBF=F KetDBF=T FulRan=T
         wScrn=  0.000000 ICntrl=       500 IOpCl=  0 I1Cent=   200000004 NGrid=           0
         NMat0=    1 NMatS0=      1 NMatT0=    0 NMatD0=    1 NMtDS0=    0 NMtDT0=    0
 Petite list used in FoFCou.
 Requested convergence on RMS density matrix=1.00D-08 within 128 cycles.
 Requested convergence on MAX density matrix=1.00D-06.
 Requested convergence on             energy=1.00D-06.
 No special actions if energy rises.
 Inv3:  Mode=1 IEnd=     4406832.
 Iteration    1 A*A^-1 deviation from unit magnitude is 5.55D-15 for   1210.
 Iteration    1 A*A^-1 deviation from orthogonality  is 1.55D-15 for    805    730.
 Iteration    1 A^-1*A deviation from unit magnitude is 5.55D-15 for   1210.
 Iteration    1 A^-1*A deviation from orthogonality  is 1.82D-15 for   1207    999.
 Error on total polarization charges =  0.02545
 SCF Done:  E(RM062X) =  -361.485429789     A.U. after   15 cycles
            NFock= 15  Conv=0.16D-08     -V/T= 2.0061
 SMD-CDS (non-electrostatic) energy       (kcal/mol) =      -1.91
 (included in total energy above)

 **********************************************************************

            Population analysis using the SCF density.

 **********************************************************************

 Orbital symmetries:
       Occupied  (A) (A) (A) (A) (A) (A) (A) (A) (A) (A) (A) (A)
                 (A) (A) (A) (A) (A) (A) (A) (A) (A) (A) (A) (A)
                 (A) (A) (A) (A)
       Virtual   (A) (A) (A) (A) (A) (A) (A) (A) (A) (A) (A) (A)
                 (A) (A) (A) (A) (A) (A) (A) (A) (A) (A) (A) (A)
                 (A) (A) (A) (A) (A) (A) (A) (A) (A) (A) (A) (A)
                 (A) (A) (A) (A) (A) (A) (A) (A) (A) (A) (A) (A)
                 (A) (A) (A) (A) (A) (A) (A) (A) (A) (A) (A) (A)
                 (A) (A) (A) (A) (A) (A) (A) (A) (A) (A) (A) (A)
                 (A) (A) (A) (A) (A) (A) (A) (A) (A) (A) (A) (A)
                 (A) (A) (A) (A) (A) (A) (A) (A) (A) (A) (A) (A)
                 (A) (A) (A) (A) (A) (A) (A) (A) (A) (A) (A) (A)
                 (A) (A) (A) (A) (A) (A) (A) (A) (A) (A) (A) (A)
                 (A) (A) (A) (A) (A) (A) (A) (A) (A) (A) (A) (A)
                 (A) (A) (A) (A) (A) (A) (A) (A) (A) (A) (A) (A)
                 (A) (A) (A) (A) (A) (A) (A) (A) (A) (A) (A) (A)
                 (A) (A) (A) (A) (A) (A) (A) (A) (A) (A) (A) (A)
                 (A) (A) (A) (A) (A) (A) (A) (A) (A) (A) (A) (A)
                 (A) (A) (A) (A) (A) (A) (A) (A) (A) (A) (A) (A)
                 (A) (A) (A) (A) (A) (A) (A) (A) (A) (A) (A) (A)
                 (A) (A) (A) (A) (A) (A) (A) (A) (A) (A) (A) (A)
                 (A) (A) (A) (A) (A) (A) (A) (A) (A) (A) (A) (A)
                 (A) (A) (A) (A) (A) (A) (A) (A) (A) (A) (A) (A)
                 (A) (A) (A) (A) (A) (A) (A) (A) (A) (A) (A) (A)
                 (A) (A) (A) (A) (A) (A) (A) (A) (A) (A) (A) (A)
                 (A) (A) (A) (A) (A) (A) (A) (A) (A) (A) (A) (A)
                 (A) (A) (A) (A) (A) (A) (A) (A) (A) (A) (A) (A)
                 (A) (A)
 The electronic state is 1-A.
 Alpha  occ. eigenvalues --  -19.66951 -14.87239 -10.59268 -10.57739 -10.57515
 Alpha  occ. eigenvalues --  -10.57299 -10.56388 -10.56381  -1.14692  -0.99504
 Alpha  occ. eigenvalues --   -0.92877  -0.86271  -0.81401  -0.71260  -0.67847
 Alpha  occ. eigenvalues --   -0.60695  -0.55749  -0.55013  -0.52383  -0.50150
 Alpha  occ. eigenvalues --   -0.49816  -0.45482  -0.44067  -0.43161  -0.41191
 Alpha  occ. eigenvalues --   -0.33394  -0.33049  -0.32749
 Alpha virt. eigenvalues --   -0.10909   0.00226   0.04027   0.08739   0.11465
 Alpha virt. eigenvalues --    0.12050   0.13133   0.13473   0.15479   0.17999
 Alpha virt. eigenvalues --    0.18152   0.19986   0.22773   0.23209   0.23767
 Alpha virt. eigenvalues --    0.24984   0.27084   0.27118   0.27686   0.28103
 Alpha virt. eigenvalues --    0.31389   0.35173   0.35715   0.35786   0.37201
 Alpha virt. eigenvalues --    0.37975   0.38874   0.40647   0.42533   0.43023
 Alpha virt. eigenvalues --    0.43059   0.43980   0.44099   0.44562   0.45787
 Alpha virt. eigenvalues --    0.49149   0.49449   0.51500   0.52006   0.52587
 Alpha virt. eigenvalues --    0.52748   0.53507   0.55726   0.58433   0.62632
 Alpha virt. eigenvalues --    0.64685   0.65695   0.67526   0.68074   0.69809
 Alpha virt. eigenvalues --    0.70179   0.71542   0.72286   0.72499   0.77950
 Alpha virt. eigenvalues --    0.78194   0.78258   0.82377   0.84033   0.85024
 Alpha virt. eigenvalues --    0.86178   0.90851   0.93697   0.96296   0.98412
 Alpha virt. eigenvalues --    0.98882   0.99033   1.00822   1.02672   1.06262
 Alpha virt. eigenvalues --    1.07644   1.07821   1.13406   1.15041   1.16934
 Alpha virt. eigenvalues --    1.17086   1.20284   1.20589   1.21809   1.22114
 Alpha virt. eigenvalues --    1.28255   1.28385   1.30217   1.32412   1.32648
 Alpha virt. eigenvalues --    1.33800   1.34006   1.36191   1.38901   1.39902
 Alpha virt. eigenvalues --    1.44609   1.45791   1.49614   1.49778   1.51059
 Alpha virt. eigenvalues --    1.52645   1.53162   1.55083   1.55832   1.58793
 Alpha virt. eigenvalues --    1.62532   1.62785   1.63997   1.65762   1.67392
 Alpha virt. eigenvalues --    1.69984   1.72472   1.73699   1.74583   1.79857
 Alpha virt. eigenvalues --    1.82345   1.84027   1.88003   1.92518   1.95776
 Alpha virt. eigenvalues --    1.97360   1.98010   1.99300   2.01570   2.03968
 Alpha virt. eigenvalues --    2.06885   2.09378   2.12304   2.13573   2.22841
 Alpha virt. eigenvalues --    2.26167   2.28544   2.30255   2.32118   2.36647
 Alpha virt. eigenvalues --    2.37309   2.37717   2.41186   2.48924   2.52985
 Alpha virt. eigenvalues --    2.58418   2.62603   2.64720   2.68558   2.69587
 Alpha virt. eigenvalues --    2.69597   2.70908   2.71256   2.75053   2.75239
 Alpha virt. eigenvalues --    2.77638   2.79691   2.80697   2.81540   2.84869
 Alpha virt. eigenvalues --    2.88549   2.89946   2.91454   2.92132   2.93467
 Alpha virt. eigenvalues --    2.96941   2.99444   3.01736   3.02218   3.03172
 Alpha virt. eigenvalues --    3.05643   3.06128   3.07473   3.09742   3.11133
 Alpha virt. eigenvalues --    3.12136   3.12980   3.13238   3.14701   3.16057
 Alpha virt. eigenvalues --    3.20212   3.25336   3.26925   3.27852   3.28444
 Alpha virt. eigenvalues --    3.29265   3.30472   3.32446   3.33767   3.34056
 Alpha virt. eigenvalues --    3.37104   3.38084   3.39883   3.42813   3.45536
 Alpha virt. eigenvalues --    3.48019   3.51168   3.53164   3.54042   3.58390
 Alpha virt. eigenvalues --    3.60829   3.63077   3.70077   3.70262   3.70849
 Alpha virt. eigenvalues --    3.71037   3.73797   3.75030   3.75885   3.77110
 Alpha virt. eigenvalues --    3.78137   3.79996   3.80268   3.81031   3.83806
 Alpha virt. eigenvalues --    3.85033   3.87819   3.88590   3.94610   3.94934
 Alpha virt. eigenvalues --    3.95072   3.98388   4.04020   4.05287   4.09101
 Alpha virt. eigenvalues --    4.09827   4.10570   4.12589   4.18033   4.19047
 Alpha virt. eigenvalues --    4.19491   4.20042   4.24035   4.25329   4.25963
 Alpha virt. eigenvalues --    4.28927   4.29056   4.37373   4.42562   4.48332
 Alpha virt. eigenvalues --    4.49023   4.54420   4.57065   4.57639   4.59307
 Alpha virt. eigenvalues --    4.61575   4.64891   4.65808   4.68527   4.70311
 Alpha virt. eigenvalues --    4.70594   4.72758   4.74539   4.74979   4.82065
 Alpha virt. eigenvalues --    4.84584   4.89920   4.93908   4.96467   5.03656
 Alpha virt. eigenvalues --    5.06993   5.07432   5.12396   5.14850   5.17746
 Alpha virt. eigenvalues --    5.18048   5.20096   5.25628   5.26744   5.29409
 Alpha virt. eigenvalues --    5.31786   5.35507   5.37247   5.38192   5.40582
 Alpha virt. eigenvalues --    5.49068   5.54780   5.66093   5.67342   5.74454
 Alpha virt. eigenvalues --    5.78076   5.87071   6.00339   6.05623   6.14749
 Alpha virt. eigenvalues --    6.26632   6.36046   6.53833   6.63769   6.65669
 Alpha virt. eigenvalues --    6.76012   7.45150  22.67801  23.14623  23.22633
 Alpha virt. eigenvalues --   23.25313  23.31901  24.03411  32.20837  43.71089
          Condensed to atoms (all electrons):
               1          2          3          4          5          6
     1  O    8.185727   0.240179   0.000007  -0.000155   0.000002  -0.091100
     2  N    0.240179   6.444319  -0.000163   0.000023  -0.000007   0.380739
     3  H    0.000007  -0.000163   0.457732  -0.000193  -0.001939   0.010683
     4  H   -0.000155   0.000023  -0.000193   0.450524  -0.001606   0.004102
     5  H    0.000002  -0.000007  -0.001939  -0.001606   0.450140  -0.003107
     6  C   -0.091100   0.380739   0.010683   0.004102  -0.003107   5.516882
     7  C    0.000950  -0.005399  -0.030598  -0.022014   0.419276  -0.179669
     8  C    0.001822  -0.094613  -0.004502  -0.018747   0.007233  -0.062990
     9  C    0.003944  -0.005839  -0.032648  -0.000738   0.006347   0.117548
    10  C   -0.000685   0.001680   0.426591   0.002868  -0.027517   0.159852
    11  C   -0.003122   0.018150   0.007063   0.413233  -0.029200   0.205334
    12  H    0.029177  -0.017042  -0.000021  -0.002351  -0.000023  -0.061631
    13  H   -0.000730   0.017980  -0.004375   0.000020  -0.000056  -0.074323
               7          8          9         10         11         12
     1  O    0.000950   0.001822   0.003944  -0.000685  -0.003122   0.029177
     2  N   -0.005399  -0.094613  -0.005839   0.001680   0.018150  -0.017042
     3  H   -0.030598  -0.004502  -0.032648   0.426591   0.007063  -0.000021
     4  H   -0.022014  -0.018747  -0.000738   0.002868   0.413233  -0.002351
     5  H    0.419276   0.007233   0.006347  -0.027517  -0.029200  -0.000023
     6  C   -0.179669  -0.062990   0.117548   0.159852   0.205334  -0.061631
     7  C    4.951996   0.104357   0.066895   0.393050   0.354008   0.011084
     8  C    0.104357   5.426388   0.256256  -0.217210   0.241636   0.433854
     9  C    0.066895   0.256256   5.069805   0.355433  -0.200826   0.018653
    10  C    0.393050  -0.217210   0.355433   5.050755   0.075651  -0.006427
    11  C    0.354008   0.241636  -0.200826   0.075651   5.128868  -0.037239
    12  H    0.011084   0.433854   0.018653  -0.006427  -0.037239   0.456906
    13  H    0.011638   0.026417   0.431003  -0.039397  -0.008017   0.000441
              13
     1  O   -0.000730
     2  N    0.017980
     3  H   -0.004375
     4  H    0.000020
     5  H   -0.000056
     6  C   -0.074323
     7  C    0.011638
     8  C    0.026417
     9  C    0.431003
    10  C   -0.039397
    11  C   -0.008017
    12  H    0.000441
    13  H    0.472033
 Mulliken charges:
               1
     1  O   -0.366016
     2  N    0.019992
     3  H    0.172364
     4  H    0.175034
     5  H    0.180458
     6  C    0.077679
     7  C   -0.075575
     8  C   -0.099901
     9  C   -0.085834
    10  C   -0.174644
    11  C   -0.165541
    12  H    0.174618
    13  H    0.167366
 Sum of Mulliken charges =  -0.00000
 Mulliken charges with hydrogens summed into heavy atoms:
               1
     1  O   -0.366016
     2  N    0.019992
     6  C    0.077679
     7  C    0.104883
     8  C    0.074717
     9  C    0.081532
    10  C   -0.002280
    11  C    0.009493
 Electronic spatial extent (au):  <R**2>=            916.8192
 Charge=             -0.0000 electrons
 Dipole moment (field-independent basis, Debye):
    X=             -7.1039    Y=              0.1784    Z=             -0.0000  Tot=              7.1061
 Quadrupole moment (field-independent basis, Debye-Ang):
   XX=            -53.2936   YY=            -39.7176   ZZ=            -48.3687
   XY=              0.0941   XZ=              0.0000   YZ=              0.0003
 Traceless Quadrupole moment (field-independent basis, Debye-Ang):
   XX=             -6.1670   YY=              7.4091   ZZ=             -1.2421
   XY=              0.0941   XZ=              0.0000   YZ=              0.0003
 Octapole moment (field-independent basis, Debye-Ang**2):
  XXX=            -62.3671  YYY=              3.0141  ZZZ=             -0.0000  XYY=             -7.3814
  XXY=              1.3775  XXZ=             -0.0001  XZZ=              6.9188  YZZ=              0.1170
  YYZ=              0.0000  XYZ=              0.0000
 Hexadecapole moment (field-independent basis, Debye-Ang**3):
 XXXX=           -896.1105 YYYY=           -275.4048 ZZZZ=            -52.2512 XXXY=             -0.7262
 XXXZ=              0.0004 YYYX=              7.6087 YYYZ=              0.0015 ZZZX=             -0.0000
 ZZZY=              0.0002 XXYY=           -182.4874 XXZZ=           -153.9882 YYZZ=            -66.9655
 XXYZ=              0.0006 YYXZ=             -0.0002 ZZXY=              0.7999
 N-N= 3.195148166925D+02 E-N=-1.481036982078D+03  KE= 3.592786322369D+02
   1 Symmetry operations used in ECPInt.
 ECPInt:  NShTT=    7021 NPrTT=   20291 LenC2=    6843 LenP2D=   16139.
 LDataN:  DoStor=T MaxTD1= 7 Len=  274
 D1PCM: PCM CHGder 1st derivatives, ID1Alg=3 FixD1E=F DoIter=F DoCFld=F I1PDM=0.
 Calling FoFJK, ICntrl=      2127 FMM=F ISym2X=0 I1Cent= 0 IOpClX= 0 NMat=1 NMatS=1 NMatT=0.
 ***** Axes restored to original set *****
 -------------------------------------------------------------------
 Center     Atomic                   Forces (Hartrees/Bohr)
 Number     Number              X              Y              Z
 -------------------------------------------------------------------
      1        8          -0.097551564    0.125228148    0.002711959
      2        7           0.100197291   -0.114519433   -0.002611551
      3        1           0.000869392   -0.001072844   -0.000025100
      4        1          -0.000267783    0.001510272    0.000023789
      5        1           0.000022269    0.000401698    0.000003540
      6        6          -0.032583346   -0.012714657    0.000242404
      7        6           0.004622198    0.003516189   -0.000013834
      8        6          -0.005271755   -0.019925239   -0.000193354
      9        6          -0.004609737    0.015174552    0.000231918
     10        6           0.016144306    0.001516343   -0.000164032
     11        6           0.023832309   -0.000446467   -0.000289765
     12        1          -0.003894740    0.003246802    0.000089084
     13        1          -0.001508841   -0.001915363   -0.000005059
 -------------------------------------------------------------------
 Cartesian Forces:  Max     0.125228148 RMS     0.036221407

 GradGradGradGradGradGradGradGradGradGradGradGradGradGradGradGradGradGrad
 Berny optimization.
 FormGI is forming the generalized inverse of G from B-inverse, IUseBI=4.
 Internal  Forces:  Max     0.158628087 RMS     0.021850786
 Search for a local minimum.
 Step number   1 out of a maximum of  100
 All quantities printed in internal units (Hartrees-Bohrs-Radians)
 Mixed Optimization -- RFO/linear search
 Second derivative matrix not updated -- first step.
 ITU=  0
     Eigenvalues ---    0.02012   0.02036   0.02041   0.02056   0.02084
     Eigenvalues ---    0.02133   0.02146   0.02177   0.02208   0.02225
     Eigenvalues ---    0.16000   0.16000   0.16000   0.16000   0.16000
     Eigenvalues ---    0.22000   0.22000   0.23454   0.25000   0.25000
     Eigenvalues ---    0.34933   0.35144   0.35688   0.35695   0.35755
     Eigenvalues ---    0.40181   0.41103   0.41693   0.44768   0.45407
     Eigenvalues ---    0.46166   0.46905   0.53005
 RFO step:  Lambda=-6.12115496D-02 EMin= 2.01230582D-02
 Linear search not attempted -- first point.
 Maximum step size (   0.300) exceeded in Quadratic search.
    -- Step size scaled by   0.810
 Iteration  1 RMS(Cart)=  0.04072981 RMS(Int)=  0.01043898
 Iteration  2 RMS(Cart)=  0.00954613 RMS(Int)=  0.00002680
 Iteration  3 RMS(Cart)=  0.00001254 RMS(Int)=  0.00002626
 Iteration  4 RMS(Cart)=  0.00000000 RMS(Int)=  0.00002626
 Variable       Old X    -DE/DX   Delta X   Delta X   Delta X     New X
                                 (Linear)    (Quad)   (Total)
    R1        2.71309  -0.15863   0.00000  -0.27742  -0.27742   2.43566
    R2        2.56949   0.00446   0.00000   0.00611   0.00611   2.57559
    R3        2.04572  -0.00138   0.00000  -0.00267  -0.00267   2.04305
    R4        2.04562  -0.00129   0.00000  -0.00250  -0.00250   2.04312
    R5        2.04467  -0.00006   0.00000  -0.00012  -0.00012   2.04454
    R6        2.65794   0.00120   0.00000   0.00213   0.00217   2.66011
    R7        2.65778  -0.00125   0.00000  -0.00183  -0.00180   2.65598
    R8        2.62869   0.00100   0.00000   0.00132   0.00127   2.62996
    R9        2.62852   0.00576   0.00000   0.00858   0.00855   2.63707
   R10        2.64770  -0.02432   0.00000  -0.03816  -0.03815   2.60955
   R11        2.05784  -0.00492   0.00000  -0.00970  -0.00970   2.04814
   R12        2.64844  -0.02129   0.00000  -0.03351  -0.03352   2.61492
   R13        2.05441  -0.00237   0.00000  -0.00465  -0.00465   2.04977
    A1        2.01742  -0.01773   0.00000  -0.04613  -0.04613   1.97129
    A2        2.20460  -0.00544   0.00000  -0.01490  -0.01495   2.18965
    A3        2.05762  -0.01363   0.00000  -0.03622  -0.03626   2.02136
    A4        2.02097   0.01907   0.00000   0.05112   0.05120   2.07217
    A5        2.10326  -0.00404   0.00000  -0.01205  -0.01201   2.09125
    A6        2.09886  -0.00323   0.00000  -0.00908  -0.00903   2.08982
    A7        2.08106   0.00727   0.00000   0.02113   0.02105   2.10211
    A8        2.13692  -0.01236   0.00000  -0.03424  -0.03418   2.10274
    A9        2.05197   0.00745   0.00000   0.02177   0.02174   2.07371
   A10        2.09430   0.00491   0.00000   0.01247   0.01244   2.10673
   A11        2.13752  -0.01091   0.00000  -0.03025  -0.03023   2.10729
   A12        2.05555   0.00606   0.00000   0.01732   0.01731   2.07285
   A13        2.09012   0.00486   0.00000   0.01293   0.01292   2.10304
   A14        2.10769   0.00116   0.00000   0.00321   0.00324   2.11093
   A15        2.08100   0.00095   0.00000   0.00241   0.00244   2.08345
   A16        2.09449  -0.00211   0.00000  -0.00562  -0.00568   2.08881
   A17        2.11494  -0.00037   0.00000  -0.00203  -0.00202   2.11291
   A18        2.07284   0.00133   0.00000   0.00418   0.00419   2.07703
   A19        2.09541  -0.00097   0.00000  -0.00215  -0.00217   2.09324
    D1        0.00000  -0.00000   0.00000  -0.00000  -0.00000  -0.00000
    D2        3.14153   0.00000   0.00000   0.00002   0.00002   3.14155
    D3       -3.14158  -0.00000   0.00000  -0.00000  -0.00000  -3.14158
    D4       -0.00007   0.00000   0.00000   0.00002   0.00002  -0.00006
    D5        0.00007  -0.00000   0.00000  -0.00002  -0.00002   0.00005
    D6        3.14158   0.00000   0.00000   0.00000   0.00000   3.14158
    D7        3.14154   0.00000   0.00000   0.00001   0.00001   3.14156
    D8        0.00002  -0.00000   0.00000  -0.00001  -0.00001   0.00001
    D9       -0.00010   0.00000   0.00000   0.00003   0.00003  -0.00007
   D10        3.14156   0.00000   0.00000   0.00001   0.00001   3.14157
   D11        0.00004  -0.00000   0.00000  -0.00001  -0.00001   0.00003
   D12        3.14154   0.00000   0.00000   0.00001   0.00001   3.14155
   D13       -3.14156  -0.00000   0.00000  -0.00001  -0.00001  -3.14157
   D14       -0.00005   0.00000   0.00000   0.00001   0.00001  -0.00004
   D15        0.00005  -0.00000   0.00000  -0.00001  -0.00001   0.00004
   D16       -3.14157  -0.00000   0.00000  -0.00001  -0.00001  -3.14158
   D17       -3.14154  -0.00000   0.00000  -0.00001  -0.00001  -3.14155
   D18        0.00003  -0.00000   0.00000  -0.00001  -0.00001   0.00002
   D19        3.14153   0.00000   0.00000   0.00002   0.00002   3.14155
   D20       -0.00004   0.00000   0.00000   0.00001   0.00001  -0.00003
   D21        0.00003  -0.00000   0.00000  -0.00001  -0.00001   0.00002
   D22       -3.14154  -0.00000   0.00000  -0.00001  -0.00001  -3.14155
   D23       -3.14158  -0.00000   0.00000  -0.00001  -0.00001  -3.14159
   D24        0.00010  -0.00000   0.00000  -0.00003  -0.00003   0.00007
   D25       -0.00006   0.00000   0.00000   0.00001   0.00001  -0.00004
   D26       -3.14157  -0.00000   0.00000  -0.00001  -0.00001  -3.14157
         Item               Value     Threshold  Converged?
 Maximum Force            0.158628     0.000450     NO 
 RMS     Force            0.021851     0.000300     NO 
 Maximum Displacement     0.280206     0.001800     NO 
 RMS     Displacement     0.048183     0.001200     NO 
 Predicted change in Energy=-3.225264D-02
 GradGradGradGradGradGradGradGradGradGradGradGradGradGradGradGradGradGrad

                          Input orientation:                          
 ---------------------------------------------------------------------
 Center     Atomic      Atomic             Coordinates (Angstroms)
 Number     Number       Type             X           Y           Z
 ---------------------------------------------------------------------
      1          8           0        3.156921   -0.653130   -0.045793
      2          7           0        2.448739    0.423559   -0.024024
      3          1           0       -1.716710    2.066978    0.046131
      4          1           0       -1.295742   -2.218357   -0.011960
      5          1           0       -2.746738   -0.195243    0.030453
      6          6           0        1.108218    0.177686   -0.011038
      7          6           0       -1.670055   -0.089484    0.018882
      8          6           0        0.511739   -1.097333   -0.019662
      9          6           0        0.278173    1.311636    0.012949
     10          6           0       -1.099201    1.179734    0.027748
     11          6           0       -0.862938   -1.227618   -0.004850
     12          1           0        1.150470   -1.972754   -0.038168
     13          1           0        0.737122    2.294426    0.019631
 ---------------------------------------------------------------------
                    Distance matrix (angstroms):
                    1          2          3          4          5
     1  O    0.000000
     2  N    1.288897   0.000000
     3  H    5.582088   4.478472   0.000000
     4  H    4.719882   4.582685   4.306354   0.000000
     5  H    5.921880   5.232481   2.485728   2.490016   0.000000
     6  C    2.211029   1.362945   3.398956   3.394119   3.873174
     7  C    4.860204   4.150846   2.157138   2.161750   1.081926
     8  C    2.682347   2.462742   3.870811   2.126909   3.381413
     9  C    3.485821   2.345508   2.133353   3.865059   3.379508
    10  C    4.634584   3.627996   1.081137   3.404002   2.145914
    11  C    4.060909   3.700535   3.403804   1.081173   2.148429
    12  H    2.401523   2.725439   4.954519   2.458650   4.283980
    13  H    3.814157   2.536076   2.464493   4.949621   4.282038
                    6          7          8          9         10
     6  C    0.000000
     7  C    2.791250   0.000000
     8  C    1.407670   2.403638   0.000000
     9  C    1.405487   2.399743   2.420485   0.000000
    10  C    2.424520   1.391714   2.789697   1.383754   0.000000
    11  C    2.420821   1.395475   1.380917   2.783929   2.419137
    12  H    2.151026   3.391950   1.083827   3.398637   3.873441
    13  H    2.149241   3.387851   3.399466   1.084691   2.148182
                   11         12         13
    11  C    0.000000
    12  H    2.147126   0.000000
    13  H    3.868538   4.287542   0.000000
 Stoichiometry    C6H5NO
 Framework group  C1[X(C6H5NO)]
 Deg. of freedom    33
 Full point group                 C1      NOp   1
 Largest Abelian subgroup         C1      NOp   1
 Largest concise Abelian subgroup C1      NOp   1
                         Standard orientation:                         
 ---------------------------------------------------------------------
 Center     Atomic      Atomic             Coordinates (Angstroms)
 Number     Number       Type             X           Y           Z
 ---------------------------------------------------------------------
      1          8           0        2.705090    0.375433   -0.000007
      2          7           0        1.894234   -0.626448    0.000015
      3          1           0       -2.413199   -1.852306   -0.000004
      4          1           0       -1.572123    2.371113    0.000020
      5          1           0       -3.215471    0.500395   -0.000009
      6          6           0        0.584335   -0.249905    0.000011
      7          6           0       -2.154350    0.289245   -0.000001
      8          6           0        0.116299    1.077679   -0.000012
      9          6           0       -0.353443   -1.296788   -0.000019
     10          6           0       -1.711244   -1.030045    0.000016
     11          6           0       -1.238978    1.342547   -0.000003
     12          1           0        0.838211    1.886087    0.000023
     13          1           0        0.006506   -2.320014   -0.000026
 ---------------------------------------------------------------------
 Rotational constants (GHZ):           5.2446058           1.6766491           1.2704869
 Standard basis: def2TZVPP (5D, 7F)
 There are   363 symmetry adapted cartesian basis functions of A   symmetry.
 There are   318 symmetry adapted basis functions of A   symmetry.
   318 basis functions,   493 primitive gaussians,   363 cartesian basis functions
    28 alpha electrons       28 beta electrons
       nuclear repulsion energy       325.1946374196 Hartrees.
 NAtoms=   13 NActive=   13 NUniq=   13 SFac= 1.00D+00 NAtFMM=   60 NAOKFM=F Big=F
 Integral buffers will be    131072 words long.
 Raffenetti 2 integral format.
 Two-electron integral symmetry is turned on.
 Nuclear repulsion after empirical dispersion term =      325.1944147436 Hartrees.
 ------------------------------------------------------------------------------
 Polarizable Continuum Model (PCM)
 =================================
 Model                : PCM.
 Atomic radii         : SMD-Coulomb.
 Polarization charges : Total charges.
 Charge compensation  : None.
 Solution method      : On-the-fly selection.
 Cavity type          : VdW (van der Waals Surface) (Alpha=1.000).
 Cavity algorithm     : GePol (No added spheres)
                        Default sphere list used, NSphG=   13.
                        Lebedev-Laikov grids with approx.  5.0 points / Ang**2.
                        Smoothing algorithm: York/Karplus (Gamma=1.0000).
                        Polarization charges: spherical gaussians, with
                                              point-specific exponents (IZeta= 3).
                        Self-potential: point-specific (ISelfS= 7).
                        Self-field    : sphere-specific E.n sum rule (ISelfD= 2).
 1st derivatives      : Analytical E(r).r(x)/FMM algorithm (CHGder, D1EAlg=3).
                        Cavity 1st derivative terms included.
 Solvent              : Chloroform, Eps=   4.711300 Eps(inf)=   2.090627
 ------------------------------------------------------------------------------
 Spheres list:
 ISph  on   Nord     Re0    Alpha      Xe            Ye            Ze
    1   O      1    2.0240  1.000      2.705090      0.375433     -0.000007
    2   N      2    1.8900  1.000      1.894234     -0.626448      0.000015
    3   H      3    1.2000  1.000     -2.413199     -1.852306     -0.000004
    4   H      4    1.2000  1.000     -1.572123      2.371113      0.000020
    5   H      5    1.2000  1.000     -3.215471      0.500395     -0.000009
    6   C      6    1.8500  1.000      0.584335     -0.249905      0.000011
    7   C      7    1.8500  1.000     -2.154350      0.289245     -0.000001
    8   C      8    1.8500  1.000      0.116299      1.077679     -0.000012
    9   C      9    1.8500  1.000     -0.353443     -1.296788     -0.000019
   10   C     10    1.8500  1.000     -1.711244     -1.030045      0.000016
   11   C     11    1.8500  1.000     -1.238978      1.342547     -0.000003
   12   H     12    1.2000  1.000      0.838211      1.886087      0.000023
   13   H     13    1.2000  1.000      0.006506     -2.320014     -0.000026
 ------------------------------------------------------------------------------
 ------------------------------------------------------------------------------
 Atomic radii for non-electrostatic terms: SMD-CDS.
 ------------------------------------------------------------------------------
 Nuclear repulsion after PCM non-electrostatic terms =      325.1912953834 Hartrees.
 One-electron integrals computed using PRISM.
   1 Symmetry operations used in ECPInt.
 ECPInt:  NShTT=    7021 NPrTT=   20291 LenC2=    6854 LenP2D=   16205.
 LDataN:  DoStor=T MaxTD1= 6 Len=  172
 NBasis=   318 RedAO= T EigKep=  1.01D-05  NBF=   318
 NBsUse=   318 1.00D-06 EigRej= -1.00D+00 NBFU=   318
 Initial guess from the checkpoint file:  "/gpfs/summit/scratch/jvalegre@colostate.edu/1580876/Gau-76680.chk"
 B after Tr=    -0.000000   -0.000000    0.000000
         Rot=    0.999988    0.000000   -0.000000   -0.004938 Ang=   0.57 deg.
 ExpMin= 9.52D-02 ExpMax= 2.70D+04 ExpMxC= 9.22D+02 IAcc=2 IRadAn=         4 AccDes= 0.00D+00
 Harris functional with IExCor= 1009 and IRadAn=       4 diagonalized for initial guess.
 HarFok:  IExCor= 1009 AccDes= 0.00D+00 IRadAn=         4 IDoV= 1 UseB2=F ITyADJ=14
 ICtDFT=  3500011 ScaDFX=  1.000000  1.000000  1.000000  1.000000
 FoFCou: FMM=F IPFlag=           0 FMFlag=      100000 FMFlg1=           0
         NFxFlg=           0 DoJE=T BraDBF=F KetDBF=T FulRan=T
         wScrn=  0.000000 ICntrl=       500 IOpCl=  0 I1Cent=   200000004 NGrid=           0
         NMat0=    1 NMatS0=      1 NMatT0=    0 NMatD0=    1 NMtDS0=    0 NMtDT0=    0
 Petite list used in FoFCou.
 Requested convergence on RMS density matrix=1.00D-08 within 128 cycles.
 Requested convergence on MAX density matrix=1.00D-06.
 Requested convergence on             energy=1.00D-06.
 No special actions if energy rises.
 Inv3:  Mode=1 IEnd=     4377792.
 Iteration    1 A*A^-1 deviation from unit magnitude is 3.89D-15 for   1203.
 Iteration    1 A*A^-1 deviation from orthogonality  is 1.18D-15 for   1134    998.
 Iteration    1 A^-1*A deviation from unit magnitude is 3.89D-15 for   1203.
 Iteration    1 A^-1*A deviation from orthogonality  is 1.08D-15 for    532    238.
 Error on total polarization charges =  0.02586
 SCF Done:  E(RM062X) =  -361.524491389     A.U. after   13 cycles
            NFock= 13  Conv=0.22D-08     -V/T= 2.0051
 SMD-CDS (non-electrostatic) energy       (kcal/mol) =      -1.96
 (included in total energy above)
   1 Symmetry operations used in ECPInt.
 ECPInt:  NShTT=    7021 NPrTT=   20291 LenC2=    6854 LenP2D=   16205.
 LDataN:  DoStor=T MaxTD1= 7 Len=  274
 D1PCM: PCM CHGder 1st derivatives, ID1Alg=3 FixD1E=F DoIter=F DoCFld=F I1PDM=0.
 Calling FoFJK, ICntrl=      2127 FMM=F ISym2X=0 I1Cent= 0 IOpClX= 0 NMat=1 NMatS=1 NMatT=0.
 ***** Axes restored to original set *****
 -------------------------------------------------------------------
 Center     Atomic                   Forces (Hartrees/Bohr)
 Number     Number              X              Y              Z
 -------------------------------------------------------------------
      1        8          -0.040119313    0.076141173    0.001419978
      2        7           0.073477740   -0.077087530   -0.001830648
      3        1          -0.001137231   -0.000869870    0.000001650
      4        1          -0.001658927    0.000794361    0.000031070
      5        1          -0.000233699    0.000046649    0.000002498
      6        6          -0.047787762    0.001278496    0.000594433
      7        6           0.000765785    0.002398872    0.000018857
      8        6           0.005899507   -0.002777610   -0.000112094
      9        6           0.006614131    0.000420637   -0.000081514
     10        6           0.000024346   -0.002596056   -0.000024850
     11        6           0.005397052    0.002157723   -0.000037404
     12        1          -0.001661998    0.001695886    0.000042595
     13        1           0.000420370   -0.001602730   -0.000024570
 -------------------------------------------------------------------
 Cartesian Forces:  Max     0.077087530 RMS     0.023307716

 GradGradGradGradGradGradGradGradGradGradGradGradGradGradGradGradGradGrad
 Berny optimization.
 Using GEDIIS/GDIIS optimizer.
 FormGI is forming the generalized inverse of G from B-inverse, IUseBI=4.
 Internal  Forces:  Max     0.085679267 RMS     0.012466818
 Search for a local minimum.
 Step number   2 out of a maximum of  100
 All quantities printed in internal units (Hartrees-Bohrs-Radians)
 Mixed Optimization -- RFO/linear search
 Update second derivatives using D2CorX and points    1    2
 DE= -3.91D-02 DEPred=-3.23D-02 R= 1.21D+00
 TightC=F SS=  1.41D+00  RLast= 3.00D-01 DXNew= 5.0454D-01 9.0000D-01
 Trust test= 1.21D+00 RLast= 3.00D-01 DXMaxT set to 5.05D-01
 ITU=  1  0
 Use linear search instead of GDIIS.
     Eigenvalues ---    0.02012   0.02036   0.02040   0.02053   0.02085
     Eigenvalues ---    0.02133   0.02146   0.02178   0.02208   0.02225
     Eigenvalues ---    0.15852   0.16000   0.16000   0.16000   0.16007
     Eigenvalues ---    0.18605   0.22007   0.22040   0.24369   0.25062
     Eigenvalues ---    0.31938   0.34939   0.35146   0.35691   0.35702
     Eigenvalues ---    0.35756   0.41262   0.41576   0.44757   0.45894
     Eigenvalues ---    0.46881   0.47005   0.61929
 RFO step:  Lambda=-1.38849771D-02 EMin= 2.01157340D-02
 Quartic linear search produced a step of  0.48891.
 Iteration  1 RMS(Cart)=  0.05139353 RMS(Int)=  0.01125601
 Iteration  2 RMS(Cart)=  0.01093068 RMS(Int)=  0.00006443
 Iteration  3 RMS(Cart)=  0.00011385 RMS(Int)=  0.00001960
 Iteration  4 RMS(Cart)=  0.00000003 RMS(Int)=  0.00001960
 Variable       Old X    -DE/DX   Delta X   Delta X   Delta X     New X
                                 (Linear)    (Quad)   (Total)
    R1        2.43566  -0.08568  -0.13563  -0.12930  -0.26494   2.17072
    R2        2.57559   0.03265   0.00299   0.08522   0.08821   2.66380
    R3        2.04305  -0.00006  -0.00130   0.00155   0.00024   2.04329
    R4        2.04312  -0.00006  -0.00122   0.00144   0.00022   2.04334
    R5        2.04454   0.00023  -0.00006   0.00099   0.00093   2.04547
    R6        2.66011  -0.00430   0.00106  -0.01554  -0.01444   2.64567
    R7        2.65598  -0.00590  -0.00088  -0.01831  -0.01916   2.63682
    R8        2.62996  -0.00321   0.00062  -0.01004  -0.00946   2.62050
    R9        2.63707   0.00029   0.00418  -0.00360   0.00055   2.63762
   R10        2.60955  -0.00294  -0.01865   0.01307  -0.00557   2.60399
   R11        2.04814  -0.00235  -0.00474  -0.00289  -0.00763   2.04051
   R12        2.61492  -0.00038  -0.01639   0.01847   0.00207   2.61699
   R13        2.04977  -0.00128  -0.00227  -0.00198  -0.00425   2.04552
    A1        1.97129   0.02029  -0.02256   0.15272   0.13016   2.10145
    A2        2.18965  -0.00190  -0.00731   0.00293  -0.00441   2.18524
    A3        2.02136  -0.00433  -0.01773   0.00752  -0.01024   2.01112
    A4        2.07217   0.00623   0.02503  -0.01044   0.01465   2.08682
    A5        2.09125  -0.00030  -0.00587   0.00855   0.00271   2.09396
    A6        2.08982  -0.00018  -0.00442   0.00613   0.00174   2.09157
    A7        2.10211   0.00048   0.01029  -0.01468  -0.00445   2.09766
    A8        2.10274  -0.00441  -0.01671   0.00308  -0.01359   2.08916
    A9        2.07371   0.00255   0.01063  -0.00406   0.00655   2.08026
   A10        2.10673   0.00186   0.00608   0.00098   0.00704   2.11377
   A11        2.10729  -0.00242  -0.01478   0.01204  -0.00273   2.10457
   A12        2.07285   0.00013   0.00846  -0.01773  -0.00927   2.06358
   A13        2.10304   0.00229   0.00632   0.00569   0.01200   2.11504
   A14        2.11093  -0.00100   0.00158  -0.01311  -0.01151   2.09943
   A15        2.08345   0.00194   0.00119   0.01274   0.01396   2.09740
   A16        2.08881  -0.00094  -0.00278   0.00037  -0.00245   2.08636
   A17        2.11291  -0.00240  -0.00099  -0.01705  -0.01803   2.09488
   A18        2.07703   0.00134   0.00205   0.00741   0.00947   2.08650
   A19        2.09324   0.00106  -0.00106   0.00963   0.00856   2.10180
    D1       -0.00000  -0.00000  -0.00000   0.00000   0.00000   0.00000
    D2        3.14155   0.00000   0.00001  -0.00003  -0.00002   3.14153
    D3       -3.14158  -0.00000  -0.00000   0.00000   0.00000  -3.14158
    D4       -0.00006   0.00000   0.00001  -0.00003  -0.00002  -0.00008
    D5        0.00005  -0.00000  -0.00001   0.00004   0.00003   0.00008
    D6        3.14158   0.00000   0.00000   0.00001   0.00001   3.14159
    D7        3.14156   0.00000   0.00001  -0.00002  -0.00001   3.14154
    D8        0.00001  -0.00000  -0.00000   0.00002   0.00001   0.00003
    D9       -0.00007   0.00000   0.00001  -0.00005  -0.00004  -0.00011
   D10        3.14157   0.00000   0.00000  -0.00001  -0.00001   3.14156
   D11        0.00003  -0.00000  -0.00000   0.00001   0.00001   0.00003
   D12        3.14155   0.00000   0.00001  -0.00002  -0.00001   3.14154
   D13       -3.14157  -0.00000  -0.00000   0.00001   0.00000  -3.14156
   D14       -0.00004   0.00000   0.00001  -0.00002  -0.00001  -0.00006
   D15        0.00004  -0.00000  -0.00001   0.00002   0.00001   0.00005
   D16       -3.14158  -0.00000  -0.00000   0.00001   0.00000  -3.14157
   D17       -3.14155  -0.00000  -0.00001   0.00002   0.00001  -3.14154
   D18        0.00002  -0.00000  -0.00000   0.00001   0.00000   0.00002
   D19        3.14155   0.00000   0.00001  -0.00003  -0.00002   3.14153
   D20       -0.00003   0.00000   0.00001  -0.00002  -0.00001  -0.00004
   D21        0.00002  -0.00000  -0.00000   0.00001   0.00001   0.00003
   D22       -3.14155  -0.00000  -0.00001   0.00002   0.00001  -3.14154
   D23       -3.14159  -0.00000  -0.00000   0.00001   0.00001  -3.14158
   D24        0.00007  -0.00000  -0.00001   0.00004   0.00003   0.00010
   D25       -0.00004   0.00000   0.00001  -0.00002  -0.00002  -0.00006
   D26       -3.14157  -0.00000  -0.00000   0.00001   0.00000  -3.14157
         Item               Value     Threshold  Converged?
 Maximum Force            0.085679     0.000450     NO 
 RMS     Force            0.012467     0.000300     NO 
 Maximum Displacement     0.314288     0.001800     NO 
 RMS     Displacement     0.052426     0.001200     NO 
 Predicted change in Energy=-1.936957D-02
 GradGradGradGradGradGradGradGradGradGradGradGradGradGradGradGradGradGrad

                          Input orientation:                          
 ---------------------------------------------------------------------
 Center     Atomic      Atomic             Coordinates (Angstroms)
 Number     Number       Type             X           Y           Z
 ---------------------------------------------------------------------
      1          8           0        3.222145   -0.486816   -0.044516
      2          7           0        2.478414    0.388389   -0.024821
      3          1           0       -1.710583    2.061882    0.045990
      4          1           0       -1.339641   -2.207654   -0.011305
      5          1           0       -2.756997   -0.178599    0.030782
      6          6           0        1.090090    0.144652   -0.011237
      7          6           0       -1.678825   -0.083534    0.019060
      8          6           0        0.492798   -1.121542   -0.019728
      9          6           0        0.286262    1.284954    0.012531
     10          6           0       -1.094040    1.173812    0.027607
     11          6           0       -0.880932   -1.228509   -0.004642
     12          1           0        1.120617   -1.999863   -0.038146
     13          1           0        0.770691    2.252928    0.018724
 ---------------------------------------------------------------------
                    Distance matrix (angstroms):
                    1          2          3          4          5
     1  O    0.000000
     2  N    1.148697   0.000000
     3  H    5.553005   4.511463   0.000000
     4  H    4.875682   4.617052   4.286002   0.000000
     5  H    5.987554   5.266317   2.472846   2.475425   0.000000
     6  C    2.223852   1.409623   3.394528   3.381854   3.860872
     7  C    4.917945   4.184170   2.145820   2.151244   1.082418
     8  C    2.802289   2.494511   3.872131   2.130151   3.384207
     9  C    3.429552   2.368703   2.142925   3.852588   3.376943
    10  C    4.625185   3.658150   1.081265   3.390596   2.143467
    11  C    4.169765   3.728266   3.393753   1.081288   2.150159
    12  H    2.589551   2.747278   4.951823   2.469164   4.284582
    13  H    3.676931   2.528779   2.488768   4.934693   4.284513
                    6          7          8          9         10
     6  C    0.000000
     7  C    2.778467   0.000000
     8  C    1.400027   2.407263   0.000000
     9  C    1.395347   2.394654   2.415557   0.000000
    10  C    2.414767   1.386710   2.790868   1.384851   0.000000
    11  C    2.402195   1.395766   1.377971   2.771305   2.411970
    12  H    2.144901   3.393003   1.079789   3.389504   3.870561
    13  H    2.132544   3.385142   3.386112   1.082444   2.154482
                   11         12         13
    11  C    0.000000
    12  H    2.145299   0.000000
    13  H    3.853416   4.267543   0.000000
 Stoichiometry    C6H5NO
 Framework group  C1[X(C6H5NO)]
 Deg. of freedom    33
 Full point group                 C1      NOp   1
 Largest Abelian subgroup         C1      NOp   1
 Largest concise Abelian subgroup C1      NOp   1
                         Standard orientation:                         
 ---------------------------------------------------------------------
 Center     Atomic      Atomic             Coordinates (Angstroms)
 Number     Number       Type             X           Y           Z
 ---------------------------------------------------------------------
      1          8           0        2.738494    0.310623   -0.000008
      2          7           0        1.940842   -0.515970    0.000020
      3          1           0       -2.345948   -1.921934   -0.000001
      4          1           0       -1.705696    2.315978    0.000026
      5          1           0       -3.248654    0.380258   -0.000007
      6          6           0        0.570599   -0.185105    0.000017
      7          6           0       -2.178566    0.217348    0.000001
      8          6           0        0.054533    1.116337   -0.000019
      9          6           0       -0.303802   -1.272494   -0.000030
     10          6           0       -1.674423   -1.074474    0.000022
     11          6           0       -1.309793    1.309775   -0.000005
     12          1           0        0.736695    1.953355    0.000024
     13          1           0        0.118478   -2.269171   -0.000036
 ---------------------------------------------------------------------
 Rotational constants (GHZ):           5.4120197           1.6396147           1.2583788
 Standard basis: def2TZVPP (5D, 7F)
 There are   363 symmetry adapted cartesian basis functions of A   symmetry.
 There are   318 symmetry adapted basis functions of A   symmetry.
   318 basis functions,   493 primitive gaussians,   363 cartesian basis functions
    28 alpha electrons       28 beta electrons
       nuclear repulsion energy       326.9033708225 Hartrees.
 NAtoms=   13 NActive=   13 NUniq=   13 SFac= 1.00D+00 NAtFMM=   60 NAOKFM=F Big=F
 Integral buffers will be    131072 words long.
 Raffenetti 2 integral format.
 Two-electron integral symmetry is turned on.
 Nuclear repulsion after empirical dispersion term =      326.9031503581 Hartrees.
 ------------------------------------------------------------------------------
 Polarizable Continuum Model (PCM)
 =================================
 Model                : PCM.
 Atomic radii         : SMD-Coulomb.
 Polarization charges : Total charges.
 Charge compensation  : None.
 Solution method      : On-the-fly selection.
 Cavity type          : VdW (van der Waals Surface) (Alpha=1.000).
 Cavity algorithm     : GePol (No added spheres)
                        Default sphere list used, NSphG=   13.
                        Lebedev-Laikov grids with approx.  5.0 points / Ang**2.
                        Smoothing algorithm: York/Karplus (Gamma=1.0000).
                        Polarization charges: spherical gaussians, with
                                              point-specific exponents (IZeta= 3).
                        Self-potential: point-specific (ISelfS= 7).
                        Self-field    : sphere-specific E.n sum rule (ISelfD= 2).
 1st derivatives      : Analytical E(r).r(x)/FMM algorithm (CHGder, D1EAlg=3).
                        Cavity 1st derivative terms included.
 Solvent              : Chloroform, Eps=   4.711300 Eps(inf)=   2.090627
 ------------------------------------------------------------------------------
 Spheres list:
 ISph  on   Nord     Re0    Alpha      Xe            Ye            Ze
    1   O      1    2.0240  1.000      2.738494      0.310623     -0.000008
    2   N      2    1.8900  1.000      1.940842     -0.515970      0.000020
    3   H      3    1.2000  1.000     -2.345948     -1.921934     -0.000001
    4   H      4    1.2000  1.000     -1.705696      2.315978      0.000026
    5   H      5    1.2000  1.000     -3.248654      0.380258     -0.000007
    6   C      6    1.8500  1.000      0.570599     -0.185105      0.000017
    7   C      7    1.8500  1.000     -2.178566      0.217348      0.000001
    8   C      8    1.8500  1.000      0.054533      1.116337     -0.000019
    9   C      9    1.8500  1.000     -0.303802     -1.272494     -0.000030
   10   C     10    1.8500  1.000     -1.674423     -1.074474      0.000022
   11   C     11    1.8500  1.000     -1.309793      1.309775     -0.000005
   12   H     12    1.2000  1.000      0.736695      1.953355      0.000024
   13   H     13    1.2000  1.000      0.118478     -2.269171     -0.000036
 ------------------------------------------------------------------------------
 ------------------------------------------------------------------------------
 Atomic radii for non-electrostatic terms: SMD-CDS.
 ------------------------------------------------------------------------------
 Nuclear repulsion after PCM non-electrostatic terms =      326.8999269423 Hartrees.
 One-electron integrals computed using PRISM.
   1 Symmetry operations used in ECPInt.
 ECPInt:  NShTT=    7021 NPrTT=   20291 LenC2=    6851 LenP2D=   16209.
 LDataN:  DoStor=T MaxTD1= 6 Len=  172
 NBasis=   318 RedAO= T EigKep=  9.56D-06  NBF=   318
 NBsUse=   318 1.00D-06 EigRej= -1.00D+00 NBFU=   318
 Initial guess from the checkpoint file:  "/gpfs/summit/scratch/jvalegre@colostate.edu/1580876/Gau-76680.chk"
 B after Tr=     0.000000    0.000000    0.000000
         Rot=    0.999929    0.000000    0.000000   -0.011918 Ang=   1.37 deg.
 ExpMin= 9.52D-02 ExpMax= 2.70D+04 ExpMxC= 9.22D+02 IAcc=2 IRadAn=         4 AccDes= 0.00D+00
 Harris functional with IExCor= 1009 and IRadAn=       4 diagonalized for initial guess.
 HarFok:  IExCor= 1009 AccDes= 0.00D+00 IRadAn=         4 IDoV= 1 UseB2=F ITyADJ=14
 ICtDFT=  3500011 ScaDFX=  1.000000  1.000000  1.000000  1.000000
 FoFCou: FMM=F IPFlag=           0 FMFlag=      100000 FMFlg1=           0
         NFxFlg=           0 DoJE=T BraDBF=F KetDBF=T FulRan=T
         wScrn=  0.000000 ICntrl=       500 IOpCl=  0 I1Cent=   200000004 NGrid=           0
         NMat0=    1 NMatS0=      1 NMatT0=    0 NMatD0=    1 NMtDS0=    0 NMtDT0=    0
 Petite list used in FoFCou.
 Requested convergence on RMS density matrix=1.00D-08 within 128 cycles.
 Requested convergence on MAX density matrix=1.00D-06.
 Requested convergence on             energy=1.00D-06.
 No special actions if energy rises.
 Inv3:  Mode=1 IEnd=     4334412.
 Iteration    1 A*A^-1 deviation from unit magnitude is 4.33D-15 for   1189.
 Iteration    1 A*A^-1 deviation from orthogonality  is 1.67D-15 for    753    258.
 Iteration    1 A^-1*A deviation from unit magnitude is 4.11D-15 for   1189.
 Iteration    1 A^-1*A deviation from orthogonality  is 1.16D-15 for    876    347.
 Error on total polarization charges =  0.02639
 SCF Done:  E(RM062X) =  -361.529261867     A.U. after   13 cycles
            NFock= 13  Conv=0.85D-08     -V/T= 2.0039
 SMD-CDS (non-electrostatic) energy       (kcal/mol) =      -2.02
 (included in total energy above)
   1 Symmetry operations used in ECPInt.
 ECPInt:  NShTT=    7021 NPrTT=   20291 LenC2=    6851 LenP2D=   16209.
 LDataN:  DoStor=T MaxTD1= 7 Len=  274
 D1PCM: PCM CHGder 1st derivatives, ID1Alg=3 FixD1E=F DoIter=F DoCFld=F I1PDM=0.
 Calling FoFJK, ICntrl=      2127 FMM=F ISym2X=0 I1Cent= 0 IOpClX= 0 NMat=1 NMatS=1 NMatT=0.
 ***** Axes restored to original set *****
 -------------------------------------------------------------------
 Center     Atomic                   Forces (Hartrees/Bohr)
 Number     Number              X              Y              Z
 -------------------------------------------------------------------
      1        8           0.052070976   -0.081777558   -0.001632630
      2        7          -0.036391925    0.092921047    0.001582580
      3        1           0.000185561    0.000164180   -0.000001565
      4        1          -0.000638765   -0.000095361    0.000008421
      5        1           0.000302640   -0.000197153   -0.000007255
      6        6          -0.031105435   -0.009843356    0.000261474
      7        6           0.001329968   -0.001391414   -0.000035567
      8        6           0.008961800    0.002682284   -0.000084022
      9        6           0.008081772    0.000140280   -0.000106459
     10        6          -0.000918670   -0.000552966    0.000014577
     11        6          -0.003175509   -0.000543414    0.000031965
     12        1           0.001032891   -0.001915584   -0.000033933
     13        1           0.000264697    0.000409016    0.000002416
 -------------------------------------------------------------------
 Cartesian Forces:  Max     0.092921047 RMS     0.022983276

 GradGradGradGradGradGradGradGradGradGradGradGradGradGradGradGradGradGrad
 Berny optimization.
 Using GEDIIS/GDIIS optimizer.
 FormGI is forming the generalized inverse of G from B-inverse, IUseBI=4.
 Internal  Forces:  Max     0.096051446 RMS     0.013497334
 Search for a local minimum.
 Step number   3 out of a maximum of  100
 All quantities printed in internal units (Hartrees-Bohrs-Radians)
 Mixed Optimization -- RFO/linear search
 Update second derivatives using D2CorX and points    1    2    3
 DE= -4.77D-03 DEPred=-1.94D-02 R= 2.46D-01
 Trust test= 2.46D-01 RLast= 3.12D-01 DXMaxT set to 5.05D-01
 ITU=  0  1  0
 Use linear search instead of GDIIS.
     Eigenvalues ---    0.02011   0.02037   0.02041   0.02053   0.02085
     Eigenvalues ---    0.02132   0.02145   0.02178   0.02208   0.02225
     Eigenvalues ---    0.15985   0.16000   0.16000   0.16001   0.16012
     Eigenvalues ---    0.22004   0.22009   0.23224   0.25022   0.29995
     Eigenvalues ---    0.34936   0.35142   0.35690   0.35699   0.35755
     Eigenvalues ---    0.40825   0.41273   0.44685   0.45316   0.46659
     Eigenvalues ---    0.46915   0.50192   0.82018
 RFO step:  Lambda=-2.45904175D-03 EMin= 2.01133619D-02
 Quartic linear search produced a step of -0.38334.
 Iteration  1 RMS(Cart)=  0.02193261 RMS(Int)=  0.00055926
 Iteration  2 RMS(Cart)=  0.00109857 RMS(Int)=  0.00001372
 Iteration  3 RMS(Cart)=  0.00000181 RMS(Int)=  0.00001359
 Iteration  4 RMS(Cart)=  0.00000000 RMS(Int)=  0.00001359
 Variable       Old X    -DE/DX   Delta X   Delta X   Delta X     New X
                                 (Linear)    (Quad)   (Total)
    R1        2.17072   0.09605   0.10156   0.00208   0.10365   2.27437
    R2        2.66380   0.01737  -0.03381   0.05413   0.02032   2.68412
    R3        2.04329   0.00003  -0.00009  -0.00016  -0.00026   2.04304
    R4        2.04334   0.00036  -0.00008   0.00040   0.00031   2.04365
    R5        2.04547  -0.00028  -0.00036  -0.00008  -0.00044   2.04503
    R6        2.64567  -0.00393   0.00554  -0.01112  -0.00556   2.64011
    R7        2.63682  -0.00589   0.00735  -0.01612  -0.00875   2.62807
    R8        2.62050   0.00192   0.00362  -0.00105   0.00255   2.62305
    R9        2.63762  -0.00059  -0.00021   0.00045   0.00022   2.63783
   R10        2.60399   0.00209   0.00213  -0.00309  -0.00096   2.60303
   R11        2.04051   0.00216   0.00293  -0.00087   0.00205   2.04256
   R12        2.61699   0.00102  -0.00080  -0.00107  -0.00186   2.61513
   R13        2.04552   0.00048   0.00163  -0.00162   0.00001   2.04553
    A1        2.10145  -0.02882  -0.04990  -0.00983  -0.05972   2.04173
    A2        2.18524  -0.00701   0.00169  -0.02154  -0.01987   2.16537
    A3        2.01112  -0.00018   0.00393  -0.01178  -0.00788   2.00324
    A4        2.08682   0.00719  -0.00562   0.03332   0.02774   2.11457
    A5        2.09396  -0.00042  -0.00104  -0.00245  -0.00347   2.09049
    A6        2.09157  -0.00087  -0.00067  -0.00398  -0.00463   2.08694
    A7        2.09766   0.00129   0.00171   0.00643   0.00810   2.10576
    A8        2.08916  -0.00250   0.00521  -0.02029  -0.01506   2.07409
    A9        2.08026   0.00153  -0.00251   0.01224   0.00972   2.08998
   A10        2.11377   0.00097  -0.00270   0.00805   0.00534   2.11911
   A11        2.10457  -0.00400   0.00104  -0.01796  -0.01689   2.08768
   A12        2.06358   0.00194   0.00356   0.00240   0.00595   2.06953
   A13        2.11504   0.00206  -0.00460   0.01556   0.01095   2.12598
   A14        2.09943   0.00028   0.00441  -0.00639  -0.00197   2.09746
   A15        2.09740  -0.00022  -0.00535   0.00810   0.00276   2.10016
   A16        2.08636  -0.00006   0.00094  -0.00171  -0.00079   2.08557
   A17        2.09488   0.00041   0.00691  -0.01192  -0.00500   2.08989
   A18        2.08650   0.00151  -0.00363   0.01171   0.00809   2.09459
   A19        2.10180  -0.00192  -0.00328   0.00021  -0.00310   2.09871
    D1        0.00000  -0.00000  -0.00000  -0.00000  -0.00001  -0.00000
    D2        3.14153   0.00000   0.00001  -0.00000   0.00001   3.14154
    D3       -3.14158  -0.00000  -0.00000  -0.00001  -0.00002   3.14159
    D4       -0.00008   0.00000   0.00001   0.00002   0.00002  -0.00005
    D5        0.00008  -0.00000  -0.00001  -0.00002  -0.00003   0.00005
    D6        3.14159   0.00000  -0.00000   0.00001   0.00001  -3.14159
    D7        3.14154   0.00000   0.00001   0.00003   0.00003   3.14158
    D8        0.00003  -0.00000  -0.00000   0.00001   0.00000   0.00003
    D9       -0.00011   0.00000   0.00001   0.00003   0.00005  -0.00007
   D10        3.14156   0.00000   0.00000   0.00001   0.00002   3.14157
   D11        0.00003  -0.00000  -0.00000  -0.00002  -0.00002   0.00001
   D12        3.14154   0.00000   0.00000   0.00002   0.00002   3.14157
   D13       -3.14156  -0.00000  -0.00000  -0.00001  -0.00001  -3.14158
   D14       -0.00006   0.00000   0.00001   0.00002   0.00003  -0.00003
   D15        0.00005  -0.00000  -0.00000  -0.00002  -0.00002   0.00002
   D16       -3.14157  -0.00000  -0.00000  -0.00001  -0.00001  -3.14158
   D17       -3.14154  -0.00000  -0.00000  -0.00002  -0.00003  -3.14157
   D18        0.00002  -0.00000  -0.00000  -0.00001  -0.00001   0.00001
   D19        3.14153   0.00000   0.00001   0.00002   0.00003   3.14156
   D20       -0.00004   0.00000   0.00000   0.00001   0.00001  -0.00002
   D21        0.00003  -0.00000  -0.00000  -0.00001  -0.00002   0.00001
   D22       -3.14154  -0.00000  -0.00000  -0.00002  -0.00003  -3.14157
   D23       -3.14158  -0.00000  -0.00000   0.00000  -0.00000  -3.14158
   D24        0.00010  -0.00000  -0.00001  -0.00004  -0.00005   0.00005
   D25       -0.00006   0.00000   0.00001   0.00002   0.00003  -0.00003
   D26       -3.14157  -0.00000  -0.00000  -0.00002  -0.00002  -3.14159
         Item               Value     Threshold  Converged?
 Maximum Force            0.096051     0.000450     NO 
 RMS     Force            0.013497     0.000300     NO 
 Maximum Displacement     0.133814     0.001800     NO 
 RMS     Displacement     0.022606     0.001200     NO 
 Predicted change in Energy=-7.283815D-03
 GradGradGradGradGradGradGradGradGradGradGradGradGradGradGradGradGradGrad

                          Input orientation:                          
 ---------------------------------------------------------------------
 Center     Atomic      Atomic             Coordinates (Angstroms)
 Number     Number       Type             X           Y           Z
 ---------------------------------------------------------------------
      1          8           0        3.195972   -0.557627   -0.045067
      2          7           0        2.473006    0.404360   -0.024550
      3          1           0       -1.722983    2.059336    0.046116
      4          1           0       -1.331811   -2.207091   -0.011387
      5          1           0       -2.746746   -0.187270    0.030552
      6          6           0        1.074054    0.158975   -0.010869
      7          6           0       -1.669414   -0.085557    0.018924
      8          6           0        0.503043   -1.116059   -0.019799
      9          6           0        0.282043    1.301889    0.012779
     10          6           0       -1.096238    1.178603    0.027709
     11          6           0       -0.869669   -1.229379   -0.004795
     12          1           0        1.140255   -1.988935   -0.038244
     13          1           0        0.768487    2.268856    0.018931
 ---------------------------------------------------------------------
                    Distance matrix (angstroms):
                    1          2          3          4          5
     1  O    0.000000
     2  N    1.203544   0.000000
     3  H    5.572515   4.511127   0.000000
     4  H    4.818992   4.614812   4.284708   0.000000
     5  H    5.954727   5.253463   2.468921   2.466470   0.000000
     6  C    2.239915   1.420376   3.382017   3.374383   3.836680
     7  C    4.888652   4.171517   2.145734   2.148442   1.082185
     8  C    2.750337   2.488464   3.878488   2.134739   3.380283
     9  C    3.457184   2.367968   2.143588   3.862389   3.375126
    10  C    4.630643   3.652628   1.081129   3.394105   2.142381
    11  C    4.120959   3.720614   3.397997   1.081453   2.147245
    12  H    2.504927   2.739392   4.959208   2.481819   4.284799
    13  H    3.726364   2.526584   2.500412   4.944318   4.288304
                    6          7          8          9         10
     6  C    0.000000
     7  C    2.754506   0.000000
     8  C    1.397085   2.404788   0.000000
     9  C    1.390717   2.394416   2.428245   0.000000
    10  C    2.398187   1.388059   2.797397   1.383865   0.000000
    11  C    2.388644   1.395881   1.377463   2.781019   2.418836
    12  H    2.149104   3.394165   1.080875   3.401272   3.878085
    13  H    2.132102   3.389192   3.395529   1.082447   2.160076
                   11         12         13
    11  C    0.000000
    12  H    2.148915   0.000000
    13  H    3.862870   4.274373   0.000000
 Stoichiometry    C6H5NO
[...]
 ! A1    A(1,2,6)              115.5448         -DE/DX =    0.0                 !
 ! A2    A(2,6,8)              123.2491         -DE/DX =    0.0                 !
 ! A3    A(2,6,9)              115.0503         -DE/DX =    0.0001              !
 ! A4    A(8,6,9)              121.7006         -DE/DX =   -0.0001              !
 ! A5    A(5,7,10)             119.729          -DE/DX =    0.0                 !
 ! A6    A(5,7,11)             119.5039         -DE/DX =    0.0                 !
 ! A7    A(10,7,11)            120.7671         -DE/DX =    0.0                 !
 ! A8    A(6,8,11)             118.6657         -DE/DX =    0.0001              !
 ! A9    A(6,8,12)             119.7273         -DE/DX =    0.0                 !
 ! A10   A(11,8,12)            121.607          -DE/DX =    0.0                 !
 ! A11   A(6,9,10)             119.2584         -DE/DX =    0.0                 !
 ! A12   A(6,9,13)             118.931          -DE/DX =    0.0                 !
 ! A13   A(10,9,13)            121.8106         -DE/DX =   -0.0001              !
 ! A14   A(3,10,7)             120.2424         -DE/DX =    0.0                 !
 ! A15   A(3,10,9)             120.2462         -DE/DX =    0.0                 !
 ! A16   A(7,10,9)             119.5115         -DE/DX =    0.0                 !
 ! A17   A(4,11,7)             119.8281         -DE/DX =    0.0001              !
 ! A18   A(4,11,8)             120.0752         -DE/DX =   -0.0001              !
 ! A19   A(7,11,8)             120.0967         -DE/DX =    0.0                 !
 ! D1    D(1,2,6,8)             -0.0004         -DE/DX =    0.0                 !
 ! D2    D(1,2,6,9)            179.9995         -DE/DX =    0.0                 !
 ! D3    D(2,6,8,11)          -179.9998         -DE/DX =    0.0                 !
 ! D4    D(2,6,8,12)            -0.0001         -DE/DX =    0.0                 !
 ! D5    D(9,6,8,11)             0.0003         -DE/DX =    0.0                 !
 ! D6    D(9,6,8,12)           180.0001         -DE/DX =    0.0                 !
 ! D7    D(2,6,9,10)           179.9998         -DE/DX =    0.0                 !
 ! D8    D(2,6,9,13)             0.0001         -DE/DX =    0.0                 !
 ! D9    D(8,6,9,10)            -0.0004         -DE/DX =    0.0                 !
 ! D10   D(8,6,9,13)           179.9999         -DE/DX =    0.0                 !
 ! D11   D(5,7,10,3)             0.0            -DE/DX =    0.0                 !
 ! D12   D(5,7,10,9)          -180.0001         -DE/DX =    0.0                 !
 ! D13   D(11,7,10,3)         -180.0            -DE/DX =    0.0                 !
 ! D14   D(11,7,10,9)           -0.0001         -DE/DX =    0.0                 !
 ! D15   D(5,7,11,4)             0.0001         -DE/DX =    0.0                 !
 ! D16   D(5,7,11,8)           180.0            -DE/DX =    0.0                 !
 ! D17   D(10,7,11,4)         -179.9999         -DE/DX =    0.0                 !
 ! D18   D(10,7,11,8)            0.0            -DE/DX =    0.0                 !
 ! D19   D(6,8,11,4)           179.9998         -DE/DX =    0.0                 !
 ! D20   D(6,8,11,7)            -0.0001         -DE/DX =    0.0                 !
 ! D21   D(12,8,11,4)            0.0            -DE/DX =    0.0                 !
 ! D22   D(12,8,11,7)          180.0001         -DE/DX =    0.0                 !
 ! D23   D(6,9,10,3)           180.0002         -DE/DX =    0.0                 !
 ! D24   D(6,9,10,7)             0.0003         -DE/DX =    0.0                 !
 ! D25   D(13,9,10,3)           -0.0002         -DE/DX =    0.0                 !
 ! D26   D(13,9,10,7)          179.9999         -DE/DX =    0.0                 !
 --------------------------------------------------------------------------------
 GradGradGradGradGradGradGradGradGradGradGradGradGradGradGradGradGradGrad


 ----------------------------------------------------------------------

 Electric dipole moment (input orientation):
 (Debye = 10**-18 statcoulomb cm , SI units = C m)
                  (au)            (Debye)         (10**-30 SI)
   Tot        0.176276D+01      0.448050D+01      0.149453D+02
   x         -0.176255D+01     -0.447995D+01     -0.149435D+02
   y          0.175841D-01      0.446943D-01      0.149084D+00
   z          0.212885D-01      0.541101D-01      0.180492D+00

 Dipole polarizability, Alpha (input orientation).
 (esu units = cm**3 , SI units = C**2 m**2 J**-1)
 Alpha(0;0):
               (au)            (10**-24 esu)      (10**-40 SI)
   iso        0.103299D+03      0.153074D+02      0.170318D+02
   aniso      0.800964D+02      0.118691D+02      0.132061D+02
   xx         0.144865D+03      0.214668D+02      0.238851D+02
   yx        -0.564298D+01     -0.836204D+00     -0.930402D+00
   yy         0.110958D+03      0.164423D+02      0.182945D+02
   zx        -0.115555D+01     -0.171235D+00     -0.190524D+00
   zy         0.771982D+00      0.114396D+00      0.127283D+00
   zz         0.540751D+02      0.801310D+01      0.891577D+01

 ----------------------------------------------------------------------

     8         -0.02302073         -1.03724582         -6.01141347
     7          0.01794429          0.80534483         -4.69088804
     1          0.08582672          3.85727710          3.30420911
     1         -0.09330244         -4.19729024          2.46756609
     1         -0.00912039         -0.41213038          5.18526168
     6          0.00738712          0.33034771         -2.01723411
     6         -0.00429978         -0.19537192          3.15176340
     6         -0.04641655         -2.08917428         -0.98133555
     6          0.05508712          2.47490616         -0.50814637
     6          0.04912431          2.20692292          2.09981218
     6         -0.05197294         -2.33901062          1.61726885
     1         -0.08265259         -3.71838021         -2.21379949
     1          0.09598457          4.31398806         -1.40305555

 Electric dipole moment (dipole orientation):
 (Debye = 10**-18 statcoulomb cm , SI units = C m)
                  (au)            (Debye)         (10**-30 SI)
   Tot        0.176276D+01      0.448050D+01      0.149453D+02
   x          0.000000D+00      0.000000D+00      0.000000D+00
   y          0.000000D+00      0.000000D+00      0.000000D+00
   z          0.176276D+01      0.448050D+01      0.149453D+02

 Dipole polarizability, Alpha (dipole orientation).
 (esu units = cm**3 , SI units = C**2 m**2 J**-1)
 Alpha(0;0):
               (au)            (10**-24 esu)      (10**-40 SI)
   iso        0.103299D+03      0.153074D+02      0.170318D+02
   aniso      0.800964D+02      0.118691D+02      0.132061D+02
   xx         0.540798D+02      0.801379D+01      0.891655D+01
   yx         0.126267D+01      0.187108D+00      0.208185D+00
   yy         0.110829D+03      0.164232D+02      0.182733D+02
   zx         0.118154D+00      0.175086D-01      0.194810D-01
   zy         0.531150D+01      0.787083D+00      0.875748D+00
   zz         0.144989D+03      0.214852D+02      0.239055D+02

 ----------------------------------------------------------------------
 1\1\GINC-SHAS0303\Freq\RM062X\def2TZVPP\C6H5N1O1\JVALEGRE@COLOSTATE.ED
 U\31-Dec-2018\0\\#N Geom=AllCheck Guess=TCheck SCRF=Check GenChk RM062
 X/def2TZVPP Freq\\aminox_subs_conf713\\0,1\O,3.1751551118,-0.580685395
 9,-0.0451227737\N,2.4863220514,0.4014600133,-0.0247349988\H,-1.7276287
 023,2.0588719733,0.0461669865\H,-1.3281098432,-2.2083530008,-0.0114415
 893\H,-2.7457937272,-0.1907446773,0.0304875939\C,1.0691137355,0.164185
 4424,-0.0107268622\C,-1.6686833292,-0.0867614084,0.0188984258\C,0.5080
 424525,-1.1108569652,-0.0198029275\C,0.2821282205,1.3071401024,0.01283
 55385\C,-1.0992106678,1.1790789601,0.0277619971\C,-0.8682497833,-1.229
 3633839,-0.0048169975\H,1.151424379,-1.9796056343,-0.0382521574\H,0.76
 54901023,2.2757339743,0.0190477647\\Version=ES64L-G16RevA.03\State=1-A
 \HF=-361.5357571\RMSD=1.002e-09\RMSF=5.020e-05\ZeroPoint=0.0982849\The
 rmal=0.1044451\Dipole=-1.7625482,0.0175841,0.0212885\DipoleDeriv=-1.40
 49952,0.1433374,0.017022,1.1917972,-0.5185471,-0.0190614,0.0299983,-0.
 0065257,-0.1300602,2.2429203,-0.198561,-0.031534,-0.7164965,0.2558764,
 0.014071,-0.0379484,0.0078788,-0.1885221,0.0418486,0.0676424,0.0023457
 ,0.0779402,-0.0007934,-0.0030218,0.0024732,-0.0028994,0.1679534,0.0556
 193,-0.0561263,0.0006002,-0.0690687,-0.0328877,-0.0016113,0.00044,-0.0
 017665,0.163923,-0.0568066,-0.0137008,0.0024247,-0.0145461,0.1017159,-
 0.0005503,0.0024143,-0.0005604,0.1601767,-1.1996937,0.0334937,0.016147
 7,-0.4372655,0.1103694,0.0051566,0.010325,-0.0004734,0.1161055,0.15336
 02,-0.0007706,-0.0030761,-0.0934552,0.1841817,0.0046753,-0.0042244,0.0
 035677,-0.1031012,0.2077612,-0.160302,-0.0053446,0.2610014,-0.1063239,
 -0.0035296,-0.0001301,0.0015085,-0.0732422,0.2624304,0.2213899,-0.0015
 057,-0.1737165,0.0021884,0.0032522,-0.0063939,-0.0014719,-0.0926765,-0
 .1373814,-0.300286,-0.0042271,-0.23199,-0.0967458,0.0038043,-0.0033826
 ,0.0046207,-0.1799068,-0.3478602,0.2750102,0.0054885,0.2205104,0.01748
 75,-0.0002706,0.0048132,-0.0009219,-0.1736501,0.1007268,0.0591228,0.00
 1471,0.0221696,0.0590411,-0.0015462,0.0010141,-0.0019886,0.1624814,0.0
 820702,-0.0702497,0.0001878,-0.0368803,0.0244374,-0.0013681,0.0006014,
 -0.0009679,0.1705189\Polar=144.8652788,-5.642982,110.9579011,-1.15555,
 0.7719818,54.0750595\Quadrupole=-2.5475568,4.2264899,-1.6789331,0.0248
 314,0.010688,0.0728438\PG=C01 [X(C6H5N1O1)]\NImag=0\\0.36272349,-0.354
 71668,0.55349894,-0.00867830,0.01104054,0.00419355,-0.26003811,0.29447
 279,0.00668641,0.45537410,0.28903621,-0.57929250,-0.01055491,-0.223977
 74,0.72673272,0.00661908,-0.01061991,-0.00573700,-0.00793662,0.0113812
 2,0.02357139,-0.00127958,0.00055618,0.00001822,0.00035887,0.00131621,0
 .00001734,0.16214862,0.00001279,-0.00013774,0.00000224,-0.00066568,0.0
 0038186,0.00000717,-0.14562848,0.26160925,0.00001150,-0.00000426,-0.00
 033106,-0.00000719,-0.00001652,0.00044595,-0.00341420,0.00464100,0.027
 46842,0.00004778,0.00086159,0.00001754,-0.00026780,-0.00272907,-0.0000
 4259,0.00042129,0.00089075,0.00000580,0.11346189,-0.00030725,0.0002967
 4,-0.00000038,0.00067644,-0.00014373,0.00000258,-0.00065561,-0.0008901
 8,-0.00000298,0.11782075,0.30990707,0.00000308,-0.00001434,0.00062346,
 -0.00000045,0.00004328,-0.00100504,-0.00001335,-0.00002147,-0.00001622
 ,0.00042857,0.00209101,0.02729830,-0.00014215,0.00002534,0.00000714,-0
 .00014214,-0.00007546,-0.00001966,0.00070696,-0.00011035,-0.00006207,0
 .00081904,0.00003906,-0.00005677,0.36120416,-0.00001374,0.00023163,-0.
 00000228,0.00011750,0.00008242,0.00002077,0.00066239,0.00118816,0.0000
 6090,-0.00072655,0.00107765,0.00007118,0.02905745,0.06116907,0.0000066
 6,-0.00000275,0.00042905,-0.00001729,0.00002308,-0.00170836,-0.0000524
 9,0.00007014,-0.00436913,-0.00006624,0.00006204,-0.00396857,-0.0036287
 2,0.00006858,0.02761538,-0.09545653,0.07108719,0.00200274,-0.12893025,
 -0.07311927,0.00033611,-0.00469909,-0.00101973,0.00013560,-0.00546623,
 -0.00020438,0.00016636,0.00081521,0.00013206,-0.00001108,0.58739281,0.
 06652764,0.02132691,-0.00051273,-0.06037179,-0.14920486,-0.00081354,-0
 .00266928,0.00134459,-0.00004679,0.00088543,0.00164941,-0.00009737,0.0
 0025193,-0.00161492,-0.00001992,-0.03768340,0.75028524,0.00194636,-0.0
 0056732,-0.00154901,0.00049392,-0.00066093,-0.02515425,0.00011518,-0.0
 0006649,0.00769809,0.00017982,-0.00008436,0.00865609,-0.00000960,-0.00
 001849,-0.00024884,-0.00589603,0.00808881,0.13347805,-0.00140991,-0.00
 063480,0.00000365,0.00118928,0.00184916,0.00001178,0.01180584,0.018026
 38,0.00013431,0.01158131,-0.01267826,-0.00024454,-0.34298705,-0.027091
 89,0.00325001,-0.00308896,0.00671519,0.00000006,0.75113410,0.00108734,
 0.00268949,0.00002588,0.00446310,-0.00676790,-0.00014048,-0.01275654,-
 0.01740297,-0.00011706,0.01822467,-0.01746560,-0.00048679,-0.02706059,
 -0.06263212,0.00008131,0.00402264,-0.07556876,-0.00085936,0.01495589,0
 .66986540,0.00002495,0.00004645,-0.00044766,0.00004418,-0.00010914,0.0
 0025891,-0.00024680,-0.00048510,0.00436916,0.00013808,-0.00011739,0.00
 425343,0.00325040,0.00008168,-0.04310648,-0.00003328,-0.00089162,-0.01
 004723,-0.00699570,0.00625175,0.15062295,0.00724814,-0.00971364,-0.000
 22713,-0.04386036,-0.03088202,0.00024518,-0.00060852,-0.00098681,-0.00
 001584,-0.00924930,0.00121481,0.00018298,-0.00028169,0.00314304,0.0001
 2550,-0.13690447,-0.02776341,0.00040823,-0.03675064,0.07903256,0.00151
 850,0.72357945,0.00767915,-0.01382976,-0.00024208,-0.03129990,0.015397
 33,0.00045829,-0.00073268,-0.00012096,0.00001852,-0.02923504,0.0025023
 8,0.00032109,0.00315913,-0.00387733,-0.00017194,-0.07894300,-0.2981087
 9,-0.00183044,0.02364616,0.05173624,0.00025361,-0.04817921,0.71284375,
 -0.00001182,-0.00003419,-0.00168744,0.00023989,0.00045328,0.00860920,-
 0.00001268,0.00002157,-0.00090997,-0.00019405,-0.00004293,0.00479866,0
 .00012570,-0.00017176,0.00695734,-0.00022540,-0.00244228,-0.07404036,0
 .00083284,-0.00040865,0.00840676,-0.00746522,0.00755611,0.14925593,-0.
 00179639,-0.00613545,0.00000571,-0.04244057,0.03709246,0.00093736,-0.0
 1326858,-0.00421069,0.00015553,-0.00095797,0.00092651,0.00001216,0.000
 74892,-0.00230527,0.00005587,-0.17426538,0.06346564,0.00202060,-0.0148
 4761,-0.09409643,-0.00088595,0.06621019,0.03650465,-0.00021295,0.70418
 187,-0.01399490,0.01069757,0.00023740,0.01961574,0.00255911,-0.0001725
 7,0.02672916,0.00722439,-0.00028086,0.00062661,0.00024219,0.00000665,-
 0.00223724,-0.00491046,-0.00013072,0.12394894,-0.28825625,-0.00417171,
 -0.03707294,0.02887356,0.00069541,-0.01270892,-0.05425462,-0.00065113,
 0.03316694,0.74076967,-0.00009163,0.00014354,0.00503286,0.00072096,-0.
 00038163,-0.00245452,0.00053861,0.00008898,0.00409745,0.00000845,0.000
 00307,-0.00089996,0.00005669,-0.00012989,0.00780506,0.00276935,-0.0034
 4864,-0.07110711,-0.00017984,0.00137728,0.00851729,-0.00082228,-0.0012
 3933,0.01059548,-0.00619488,0.00689718,0.15183915,-0.00536090,0.001334
 23,0.00005872,0.00489653,0.00571441,0.00010898,-0.15666720,0.13642280,
 0.00307786,-0.00163516,0.00370743,0.00014788,-0.00746165,-0.02912603,-
 0.00020231,-0.03968768,0.07182283,0.00149205,-0.16950320,-0.03696346,0
 .00074600,-0.05197464,-0.03894071,0.00006028,-0.34171866,-0.05290627,0
 .00258716,0.70048873,-0.00063931,0.00167806,0.00005106,0.00758001,-0.0
 0364788,-0.00023592,0.13632235,-0.25019161,-0.00422599,0.00331296,-0.0
 0239973,-0.00015469,0.00141966,0.00209070,-0.00006268,0.01612029,0.046
 67231,0.00025202,-0.11574854,-0.31057008,-0.00160912,-0.03496349,-0.02
 611163,0.00017662,0.02267630,-0.13498801,-0.00106966,-0.04710919,0.730
 45139,0.00003434,0.00002744,-0.00182869,0.00013208,-0.00021366,0.00808
 516,0.00307659,-0.00422715,-0.04057897,0.00014300,-0.00015942,0.006892
 32,0.00017588,0.00030249,0.00578231,0.00080256,-0.00041383,0.01073103,
 -0.00022952,-0.00255101,-0.06885546,0.00010944,0.00022409,-0.00661037,
 0.00352283,-0.00016603,-0.07053428,-0.00724437,0.00783290,0.14345502,-
 0.00220606,0.00679848,0.00011186,0.01477732,-0.00864909,-0.00022499,-0
 .00040457,-0.00332435,0.00005352,-0.11040565,-0.11015152,-0.00053157,-
 0.01230593,0.02633761,0.00053849,-0.02699255,-0.08850185,-0.00065103,-
 0.19677886,0.05032845,0.00214684,-0.35799148,0.01721409,0.00367295,-0.
 06601439,0.03034079,0.00107587,0.07592237,0.03978110,-0.00030844,0.695
 01638,0.00485643,-0.00020086,-0.00006193,-0.01066035,-0.00673142,-0.00
 001674,-0.00292925,-0.00351493,-0.00010153,-0.11022786,-0.29531310,-0.
 00183396,-0.00433737,0.00684756,0.00006898,-0.02928004,0.02889618,0.00
 058148,0.12922088,-0.26525169,-0.00397061,-0.05987200,-0.13478352,-0.0
 0010387,0.02855905,-0.01411745,-0.00042403,-0.01482749,-0.05700094,-0.
 00063891,0.04358588,0.73268007,0.00008783,-0.00008510,0.00010611,-0.00
 024978,-0.00004094,0.00492683,0.00005839,-0.00009680,0.00751158,-0.000
 53251,-0.00183482,-0.04079608,0.00015872,-0.00029771,0.00545815,0.0000
 8213,0.00128963,0.01021346,0.00312358,-0.00302754,-0.06939242,0.002718
 54,-0.00102557,-0.06862665,0.00105374,-0.00044527,-0.00746703,-0.00098
 456,-0.00129172,0.00891686,-0.00605079,0.00677104,0.14388271,-0.002718
 17,-0.00251200,0.00000761,-0.00137432,0.00290402,-0.00000329,0.0000703
 5,0.00011285,-0.00001208,0.00154042,-0.00028184,-0.00008030,-0.0005722
 3,0.00118568,0.00001703,0.01510940,-0.00767354,-0.00020392,-0.00487121
 ,-0.00162042,0.00013466,-0.15743892,0.13613498,0.00306063,-0.00113672,
 -0.00290801,0.00004695,-0.00069094,-0.00075734,-0.00001295,-0.01162909
 ,0.02534545,0.00052717,0.16335421,-0.00002317,0.00298549,0.00003080,0.
 00336252,-0.00093518,0.00000587,0.00011963,0.00002592,0.00001198,0.000
 39763,0.00055773,0.00006262,-0.00032467,0.00026734,0.00001184,0.017271
 43,-0.01854380,-0.00051043,-0.00163640,0.00093900,-0.00006873,0.137734
 97,-0.24873752,-0.00420113,-0.00380471,-0.00346877,-0.00006926,-0.0005
 4738,0.00023199,0.00002167,-0.00436116,0.00810425,0.00007552,-0.149107
 68,0.25938400,0.00003840,0.00006055,0.00051989,0.00000237,0.00001136,-
 0.00465492,-0.00001200,0.00001206,-0.00105683,-0.00007187,0.00007075,-
 0.00488183,-0.00000167,-0.00000622,-0.00037570,0.00010498,-0.00021212,
 0.00599696,0.00013445,-0.00006894,0.00806784,0.00308049,-0.00418212,-0
 .04252536,0.00003584,-0.00007997,0.00579961,-0.00001033,0.00002418,-0.
 00098956,0.00015930,-0.00027962,0.00620982,-0.00347371,0.00465718,0.02
 733363,0.00038839,-0.00142322,-0.00001416,0.00045747,0.00152019,-0.000
 04869,0.00141561,0.00048053,-0.00006274,0.00011037,-0.00010614,-0.0000
 1405,-0.00040145,-0.00137228,-0.00001542,0.01217374,0.01499461,0.00010
 438,-0.00547308,0.00038279,0.00015811,-0.00197776,0.00299240,0.0001298
 1,-0.11469469,-0.11259989,-0.00051541,-0.00660759,-0.02799480,-0.00020
 143,-0.00098748,0.00056669,0.00000754,0.00035724,0.00091898,0.00001376
 ,0.11523924,0.00049548,0.00005604,-0.00001360,-0.00331264,0.00157002,0
 .00012325,-0.00033405,0.00048422,0.00006359,-0.00010186,-0.00002083,0.
 00001278,0.00019312,0.00008030,0.00000203,-0.01233273,-0.01887726,-0.0
 0015279,0.00044918,0.00155543,-0.00007718,0.00394411,-0.00265557,-0.00
 015162,-0.11183899,-0.29037092,-0.00174759,0.00141884,0.00378543,-0.00
 003858,0.00060157,0.00038587,0.00000927,-0.00082214,-0.00081045,-0.000
 00710,0.12164013,0.30481771,0.00000955,0.00000936,0.00067593,-0.000108
 47,0.00006548,-0.00518335,-0.00007282,0.00005386,-0.00432847,-0.000014
 00,0.00001283,-0.00095455,0.00000396,0.00002075,-0.00027021,-0.0002340
 3,-0.00047960,0.00537312,0.00015891,-0.00007637,0.00735289,0.00014161,
 -0.00014024,0.00577679,-0.00050588,-0.00173837,-0.04122398,0.00016265,
 0.00031301,0.00553464,0.00000799,0.00000969,-0.00094335,-0.00000780,-0
 .00002792,0.00055647,0.00045832,0.00197753,0.02763408\\0.00006269,-0.0
 0004715,-0.00000125,-0.00014197,0.00005485,0.00000224,-0.00002423,-0.0
 0002936,-0.00000009,-0.00005117,0.00002024,0.00000077,-0.00000209,-0.0
 0002531,-0.00000024,-0.00000913,0.00010162,0.00000080,0.00001309,0.000
 06577,0.00000076,0.00001025,-0.00014597,-0.00000150,-0.00000559,0.0000
 6124,0.00000156,0.00000216,-0.00000589,-0.00000051,0.00012304,-0.00006
 167,-0.00000231,-0.00001652,0.00004354,0.00000069,0.00003948,-0.000031
 91,-0.00000092\\\@


 CHINESE FORTUNE COOKIE OF JAN 1 1967 SAY....
 ALL THINGS ARE DIFFICULT BEFORE THEY ARE EASY.
 WE LEARN SO LITTLE AND FORGET SO MUCH.
 YOU WILL OVERCOME OBSTACLES TO ACHIEVE SUCCESS.
 AH SO.
 Job cpu time:       0 days  2 hours  1 minutes 19.4 seconds.
 Elapsed time:       0 days  0 hours  5 minutes  4.5 seconds.
 File lengths (MBytes):  RWF=    768 Int=      0 D2E=      0 Chk=     24 Scr=     16
 Normal termination of Gaussian 16 at Mon Dec 31 22:40:08 2018.
