 Entering Gaussian System, Link 0=/projects/jvalegre@colostate.edu/g16/g16
 Initial command:
 /projects/jvalegre@colostate.edu/g16/l1.exe "/gpfs/summit/scratch/jvalegre@colostate.edu/1580876/Gau-78939.inp" -scrdir="/gpfs/summit/scratch/jvalegre@colostate.edu/1580876/"
 Entering Link 1 = /projects/jvalegre@colostate.edu/g16/l1.exe PID=     78940.
  
 Copyright (c) 1988,1990,1992,1993,1995,1998,2003,2009,2016,
            Gaussian, Inc.  All Rights Reserved.
  
 This is part of the Gaussian(R) 16 program.  It is based on
 the Gaussian(R) 09 system (copyright 2009, Gaussian, Inc.),
 the Gaussian(R) 03 system (copyright 2003, Gaussian, Inc.),
 the Gaussian(R) 98 system (copyright 1998, Gaussian, Inc.),
 the Gaussian(R) 94 system (copyright 1995, Gaussian, Inc.),
 the Gaussian 92(TM) system (copyright 1992, Gaussian, Inc.),
 the Gaussian 90(TM) system (copyright 1990, Gaussian, Inc.),
 the Gaussian 88(TM) system (copyright 1988, Gaussian, Inc.),
 the Gaussian 86(TM) system (copyright 1986, Carnegie Mellon
 University), and the Gaussian 82(TM) system (copyright 1983,
 Carnegie Mellon University). Gaussian is a federally registered
 trademark of Gaussian, Inc.
  
 This software contains proprietary and confidential information,
 including trade secrets, belonging to Gaussian, Inc.
  
 This software is provided under written license and may be
 used, copied, transmitted, or stored only in accord with that
 written license.
  
 The following legend is applicable only to US Government
 contracts under FAR:
  
                    RESTRICTED RIGHTS LEGEND
  
 Use, reproduction and disclosure by the US Government is
 subject to restrictions as set forth in subparagraphs (a)
 and (c) of the Commercial Computer Software - Restricted
 Rights clause in FAR 52.227-19.
  
 Gaussian, Inc.
 340 Quinnipiac St., Bldg. 40, Wallingford CT 06492
  
  
 ---------------------------------------------------------------
 Warning -- This program may not be used in any manner that
 competes with the business of Gaussian, Inc. or will provide
 assistance to any competitor of Gaussian, Inc.  The licensee
 of this program is prohibited from giving any competitor of
 Gaussian, Inc. access to this program.  By using this program,
 the user acknowledges that Gaussian, Inc. is engaged in the
 business of creating and licensing software in the field of
 computational chemistry and represents and warrants to the
 licensee that it is not a competitor of Gaussian, Inc. and that
 it will not use this program in any manner prohibited above.
 ---------------------------------------------------------------
  

 Cite this work as:
 Gaussian 16, Revision A.03,
 M. J. Frisch, G. W. Trucks, H. B. Schlegel, G. E. Scuseria, 
 M. A. Robb, J. R. Cheeseman, G. Scalmani, V. Barone, 
 G. A. Petersson, H. Nakatsuji, X. Li, M. Caricato, A. V. Marenich, 
 J. Bloino, B. G. Janesko, R. Gomperts, B. Mennucci, H. P. Hratchian, 
 J. V. Ortiz, A. F. Izmaylov, J. L. Sonnenberg, D. Williams-Young, 
 F. Ding, F. Lipparini, F. Egidi, J. Goings, B. Peng, A. Petrone, 
 T. Henderson, D. Ranasinghe, V. G. Zakrzewski, J. Gao, N. Rega, 
 G. Zheng, W. Liang, M. Hada, M. Ehara, K. Toyota, R. Fukuda, 
 J. Hasegawa, M. Ishida, T. Nakajima, Y. Honda, O. Kitao, H. Nakai, 
 T. Vreven, K. Throssell, J. A. Montgomery, Jr., J. E. Peralta, 
 F. Ogliaro, M. J. Bearpark, J. J. Heyd, E. N. Brothers, K. N. Kudin, 
 V. N. Staroverov, T. A. Keith, R. Kobayashi, J. Normand, 
 K. Raghavachari, A. P. Rendell, J. C. Burant, S. S. Iyengar, 
 J. Tomasi, M. Cossi, J. M. Millam, M. Klene, C. Adamo, R. Cammi, 
 J. W. Ochterski, R. L. Martin, K. Morokuma, O. Farkas, 
 J. B. Foresman, and D. J. Fox, Gaussian, Inc., Wallingford CT, 2016.
 
 ******************************************
 Gaussian 16:  ES64L-G16RevA.03 25-Dec-2016
                31-Dec-2018 
 ******************************************
 %mem=96GB
 %nprocshared=24
 Will use up to   24 processors via shared memory.
 ----------------------------------------------------------------------
 #opt=(maxcycles=200) freq=noraman def2tzvpp empiricaldispersion=gd3 m0
 62x scrf=(solvent=Chloroform,smd)
 ----------------------------------------------------------------------
 1/6=200,18=20,19=15,26=3,38=1/1,3;
 2/9=110,12=2,17=6,18=5,40=1/2;
 3/5=44,7=202,11=2,25=1,30=1,70=32201,71=1,72=7,74=-55,124=31/1,2,3;
 4//1;
 5/5=2,38=5,53=7/2;
 6/7=2,8=2,9=2,10=2,28=1/1;
 7//1,2,3,16;
 1/6=200,18=20,19=15,26=3/3(2);
 2/9=110/2;
 99//99;
 2/9=110/2;
 3/5=44,7=202,11=2,25=1,30=1,70=32205,71=1,72=7,74=-55,124=31/1,2,3;
 4/5=5,16=3,69=1/1;
 5/5=2,38=5,53=7/2;
 7//1,2,3,16;
 1/6=200,18=20,19=15,26=3/3(-5);
 2/9=110/2;
 6/7=2,8=2,9=2,10=2,19=2,28=1/1;
 99/9=1/99;
 -----------------
 aminox_cat_conf65
 -----------------
 Symbolic Z-matrix:
 Charge =  0 Multiplicity = 1
 H                     2.3312   -0.9032    0.9521 
 C                     2.3573   -0.3067    0.0451 
 C                     1.2214    0.1466   -0.4973 
 N                    -0.071    -0.0389   -0.0416 
 C                    -1.2843    0.4163   -0.7918 
 C                    -2.373    -0.5641   -0.3575 
 C                    -1.9775   -0.9132    1.0692 
 C                    -0.4581   -1.0068    0.9984 
 H                    -0.0024   -0.7671    1.9646 
 H                    -1.1137    0.3835   -1.8734 
 C                    -1.661     1.8539   -0.402 
 H                    -3.3853   -0.1531   -0.4141 
 H                    -2.3325   -1.4656   -0.9809 
 H                    -2.2753   -0.1079    1.7514 
 H                    -2.4358   -1.8421    1.4201 
 H                    -0.1538   -2.0162    0.6981 
 O                    -2.6197    2.4685   -0.846 
 O                    -0.8169    2.3763    0.5255 
 H                    -0.1361    1.6835    0.7085 
 H                     1.2683    0.7487   -1.4061 
 C                     3.7134   -0.045    -0.5255 
 H                     4.3294    0.4853    0.2071 
 H                     4.2047   -0.9924   -0.7671 
 H                     3.6707    0.5595   -1.437 
 

 GradGradGradGradGradGradGradGradGradGradGradGradGradGradGradGradGradGrad
 Berny optimization.
 Initialization pass.
                           ----------------------------
                           !    Initial Parameters    !
                           ! (Angstroms and Degrees)  !
 --------------------------                            --------------------------
 ! Name  Definition              Value          Derivative Info.                !
 --------------------------------------------------------------------------------
 ! R1    R(1,2)                  1.0859         estimate D2E/DX2                !
 ! R2    R(2,3)                  1.3379         estimate D2E/DX2                !
 ! R3    R(2,21)                 1.4943         estimate D2E/DX2                !
 ! R4    R(3,4)                  1.3829         estimate D2E/DX2                !
 ! R5    R(3,20)                 1.0912         estimate D2E/DX2                !
 ! R6    R(4,5)                  1.4974         estimate D2E/DX2                !
 ! R7    R(4,8)                  1.4725         estimate D2E/DX2                !
 ! R8    R(5,6)                  1.5281         estimate D2E/DX2                !
 ! R9    R(5,10)                 1.0955         estimate D2E/DX2                !
 ! R10   R(5,11)                 1.5364         estimate D2E/DX2                !
 ! R11   R(6,7)                  1.5211         estimate D2E/DX2                !
 ! R12   R(6,12)                 1.094          estimate D2E/DX2                !
 ! R13   R(6,13)                 1.0968         estimate D2E/DX2                !
 ! R14   R(7,8)                  1.5239         estimate D2E/DX2                !
 ! R15   R(7,14)                 1.0966         estimate D2E/DX2                !
 ! R16   R(7,15)                 1.0936         estimate D2E/DX2                !
 ! R17   R(8,9)                  1.0948         estimate D2E/DX2                !
 ! R18   R(8,16)                 1.0962         estimate D2E/DX2                !
 ! R19   R(11,17)                1.2223         estimate D2E/DX2                !
 ! R20   R(11,18)                1.3586         estimate D2E/DX2                !
 ! R21   R(18,19)                0.9884         estimate D2E/DX2                !
 ! R22   R(21,22)                1.0942         estimate D2E/DX2                !
 ! R23   R(21,23)                1.0942         estimate D2E/DX2                !
 ! R24   R(21,24)                1.0946         estimate D2E/DX2                !
 ! A1    A(1,2,3)              120.2877         estimate D2E/DX2                !
 ! A2    A(1,2,21)             115.9094         estimate D2E/DX2                !
 ! A3    A(3,2,21)             123.8029         estimate D2E/DX2                !
 ! A4    A(2,3,4)              127.9102         estimate D2E/DX2                !
 ! A5    A(2,3,20)             119.2173         estimate D2E/DX2                !
 ! A6    A(4,3,20)             112.87           estimate D2E/DX2                !
 ! A7    A(3,4,5)              123.4627         estimate D2E/DX2                !
 ! A8    A(3,4,8)              124.5131         estimate D2E/DX2                !
 ! A9    A(5,4,8)              109.9174         estimate D2E/DX2                !
 ! A10   A(4,5,6)              103.8783         estimate D2E/DX2                !
 ! A11   A(4,5,10)             111.0622         estimate D2E/DX2                !
 ! A12   A(4,5,11)             110.8552         estimate D2E/DX2                !
 ! A13   A(6,5,10)             111.861          estimate D2E/DX2                !
 ! A14   A(6,5,11)             110.7037         estimate D2E/DX2                !
 ! A15   A(10,5,11)            108.4633         estimate D2E/DX2                !
 ! A16   A(5,6,7)              103.2131         estimate D2E/DX2                !
 ! A17   A(5,6,12)             113.7975         estimate D2E/DX2                !
 ! A18   A(5,6,13)             109.846          estimate D2E/DX2                !
 ! A19   A(7,6,12)             112.0448         estimate D2E/DX2                !
 ! A20   A(7,6,13)             109.5644         estimate D2E/DX2                !
 ! A21   A(12,6,13)            108.2731         estimate D2E/DX2                !
 ! A22   A(6,7,8)              103.2827         estimate D2E/DX2                !
 ! A23   A(6,7,14)             110.1414         estimate D2E/DX2                !
 ! A24   A(6,7,15)             112.7629         estimate D2E/DX2                !
 ! A25   A(8,7,14)             110.1671         estimate D2E/DX2                !
 ! A26   A(8,7,15)             112.3682         estimate D2E/DX2                !
 ! A27   A(14,7,15)            108.079          estimate D2E/DX2                !
 ! A28   A(4,8,7)              104.7466         estimate D2E/DX2                !
 ! A29   A(4,8,9)              111.7135         estimate D2E/DX2                !
 ! A30   A(4,8,16)             109.8042         estimate D2E/DX2                !
 ! A31   A(7,8,9)              111.1336         estimate D2E/DX2                !
 ! A32   A(7,8,16)             110.2461         estimate D2E/DX2                !
 ! A33   A(9,8,16)             109.1363         estimate D2E/DX2                !
 ! A34   A(5,11,17)            124.795          estimate D2E/DX2                !
 ! A35   A(5,11,18)            112.3753         estimate D2E/DX2                !
 ! A36   A(17,11,18)           122.8187         estimate D2E/DX2                !
 ! A37   A(11,18,19)           106.549          estimate D2E/DX2                !
 ! A38   A(2,21,22)            109.8825         estimate D2E/DX2                !
 ! A39   A(2,21,23)            109.8853         estimate D2E/DX2                !
 ! A40   A(2,21,24)            112.2898         estimate D2E/DX2                !
 ! A41   A(22,21,23)           108.3405         estimate D2E/DX2                !
 ! A42   A(22,21,24)           108.1703         estimate D2E/DX2                !
 ! A43   A(23,21,24)           108.1689         estimate D2E/DX2                !
 ! D1    D(1,2,3,4)              0.3015         estimate D2E/DX2                !
 ! D2    D(1,2,3,20)           179.6916         estimate D2E/DX2                !
 ! D3    D(21,2,3,4)          -179.7444         estimate D2E/DX2                !
 ! D4    D(21,2,3,20)           -0.3543         estimate D2E/DX2                !
 ! D5    D(1,2,21,22)          -59.5977         estimate D2E/DX2                !
 ! D6    D(1,2,21,23)           59.522          estimate D2E/DX2                !
 ! D7    D(1,2,21,24)          179.9622         estimate D2E/DX2                !
 ! D8    D(3,2,21,22)          120.4464         estimate D2E/DX2                !
 ! D9    D(3,2,21,23)         -120.4339         estimate D2E/DX2                !
 ! D10   D(3,2,21,24)            0.0063         estimate D2E/DX2                !
 ! D11   D(2,3,4,5)           -174.606          estimate D2E/DX2                !
 ! D12   D(2,3,4,8)            -12.7905         estimate D2E/DX2                !
 ! D13   D(20,3,4,5)             5.9716         estimate D2E/DX2                !
 ! D14   D(20,3,4,8)           167.7871         estimate D2E/DX2                !
 ! D15   D(3,4,5,6)            151.731          estimate D2E/DX2                !
 ! D16   D(3,4,5,10)            31.3224         estimate D2E/DX2                !
 ! D17   D(3,4,5,11)           -89.3334         estimate D2E/DX2                !
 ! D18   D(8,4,5,6)            -12.3956         estimate D2E/DX2                !
 ! D19   D(8,4,5,10)          -132.8043         estimate D2E/DX2                !
 ! D20   D(8,4,5,11)           106.5399         estimate D2E/DX2                !
 ! D21   D(3,4,8,7)           -175.7265         estimate D2E/DX2                !
 ! D22   D(3,4,8,9)             63.868          estimate D2E/DX2                !
 ! D23   D(3,4,8,16)           -57.3594         estimate D2E/DX2                !
 ! D24   D(5,4,8,7)            -11.8026         estimate D2E/DX2                !
 ! D25   D(5,4,8,9)           -132.2081         estimate D2E/DX2                !
 ! D26   D(5,4,8,16)           106.5645         estimate D2E/DX2                !
 ! D27   D(4,5,6,7)             31.5743         estimate D2E/DX2                !
 ! D28   D(4,5,6,12)           153.2361         estimate D2E/DX2                !
 ! D29   D(4,5,6,13)           -85.1972         estimate D2E/DX2                !
 ! D30   D(10,5,6,7)           151.442          estimate D2E/DX2                !
 ! D31   D(10,5,6,12)          -86.8961         estimate D2E/DX2                !
 ! D32   D(10,5,6,13)           34.6705         estimate D2E/DX2                !
 ! D33   D(11,5,6,7)           -87.4651         estimate D2E/DX2                !
 ! D34   D(11,5,6,12)           34.1968         estimate D2E/DX2                !
 ! D35   D(11,5,6,13)          155.7635         estimate D2E/DX2                !
 ! D36   D(4,5,11,17)         -178.901          estimate D2E/DX2                !
 ! D37   D(4,5,11,18)           -0.0831         estimate D2E/DX2                !
 ! D38   D(6,5,11,17)          -64.1685         estimate D2E/DX2                !
 ! D39   D(6,5,11,18)          114.6494         estimate D2E/DX2                !
 ! D40   D(10,5,11,17)          58.9146         estimate D2E/DX2                !
 ! D41   D(10,5,11,18)        -122.2676         estimate D2E/DX2                !
 ! D42   D(5,6,7,8)            -38.9691         estimate D2E/DX2                !
 ! D43   D(5,6,7,14)            78.6695         estimate D2E/DX2                !
 ! D44   D(5,6,7,15)          -160.5095         estimate D2E/DX2                !
 ! D45   D(12,6,7,8)          -161.8056         estimate D2E/DX2                !
 ! D46   D(12,6,7,14)          -44.1671         estimate D2E/DX2                !
 ! D47   D(12,6,7,15)           76.6539         estimate D2E/DX2                !
 ! D48   D(13,6,7,8)            78.0015         estimate D2E/DX2                !
 ! D49   D(13,6,7,14)         -164.3599         estimate D2E/DX2                !
 ! D50   D(13,6,7,15)          -43.539          estimate D2E/DX2                !
 ! D51   D(6,7,8,4)             31.3909         estimate D2E/DX2                !
 ! D52   D(6,7,8,9)            152.1812         estimate D2E/DX2                !
 ! D53   D(6,7,8,16)           -86.676          estimate D2E/DX2                !
 ! D54   D(14,7,8,4)           -86.2296         estimate D2E/DX2                !
 ! D55   D(14,7,8,9)            34.5606         estimate D2E/DX2                !
 ! D56   D(14,7,8,16)          155.7034         estimate D2E/DX2                !
 ! D57   D(15,7,8,4)           153.1973         estimate D2E/DX2                !
 ! D58   D(15,7,8,9)           -86.0125         estimate D2E/DX2                !
 ! D59   D(15,7,8,16)           35.1303         estimate D2E/DX2                !
 ! D60   D(5,11,18,19)           1.286          estimate D2E/DX2                !
 ! D61   D(17,11,18,19)       -179.8692         estimate D2E/DX2                !
 --------------------------------------------------------------------------------
 Trust Radius=3.00D-01 FncErr=1.00D-07 GrdErr=1.00D-06 EigMax=2.50D+02 EigMin=1.00D-04
 Number of steps in this run=    144 maximum allowed number of steps=    144.
 GradGradGradGradGradGradGradGradGradGradGradGradGradGradGradGradGradGrad

                          Input orientation:                          
 ---------------------------------------------------------------------
 Center     Atomic      Atomic             Coordinates (Angstroms)
 Number     Number       Type             X           Y           Z
 ---------------------------------------------------------------------
      1          1           0        2.331200   -0.903200    0.952100
      2          6           0        2.357300   -0.306700    0.045100
      3          6           0        1.221400    0.146600   -0.497300
      4          7           0       -0.071000   -0.038900   -0.041600
      5          6           0       -1.284300    0.416300   -0.791800
      6          6           0       -2.373000   -0.564100   -0.357500
      7          6           0       -1.977500   -0.913200    1.069200
      8          6           0       -0.458100   -1.006800    0.998400
      9          1           0       -0.002400   -0.767100    1.964600
     10          1           0       -1.113700    0.383500   -1.873400
     11          6           0       -1.661000    1.853900   -0.402000
     12          1           0       -3.385300   -0.153100   -0.414100
     13          1           0       -2.332500   -1.465600   -0.980900
     14          1           0       -2.275300   -0.107900    1.751400
     15          1           0       -2.435800   -1.842100    1.420100
     16          1           0       -0.153800   -2.016200    0.698100
     17          8           0       -2.619700    2.468500   -0.846000
     18          8           0       -0.816900    2.376300    0.525500
     19          1           0       -0.136100    1.683500    0.708500
     20          1           0        1.268300    0.748700   -1.406100
     21          6           0        3.713400   -0.045000   -0.525500
     22          1           0        4.329400    0.485300    0.207100
     23          1           0        4.204700   -0.992400   -0.767100
     24          1           0        3.670700    0.559500   -1.437000
 ---------------------------------------------------------------------
                    Distance matrix (angstroms):
                    1          2          3          4          5
     1  H    0.000000
     2  C    1.085883   0.000000
     3  C    2.105824   1.337889   0.000000
     4  N    2.739529   2.444560   1.382885   0.000000
     5  C    4.225412   3.805835   2.537322   1.497366   0.000000
     6  C    4.894848   4.754375   3.666654   2.382191   1.528093
     7  C    4.310303   4.495232   3.716189   2.373398   2.389857
     8  C    2.791607   3.053751   2.527483   1.472507   2.431591
     9  H    2.547424   3.076464   2.897151   2.135373   3.262123
    10  H    4.637498   4.025526   2.720747   2.149683   1.095463
    11  C    5.037147   4.584193   3.351445   2.498135   1.536405
    12  H    5.925160   5.762978   4.617188   3.337122   2.209315
    13  H    5.079654   4.938618   3.932336   2.834103   2.162413
    14  H    4.742491   4.940846   4.165133   2.842279   2.779340
    15  H    4.881070   5.217460   4.583281   3.313665   3.364346
    16  H    2.734686   3.107157   2.828049   2.112753   3.068369
    17  O    6.254034   5.767697   4.501873   3.664695   2.449032
    18  O    4.565922   4.183876   3.189412   2.590591   2.407352
    19  H    3.583005   3.258533   2.378828   1.879774   2.274876
    20  H    3.069143   2.098993   1.091165   2.067825   2.646436
    21  C    2.197791   1.494349   2.499514   3.815217   5.026004
    22  H    2.544752   2.131358   3.204772   4.438486   5.702297
    23  H    2.544329   2.131370   3.204714   4.440397   5.666936
    24  H    3.105085   2.161468   2.655672   4.038012   4.998881
                    6          7          8          9         10
     6  C    0.000000
     7  C    1.521106   0.000000
     8  C    2.387737   1.523926   0.000000
     9  H    3.324621   2.173501   1.094834   0.000000
    10  H    2.186718   3.329636   3.257297   4.158018   0.000000
    11  C    2.521041   3.149832   3.404658   3.901460   2.150961
    12  H    1.094018   2.181704   3.360426   4.180816   2.752755
    13  H    1.096800   2.152692   2.764327   3.820110   2.387719
    14  H    2.159890   1.096627   2.162694   2.376147   3.837963
    15  H    2.190226   1.093629   2.187888   2.715426   4.189079
    16  H    2.854424   2.163378   1.096206   1.785272   3.645899
    17  O    3.081583   3.939074   4.489102   5.021836   2.769623
    18  O    3.441960   3.530356   3.434783   3.551814   3.132741
    19  H    3.345412   3.203702   2.724966   2.757010   3.051542
    20  H    4.010246   4.407294   3.441491   3.908190   2.454723
    21  C    6.110806   5.973540   4.544089   4.530916   5.030044
    22  H    6.807509   6.517362   5.076679   4.839608   5.828051
    23  H    6.604343   6.449641   4.985870   5.021219   5.603783
    24  H    6.241323   6.352326   5.042961   5.179036   4.807484
                   11         12         13         14         15
    11  C    0.000000
    12  H    2.646017   0.000000
    13  H    3.435858   1.775474   0.000000
    14  H    2.977105   2.433831   3.051571   0.000000
    15  H    4.192944   2.668063   2.432535   1.772842   0.000000
    16  H    4.296457   3.892393   2.805162   3.041679   2.399816
    17  O    1.222283   2.765044   3.946875   3.674634   4.873428
    18  O    1.358552   3.725237   4.396189   3.130657   4.606088
    19  H    1.894087   3.897516   4.194649   2.978747   4.269057
    20  H    3.287930   4.842861   4.248492   4.822932   5.331042
    21  C    5.701337   7.100397   6.227231   6.407243   6.695341
    22  H    6.174865   7.765954   7.042604   6.808730   7.256452
    23  H    6.530020   7.644418   6.557790   7.008251   7.042874
    24  H    5.583343   7.165282   6.351966   6.779840   7.156818
                   16         17         18         19         20
    16  H    0.000000
    17  O    5.345787   0.000000
    18  O    4.445621   2.267069   0.000000
    19  H    3.699757   3.033309   0.988408   0.000000
    20  H    3.754291   4.288119   3.275396   2.705129   0.000000
    21  C    4.509774   6.821185   5.243178   4.396489   2.717339
    22  H    5.157292   7.302882   5.491964   4.650567   3.470177
    23  H    4.710785   7.652221   6.183480   5.308520   3.473067
    24  H    5.081307   6.600204   5.224052   4.512014   2.410037
                   21         22         23         24
    21  C    0.000000
    22  H    1.094247   0.000000
    23  H    1.094218   1.774320   0.000000
    24  H    1.094566   1.772697   1.772658   0.000000
 Stoichiometry    C8H13NO2
 Framework group  C1[X(C8H13NO2)]
 Deg. of freedom    66
 Full point group                 C1      NOp   1
 Largest Abelian subgroup         C1      NOp   1
 Largest concise Abelian subgroup C1      NOp   1
                         Standard orientation:                         
 ---------------------------------------------------------------------
 Center     Atomic      Atomic             Coordinates (Angstroms)
 Number     Number       Type             X           Y           Z
 ---------------------------------------------------------------------
      1          1           0       -2.859081    0.953859    0.770731
      2          6           0       -2.759814    0.092465    0.117058
      3          6           0       -1.557835   -0.266886   -0.347767
      4          7           0       -0.336712    0.332648   -0.099195
      5          6           0        0.938048   -0.082973   -0.765791
      6          6           0        1.777330    1.193923   -0.780268
      7          6           0        1.332347    1.916796    0.481956
      8          6           0       -0.168522    1.656093    0.524089
      9          1           0       -0.542827    1.669829    1.552859
     10          1           0        0.749085   -0.458389   -1.777420
     11          6           0        1.641700   -1.186374    0.039144
     12          1           0        2.856221    1.012948   -0.791111
     13          1           0        1.521103    1.797980   -1.659150
     14          1           0        1.817558    1.475470    1.360814
     15          1           0        1.568984    2.984364    0.463919
     16          1           0       -0.701691    2.413313   -0.062439
     17          8           0        2.709883   -1.697410   -0.263845
     18          8           0        0.954164   -1.527084    1.160248
     19          1           0        0.134601   -0.974613    1.166698
     20          1           0       -1.477539   -1.138433   -0.999379
     21          6           0       -4.026974   -0.629580   -0.208570
     22          1           0       -4.493540   -0.995689    0.711027
     23          1           0       -4.726944    0.051249   -0.702358
     24          1           0       -3.858989   -1.485245   -0.870155
 ---------------------------------------------------------------------
 Rotational constants (GHZ):           1.7275261           0.7234823           0.5816666
 Standard basis: def2TZVPP (5D, 7F)
 There are   591 symmetry adapted cartesian basis functions of A   symmetry.
 There are   523 symmetry adapted basis functions of A   symmetry.
   523 basis functions,   782 primitive gaussians,   591 cartesian basis functions
    42 alpha electrons       42 beta electrons
       nuclear repulsion energy       639.5920316838 Hartrees.
 NAtoms=   24 NActive=   24 NUniq=   24 SFac= 1.00D+00 NAtFMM=   60 NAOKFM=F Big=F
 Integral buffers will be    131072 words long.
 Raffenetti 2 integral format.
 Two-electron integral symmetry is turned on.
 Nuclear repulsion after empirical dispersion term =      639.5911354334 Hartrees.
 ------------------------------------------------------------------------------
 Polarizable Continuum Model (PCM)
 =================================
 Model                : PCM.
 Atomic radii         : SMD-Coulomb.
 Polarization charges : Total charges.
 Charge compensation  : None.
 Solution method      : On-the-fly selection.
 Cavity type          : VdW (van der Waals Surface) (Alpha=1.000).
 Cavity algorithm     : GePol (No added spheres)
                        Default sphere list used, NSphG=   24.
                        Lebedev-Laikov grids with approx.  5.0 points / Ang**2.
                        Smoothing algorithm: York/Karplus (Gamma=1.0000).
                        Polarization charges: spherical gaussians, with
                                              point-specific exponents (IZeta= 3).
                        Self-potential: point-specific (ISelfS= 7).
                        Self-field    : sphere-specific E.n sum rule (ISelfD= 2).
 1st derivatives      : Analytical E(r).r(x)/FMM algorithm (CHGder, D1EAlg=3).
                        Cavity 1st derivative terms included.
 Solvent              : Chloroform, Eps=   4.711300 Eps(inf)=   2.090627
 ------------------------------------------------------------------------------
 ------------------------------------------------------------------------------
 Atomic radii for non-electrostatic terms: SMD-CDS.
 ------------------------------------------------------------------------------
 Nuclear repulsion after PCM non-electrostatic terms =      639.5865708929 Hartrees.
 One-electron integrals computed using PRISM.
   1 Symmetry operations used in ECPInt.
 ECPInt:  NShTT=   19900 NPrTT=   52931 LenC2=   18785 LenP2D=   39583.
 LDataN:  DoStor=T MaxTD1= 6 Len=  172
 NBasis=   523 RedAO= T EigKep=  7.51D-05  NBF=   523
 NBsUse=   523 1.00D-06 EigRej= -1.00D+00 NBFU=   523
 ExpMin= 9.52D-02 ExpMax= 2.70D+04 ExpMxC= 9.22D+02 IAcc=3 IRadAn=         5 AccDes= 0.00D+00
 Harris functional with IExCor= 1009 and IRadAn=       5 diagonalized for initial guess.
 HarFok:  IExCor= 1009 AccDes= 0.00D+00 IRadAn=         5 IDoV= 1 UseB2=F ITyADJ=14
 ICtDFT=  3500011 ScaDFX=  1.000000  1.000000  1.000000  1.000000
 FoFCou: FMM=F IPFlag=           0 FMFlag=      100000 FMFlg1=           0
         NFxFlg=           0 DoJE=T BraDBF=F KetDBF=T FulRan=T
         wScrn=  0.000000 ICntrl=       500 IOpCl=  0 I1Cent=   200000004 NGrid=           0
         NMat0=    1 NMatS0=      1 NMatT0=    0 NMatD0=    1 NMtDS0=    0 NMtDT0=    0
 Petite list used in FoFCou.
 Requested convergence on RMS density matrix=1.00D-08 within 128 cycles.
 Requested convergence on MAX density matrix=1.00D-06.
 Requested convergence on             energy=1.00D-06.
 No special actions if energy rises.
 Inv3:  Mode=1 IEnd=     9441228.
 Iteration    1 A*A^-1 deviation from unit magnitude is 7.77D-15 for   1742.
 Iteration    1 A*A^-1 deviation from orthogonality  is 2.14D-15 for   1109    372.
 Iteration    1 A^-1*A deviation from unit magnitude is 7.77D-15 for   1742.
 Iteration    1 A^-1*A deviation from orthogonality  is 8.04D-15 for   1009    919.
 Error on total polarization charges =  0.03668
 SCF Done:  E(RM062X) =  -517.869570483     A.U. after   13 cycles
            NFock= 13  Conv=0.56D-08     -V/T= 2.0055
 SMD-CDS (non-electrostatic) energy       (kcal/mol) =      -2.86
 (included in total energy above)

 **********************************************************************

            Population analysis using the SCF density.

 **********************************************************************

 Orbital symmetries:
       Occupied  (A) (A) (A) (A) (A) (A) (A) (A) (A) (A) (A) (A)
                 (A) (A) (A) (A) (A) (A) (A) (A) (A) (A) (A) (A)
                 (A) (A) (A) (A) (A) (A) (A) (A) (A) (A) (A) (A)
                 (A) (A) (A) (A) (A) (A)
       Virtual   (A) (A) (A) (A) (A) (A) (A) (A) (A) (A) (A) (A)
                 (A) (A) (A) (A) (A) (A) (A) (A) (A) (A) (A) (A)
                 (A) (A) (A) (A) (A) (A) (A) (A) (A) (A) (A) (A)
                 (A) (A) (A) (A) (A) (A) (A) (A) (A) (A) (A) (A)
                 (A) (A) (A) (A) (A) (A) (A) (A) (A) (A) (A) (A)
                 (A) (A) (A) (A) (A) (A) (A) (A) (A) (A) (A) (A)
                 (A) (A) (A) (A) (A) (A) (A) (A) (A) (A) (A) (A)
                 (A) (A) (A) (A) (A) (A) (A) (A) (A) (A) (A) (A)
                 (A) (A) (A) (A) (A) (A) (A) (A) (A) (A) (A) (A)
                 (A) (A) (A) (A) (A) (A) (A) (A) (A) (A) (A) (A)
                 (A) (A) (A) (A) (A) (A) (A) (A) (A) (A) (A) (A)
                 (A) (A) (A) (A) (A) (A) (A) (A) (A) (A) (A) (A)
                 (A) (A) (A) (A) (A) (A) (A) (A) (A) (A) (A) (A)
                 (A) (A) (A) (A) (A) (A) (A) (A) (A) (A) (A) (A)
                 (A) (A) (A) (A) (A) (A) (A) (A) (A) (A) (A) (A)
                 (A) (A) (A) (A) (A) (A) (A) (A) (A) (A) (A) (A)
                 (A) (A) (A) (A) (A) (A) (A) (A) (A) (A) (A) (A)
                 (A) (A) (A) (A) (A) (A) (A) (A) (A) (A) (A) (A)
                 (A) (A) (A) (A) (A) (A) (A) (A) (A) (A) (A) (A)
                 (A) (A) (A) (A) (A) (A) (A) (A) (A) (A) (A) (A)
                 (A) (A) (A) (A) (A) (A) (A) (A) (A) (A) (A) (A)
                 (A) (A) (A) (A) (A) (A) (A) (A) (A) (A) (A) (A)
                 (A) (A) (A) (A) (A) (A) (A) (A) (A) (A) (A) (A)
                 (A) (A) (A) (A) (A) (A) (A) (A) (A) (A) (A) (A)
                 (A) (A) (A) (A) (A) (A) (A) (A) (A) (A) (A) (A)
                 (A) (A) (A) (A) (A) (A) (A) (A) (A) (A) (A) (A)
                 (A) (A) (A) (A) (A) (A) (A) (A) (A) (A) (A) (A)
                 (A) (A) (A) (A) (A) (A) (A) (A) (A) (A) (A) (A)
                 (A) (A) (A) (A) (A) (A) (A) (A) (A) (A) (A) (A)
                 (A) (A) (A) (A) (A) (A) (A) (A) (A) (A) (A) (A)
                 (A) (A) (A) (A) (A) (A) (A) (A) (A) (A) (A) (A)
                 (A) (A) (A) (A) (A) (A) (A) (A) (A) (A) (A) (A)
                 (A) (A) (A) (A) (A) (A) (A) (A) (A) (A) (A) (A)
                 (A) (A) (A) (A) (A) (A) (A) (A) (A) (A) (A) (A)
                 (A) (A) (A) (A) (A) (A) (A) (A) (A) (A) (A) (A)
                 (A) (A) (A) (A) (A) (A) (A) (A) (A) (A) (A) (A)
                 (A) (A) (A) (A) (A) (A) (A) (A) (A) (A) (A) (A)
                 (A) (A) (A) (A) (A) (A) (A) (A) (A) (A) (A) (A)
                 (A) (A) (A) (A) (A) (A) (A) (A) (A) (A) (A) (A)
                 (A) (A) (A) (A) (A) (A) (A) (A) (A) (A) (A) (A)
                 (A)
 The electronic state is 1-A.
 Alpha  occ. eigenvalues --  -19.66528 -19.62034 -14.77151 -10.67904 -10.59600
 Alpha  occ. eigenvalues --  -10.56992 -10.56983 -10.54435 -10.53846 -10.52368
 Alpha  occ. eigenvalues --  -10.52257  -1.22056  -1.13753  -1.06378  -0.91769
 Alpha  occ. eigenvalues --   -0.85909  -0.85041  -0.77125  -0.71957  -0.68975
 Alpha  occ. eigenvalues --   -0.67589  -0.63218  -0.61995  -0.58802  -0.54995
 Alpha  occ. eigenvalues --   -0.54297  -0.52471  -0.51650  -0.49274  -0.48359
 Alpha  occ. eigenvalues --   -0.47388  -0.45585  -0.45417  -0.43279  -0.42048
 Alpha  occ. eigenvalues --   -0.41198  -0.41036  -0.40521  -0.39074  -0.38038
 Alpha  occ. eigenvalues --   -0.35222  -0.25239
 Alpha virt. eigenvalues --    0.03509   0.06255   0.06758   0.09087   0.09305
 Alpha virt. eigenvalues --    0.10108   0.11424   0.12085   0.12596   0.14515
 Alpha virt. eigenvalues --    0.14672   0.15345   0.15927   0.16648   0.17098
 Alpha virt. eigenvalues --    0.18588   0.18812   0.19076   0.20817   0.21178
 Alpha virt. eigenvalues --    0.23006   0.23470   0.23770   0.24564   0.25683
 Alpha virt. eigenvalues --    0.26250   0.27211   0.28827   0.29968   0.30589
 Alpha virt. eigenvalues --    0.30861   0.32202   0.32645   0.33806   0.35015
 Alpha virt. eigenvalues --    0.35381   0.36295   0.38662   0.40121   0.40344
 Alpha virt. eigenvalues --    0.40729   0.41297   0.41937   0.43203   0.43567
 Alpha virt. eigenvalues --    0.44146   0.44594   0.45716   0.45878   0.46672
 Alpha virt. eigenvalues --    0.46988   0.48089   0.48373   0.49173   0.49280
 Alpha virt. eigenvalues --    0.49341   0.50943   0.51951   0.52258   0.52629
 Alpha virt. eigenvalues --    0.53712   0.54327   0.55963   0.56151   0.57399
 Alpha virt. eigenvalues --    0.58509   0.58996   0.59967   0.61917   0.62738
 Alpha virt. eigenvalues --    0.64047   0.65195   0.66587   0.67356   0.69255
 Alpha virt. eigenvalues --    0.69685   0.70283   0.71973   0.73336   0.74443
 Alpha virt. eigenvalues --    0.75317   0.77389   0.78797   0.81785   0.83805
 Alpha virt. eigenvalues --    0.83878   0.85183   0.86168   0.87237   0.88177
 Alpha virt. eigenvalues --    0.88564   0.91376   0.91767   0.92883   0.95105
 Alpha virt. eigenvalues --    0.95576   0.96720   0.97702   0.98277   0.99083
 Alpha virt. eigenvalues --    0.99889   1.00218   1.01795   1.02531   1.03668
 Alpha virt. eigenvalues --    1.04450   1.05428   1.05826   1.07192   1.09713
 Alpha virt. eigenvalues --    1.11303   1.11894   1.12237   1.13436   1.13828
 Alpha virt. eigenvalues --    1.14210   1.15870   1.16743   1.17348   1.18042
 Alpha virt. eigenvalues --    1.19524   1.20556   1.21774   1.22396   1.25157
 Alpha virt. eigenvalues --    1.25718   1.27193   1.27790   1.28793   1.29747
 Alpha virt. eigenvalues --    1.31623   1.32986   1.35333   1.35637   1.36733
 Alpha virt. eigenvalues --    1.38482   1.40306   1.40730   1.41822   1.42356
 Alpha virt. eigenvalues --    1.43357   1.45963   1.46781   1.48227   1.48633
 Alpha virt. eigenvalues --    1.49352   1.49744   1.50242   1.50993   1.52221
 Alpha virt. eigenvalues --    1.54010   1.55278   1.55365   1.56893   1.57605
 Alpha virt. eigenvalues --    1.58595   1.60089   1.60744   1.61661   1.63018
 Alpha virt. eigenvalues --    1.65744   1.65993   1.66244   1.67368   1.70317
 Alpha virt. eigenvalues --    1.71294   1.72158   1.72300   1.74998   1.76873
 Alpha virt. eigenvalues --    1.78969   1.79941   1.80583   1.82926   1.85033
 Alpha virt. eigenvalues --    1.86173   1.89190   1.91389   1.93378   1.93457
 Alpha virt. eigenvalues --    1.95925   2.00050   2.01804   2.03803   2.06961
 Alpha virt. eigenvalues --    2.07429   2.09397   2.10527   2.13792   2.15362
 Alpha virt. eigenvalues --    2.16741   2.18493   2.20280   2.22969   2.25567
 Alpha virt. eigenvalues --    2.26682   2.29415   2.30683   2.33319   2.36787
 Alpha virt. eigenvalues --    2.39519   2.41689   2.43076   2.45572   2.48308
 Alpha virt. eigenvalues --    2.49071   2.51527   2.52059   2.53153   2.55275
 Alpha virt. eigenvalues --    2.57177   2.58367   2.60203   2.61416   2.62213
 Alpha virt. eigenvalues --    2.63437   2.64761   2.65949   2.67643   2.70079
 Alpha virt. eigenvalues --    2.71126   2.73549   2.73850   2.74531   2.75972
 Alpha virt. eigenvalues --    2.77459   2.78939   2.79878   2.80251   2.82466
 Alpha virt. eigenvalues --    2.83743   2.84213   2.85268   2.87606   2.88986
 Alpha virt. eigenvalues --    2.89454   2.91918   2.92901   2.94090   2.94874
 Alpha virt. eigenvalues --    2.95702   2.96278   2.96646   2.98325   2.99357
 Alpha virt. eigenvalues --    2.99963   3.01624   3.02030   3.02895   3.03588
 Alpha virt. eigenvalues --    3.04714   3.05716   3.07897   3.08830   3.10342
 Alpha virt. eigenvalues --    3.11146   3.12360   3.13599   3.13926   3.15774
 Alpha virt. eigenvalues --    3.16508   3.17039   3.18559   3.19274   3.20758
 Alpha virt. eigenvalues --    3.20806   3.21302   3.23287   3.23576   3.24466
 Alpha virt. eigenvalues --    3.26545   3.28148   3.28900   3.29820   3.30281
 Alpha virt. eigenvalues --    3.31035   3.33104   3.33430   3.35093   3.36298
 Alpha virt. eigenvalues --    3.37643   3.39578   3.39922   3.41998   3.43139
 Alpha virt. eigenvalues --    3.43694   3.44754   3.46063   3.47387   3.47886
 Alpha virt. eigenvalues --    3.49326   3.50568   3.51453   3.52108   3.53811
 Alpha virt. eigenvalues --    3.55386   3.55784   3.56427   3.57547   3.58627
 Alpha virt. eigenvalues --    3.59075   3.60132   3.61180   3.62631   3.63060
 Alpha virt. eigenvalues --    3.65301   3.66647   3.68369   3.69478   3.69737
 Alpha virt. eigenvalues --    3.72342   3.72599   3.74169   3.75409   3.76173
 Alpha virt. eigenvalues --    3.78368   3.79986   3.80565   3.81581   3.81700
 Alpha virt. eigenvalues --    3.83490   3.84736   3.86541   3.87081   3.88190
 Alpha virt. eigenvalues --    3.88846   3.89857   3.91822   3.92110   3.93414
 Alpha virt. eigenvalues --    3.94561   3.95236   3.98566   3.98820   3.99293
 Alpha virt. eigenvalues --    4.00654   4.01317   4.02899   4.03762   4.04465
 Alpha virt. eigenvalues --    4.05004   4.05729   4.07310   4.07696   4.08625
 Alpha virt. eigenvalues --    4.11356   4.12886   4.13694   4.14818   4.15948
 Alpha virt. eigenvalues --    4.17055   4.17875   4.18516   4.20006   4.21532
 Alpha virt. eigenvalues --    4.23265   4.25327   4.26395   4.28130   4.29273
 Alpha virt. eigenvalues --    4.30475   4.31401   4.32897   4.33644   4.35366
 Alpha virt. eigenvalues --    4.36921   4.39300   4.40476   4.40838   4.42670
 Alpha virt. eigenvalues --    4.44279   4.45258   4.47735   4.48401   4.50629
 Alpha virt. eigenvalues --    4.52575   4.57227   4.57795   4.60213   4.60557
 Alpha virt. eigenvalues --    4.62858   4.65922   4.66838   4.67886   4.69597
 Alpha virt. eigenvalues --    4.70161   4.72534   4.73398   4.74222   4.75254
 Alpha virt. eigenvalues --    4.77792   4.78900   4.79871   4.82275   4.84903
 Alpha virt. eigenvalues --    4.85799   4.86445   4.88289   4.89871   4.94081
 Alpha virt. eigenvalues --    4.95861   4.96009   4.98547   5.02451   5.03103
 Alpha virt. eigenvalues --    5.05664   5.07747   5.10060   5.12335   5.14080
 Alpha virt. eigenvalues --    5.15440   5.17626   5.19429   5.20258   5.21316
 Alpha virt. eigenvalues --    5.23651   5.23946   5.26748   5.29464   5.29637
 Alpha virt. eigenvalues --    5.30562   5.31181   5.32484   5.32742   5.35591
 Alpha virt. eigenvalues --    5.36684   5.37737   5.39044   5.41661   5.45444
 Alpha virt. eigenvalues --    5.47701   5.48215   5.50118   5.51775   5.54086
 Alpha virt. eigenvalues --    5.55322   5.55779   5.57500   5.59276   5.60552
 Alpha virt. eigenvalues --    5.61224   5.62899   5.65397   5.68020   5.70349
 Alpha virt. eigenvalues --    5.71857   5.76568   5.83304   5.89427   5.91392
 Alpha virt. eigenvalues --    5.93811   6.01578   6.06179   6.15818   6.29550
 Alpha virt. eigenvalues --    6.31639   6.33970   6.43563   6.47416   6.52868
 Alpha virt. eigenvalues --    6.61970   6.74954   6.77344   6.82468   6.83540
 Alpha virt. eigenvalues --    6.98838   7.06903   7.13679   7.34125   7.48983
 Alpha virt. eigenvalues --   23.04592  23.11085  23.36612  23.47070  23.53471
 Alpha virt. eigenvalues --   23.55836  23.61246  23.72692  33.37992  44.05031
 Alpha virt. eigenvalues --   44.15132
          Condensed to atoms (all electrons):
               1          2          3          4          5          6
     1  H    0.510399   0.418528  -0.036931  -0.002322   0.000289  -0.000014
     2  C    0.418528   5.154330   0.598932  -0.077409  -0.005503  -0.000083
     3  C   -0.036931   0.598932   4.957476   0.317240  -0.070858   0.011358
     4  N   -0.002322  -0.077409   0.317240   6.846266   0.125334  -0.029587
     5  C    0.000289  -0.005503  -0.070858   0.125334   5.598666   0.173309
     6  C   -0.000014  -0.000083   0.011358  -0.029587   0.173309   5.179000
     7  C    0.000035   0.001336   0.002950  -0.034056  -0.007669   0.176282
     8  C    0.004159  -0.004919  -0.071368   0.229180  -0.044201  -0.032690
     9  H   -0.001433  -0.004046   0.007924  -0.053004   0.005797   0.011556
    10  H   -0.000020   0.000811  -0.011427  -0.019585   0.422608  -0.026307
    11  C   -0.000009   0.001862   0.013527  -0.027815   0.202448  -0.008831
    12  H    0.000002   0.000038   0.000040   0.004809  -0.034956   0.435691
    13  H   -0.000005   0.000014  -0.000058   0.001375  -0.044532   0.444279
    14  H   -0.000020   0.000038  -0.000734  -0.002363   0.022080  -0.065706
    15  H    0.000014  -0.000022  -0.000274   0.005395   0.006747  -0.035424
    16  H   -0.002771   0.009889  -0.009816  -0.046910  -0.001528  -0.009053
    17  O    0.000000  -0.000021  -0.000404   0.008888  -0.115196  -0.001460
    18  O    0.000035   0.000833   0.008766  -0.030644  -0.123432  -0.007241
    19  H   -0.000109  -0.005100  -0.002993   0.041479  -0.006243  -0.000341
    20  H    0.003169  -0.032104   0.411892  -0.019130  -0.001853   0.000680
    21  C   -0.018000   0.277315  -0.063505   0.005396  -0.000093   0.000034
    22  H   -0.002973  -0.049019  -0.004864   0.000130  -0.000068  -0.000000
    23  H   -0.002120  -0.047991  -0.003226  -0.000170   0.000078  -0.000003
    24  H    0.003890  -0.064788   0.009681   0.000467   0.000184   0.000004
               7          8          9         10         11         12
     1  H    0.000035   0.004159  -0.001433  -0.000020  -0.000009   0.000002
     2  C    0.001336  -0.004919  -0.004046   0.000811   0.001862   0.000038
     3  C    0.002950  -0.071368   0.007924  -0.011427   0.013527   0.000040
     4  N   -0.034056   0.229180  -0.053004  -0.019585  -0.027815   0.004809
     5  C   -0.007669  -0.044201   0.005797   0.422608   0.202448  -0.034956
     6  C    0.176282  -0.032690   0.011556  -0.026307  -0.008831   0.435691
     7  C    5.146622   0.217816  -0.043825   0.012342  -0.014174  -0.045062
     8  C    0.217816   5.082977   0.441844   0.001243  -0.002480   0.010019
     9  H   -0.043825   0.441844   0.536972  -0.000763   0.002794  -0.000177
    10  H    0.012342   0.001243  -0.000763   0.494739  -0.047917   0.002055
    11  C   -0.014174  -0.002480   0.002794  -0.047917   4.489441  -0.003755
    12  H   -0.045062   0.010019  -0.000177   0.002055  -0.003755   0.495837
    13  H   -0.044423  -0.000927  -0.000140  -0.008777   0.001812  -0.012412
    14  H    0.460837  -0.057065  -0.008253   0.000189  -0.004952  -0.003320
    15  H    0.442143  -0.039115   0.000495  -0.000137   0.000136  -0.001585
    16  H   -0.012731   0.419829  -0.040311   0.001730  -0.001640  -0.000307
    17  O    0.000944  -0.000653  -0.000024   0.004722   0.702601   0.009823
    18  O    0.004589   0.005087   0.000667   0.003886   0.359488   0.001081
    19  H    0.001199  -0.001920  -0.003533   0.001573  -0.035847  -0.000274
    20  H   -0.000451   0.006829  -0.000428   0.001811  -0.004458  -0.000026
    21  C    0.000017  -0.000439  -0.000123  -0.000020  -0.000059  -0.000001
    22  H    0.000010  -0.000023  -0.000170   0.000017  -0.000011   0.000000
    23  H   -0.000013  -0.000020   0.000126  -0.000026   0.000009   0.000000
    24  H   -0.000002   0.000082  -0.000014   0.000001  -0.000025  -0.000000
              13         14         15         16         17         18
     1  H   -0.000005  -0.000020   0.000014  -0.002771   0.000000   0.000035
     2  C    0.000014   0.000038  -0.000022   0.009889  -0.000021   0.000833
     3  C   -0.000058  -0.000734  -0.000274  -0.009816  -0.000404   0.008766
     4  N    0.001375  -0.002363   0.005395  -0.046910   0.008888  -0.030644
     5  C   -0.044532   0.022080   0.006747  -0.001528  -0.115196  -0.123432
     6  C    0.444279  -0.065706  -0.035424  -0.009053  -0.001460  -0.007241
     7  C   -0.044423   0.460837   0.442143  -0.012731   0.000944   0.004589
     8  C   -0.000927  -0.057065  -0.039115   0.419829  -0.000653   0.005087
     9  H   -0.000140  -0.008253   0.000495  -0.040311  -0.000024   0.000667
    10  H   -0.008777   0.000189  -0.000137   0.001730   0.004722   0.003886
    11  C    0.001812  -0.004952   0.000136  -0.001640   0.702601   0.359488
    12  H   -0.012412  -0.003320  -0.001585  -0.000307   0.009823   0.001081
    13  H    0.528936   0.005164  -0.005879   0.000667  -0.000511  -0.000517
    14  H    0.005164   0.527703  -0.013853   0.005224  -0.000201   0.001498
    15  H   -0.005879  -0.013853   0.512342  -0.005494  -0.000064   0.000139
    16  H    0.000667   0.005224  -0.005494   0.542488   0.000032  -0.000143
    17  O   -0.000511  -0.000201  -0.000064   0.000032   7.855340  -0.085225
    18  O   -0.000517   0.001498   0.000139  -0.000143  -0.085225   7.873293
    19  H   -0.000036   0.000573   0.000064   0.000944   0.005139   0.321995
    20  H   -0.000051   0.000010   0.000025   0.000221   0.000088  -0.000462
    21  C    0.000002   0.000001  -0.000001  -0.000066  -0.000000  -0.000052
    22  H   -0.000000  -0.000000   0.000000   0.000109   0.000000  -0.000004
    23  H    0.000000   0.000000  -0.000000  -0.000236  -0.000000   0.000000
    24  H    0.000000   0.000000  -0.000000  -0.000012  -0.000000   0.000005
              19         20         21         22         23         24
     1  H   -0.000109   0.003169  -0.018000  -0.002973  -0.002120   0.003890
     2  C   -0.005100  -0.032104   0.277315  -0.049019  -0.047991  -0.064788
     3  C   -0.002993   0.411892  -0.063505  -0.004864  -0.003226   0.009681
     4  N    0.041479  -0.019130   0.005396   0.000130  -0.000170   0.000467
     5  C   -0.006243  -0.001853  -0.000093  -0.000068   0.000078   0.000184
     6  C   -0.000341   0.000680   0.000034  -0.000000  -0.000003   0.000004
     7  C    0.001199  -0.000451   0.000017   0.000010  -0.000013  -0.000002
     8  C   -0.001920   0.006829  -0.000439  -0.000023  -0.000020   0.000082
     9  H   -0.003533  -0.000428  -0.000123  -0.000170   0.000126  -0.000014
    10  H    0.001573   0.001811  -0.000020   0.000017  -0.000026   0.000001
    11  C   -0.035847  -0.004458  -0.000059  -0.000011   0.000009  -0.000025
    12  H   -0.000274  -0.000026  -0.000001   0.000000   0.000000  -0.000000
    13  H   -0.000036  -0.000051   0.000002  -0.000000   0.000000   0.000000
    14  H    0.000573   0.000010   0.000001  -0.000000   0.000000   0.000000
    15  H    0.000064   0.000025  -0.000001   0.000000  -0.000000  -0.000000
    16  H    0.000944   0.000221  -0.000066   0.000109  -0.000236  -0.000012
    17  O    0.005139   0.000088  -0.000000   0.000000  -0.000000  -0.000000
    18  O    0.321995  -0.000462  -0.000052  -0.000004   0.000000   0.000005
    19  H    0.389399   0.000544   0.000041   0.000074  -0.000019  -0.000002
    20  H    0.000544   0.498952  -0.002994   0.000369  -0.000223   0.002222
    21  C    0.000041  -0.002994   4.872016   0.421457   0.418498   0.433917
    22  H    0.000074   0.000369   0.421457   0.576232  -0.035599  -0.026142
    23  H   -0.000019  -0.000223   0.418498  -0.035599   0.576024  -0.026040
    24  H   -0.000002   0.002222   0.433917  -0.026142  -0.026040   0.567182
 Mulliken charges:
               1
     1  H    0.126208
     2  C   -0.172921
     3  C   -0.063331
     4  N   -0.242961
     5  C   -0.101409
     6  C   -0.215452
     7  C   -0.264717
     8  C   -0.163245
     9  H    0.148070
    10  H    0.167253
    11  C    0.377854
    12  H    0.142478
    13  H    0.136019
    14  H    0.133150
    15  H    0.134348
    16  H    0.149885
    17  O   -0.383815
    18  O   -0.333645
    19  H    0.293393
    20  H    0.135369
    21  C   -0.343340
    22  H    0.120474
    23  H    0.120951
    24  H    0.099386
 Sum of Mulliken charges =  -0.00000
 Mulliken charges with hydrogens summed into heavy atoms:
               1
     2  C   -0.046713
     3  C    0.072037
     4  N   -0.242961
     5  C    0.065843
     6  C    0.063044
     7  C    0.002781
     8  C    0.134710
    11  C    0.377854
    17  O   -0.383815
    18  O   -0.040252
    21  C   -0.002528
 Electronic spatial extent (au):  <R**2>=           2054.6136
 Charge=             -0.0000 electrons
 Dipole moment (field-independent basis, Debye):
    X=             -3.1026    Y=              4.5703    Z=             -0.8091  Tot=              5.5828
 Quadrupole moment (field-independent basis, Debye-Ang):
   XX=            -77.6204   YY=            -70.2002   ZZ=            -66.1075
   XY=             11.8902   XZ=             -1.2959   YZ=              3.3459
 Traceless Quadrupole moment (field-independent basis, Debye-Ang):
   XX=             -6.3111   YY=              1.1092   ZZ=              5.2019
   XY=             11.8902   XZ=             -1.2959   YZ=              3.3459
 Octapole moment (field-independent basis, Debye-Ang**2):
  XXX=            -24.3146  YYY=             15.7547  ZZZ=              0.3140  XYY=            -11.6391
  XXY=             26.6628  XXZ=              5.2674  XZZ=              2.9828  YZZ=              0.9079
  YYZ=             -3.4419  XYZ=             -2.8048
 Hexadecapole moment (field-independent basis, Debye-Ang**3):
 XXXX=          -1907.4567 YYYY=           -683.3071 ZZZZ=           -236.5983 XXXY=             62.7360
 XXXZ=              5.9382 YYYX=             28.3421 YYYZ=              5.5018 ZZZX=             -7.4199
 ZZZY=              2.2507 XXYY=           -460.0675 XXZZ=           -349.4986 YYZZ=           -156.0101
 XXYZ=             -2.5207 YYXZ=             -1.2530 ZZXY=              3.5479
 N-N= 6.395865708929D+02 E-N=-2.485752588435D+03  KE= 5.150437274472D+02
   1 Symmetry operations used in ECPInt.
 ECPInt:  NShTT=   19900 NPrTT=   52931 LenC2=   18785 LenP2D=   39583.
 LDataN:  DoStor=T MaxTD1= 7 Len=  274
 D1PCM: PCM CHGder 1st derivatives, ID1Alg=3 FixD1E=F DoIter=F DoCFld=F I1PDM=0.
 Calling FoFJK, ICntrl=      2127 FMM=F ISym2X=0 I1Cent= 0 IOpClX= 0 NMat=1 NMatS=1 NMatT=0.
 ***** Axes restored to original set *****
 -------------------------------------------------------------------
 Center     Atomic                   Forces (Hartrees/Bohr)
 Number     Number              X              Y              Z
 -------------------------------------------------------------------
      1        1          -0.002408946   -0.000003787   -0.000276704
      2        6          -0.006609397   -0.001509195    0.001575168
      3        6           0.001483477   -0.000966208   -0.007715929
      4        7          -0.027203268    0.002084271    0.001444088
      5        6           0.015165094   -0.004671273    0.000164782
      6        6          -0.007022203   -0.005683691   -0.001647725
      7        6          -0.000550978    0.001199745    0.004557057
      8        6           0.006270774   -0.000724156   -0.000353355
      9        1           0.002293119   -0.000971551   -0.003581735
     10        1          -0.000457479    0.002439999    0.003308491
     11        6          -0.005337872    0.017970896    0.005099833
     12        1           0.005193033    0.001048560   -0.002747646
     13        1           0.000946904    0.004678153    0.000830934
     14        1           0.000914639   -0.002083331   -0.001897528
     15        1           0.002358406    0.003329430   -0.001022154
     16        1           0.002709247    0.000892453    0.001090803
     17        8           0.032719285   -0.019705315    0.015062581
     18        8          -0.014024698   -0.003404138   -0.014377750
     19        1          -0.009357656    0.006647998   -0.001832479
     20        1           0.000040725   -0.001005234    0.002645086
     21        6          -0.000359561    0.001033448   -0.000784975
     22        1           0.001964248   -0.001649762   -0.002347927
     23        1           0.002164976    0.002563508    0.000418850
     24        1          -0.000891869   -0.001510819    0.002388234
 -------------------------------------------------------------------
 Cartesian Forces:  Max     0.032719285 RMS     0.007498650

 GradGradGradGradGradGradGradGradGradGradGradGradGradGradGradGradGradGrad
 Berny optimization.
 FormGI is forming the generalized inverse of G from B-inverse, IUseBI=4.
 Internal  Forces:  Max     0.041042293 RMS     0.005977412
 Search for a local minimum.
 Step number   1 out of a maximum of  144
 All quantities printed in internal units (Hartrees-Bohrs-Radians)
 Mixed Optimization -- RFO/linear search
 Second derivative matrix not updated -- first step.
 ITU=  0
     Eigenvalues ---    0.00284   0.00527   0.00640   0.00758   0.00841
     Eigenvalues ---    0.01000   0.01709   0.01918   0.02240   0.02441
     Eigenvalues ---    0.02674   0.02910   0.03112   0.04666   0.04901
     Eigenvalues ---    0.05258   0.05464   0.05870   0.06177   0.06401
     Eigenvalues ---    0.06686   0.06878   0.06931   0.07197   0.07479
     Eigenvalues ---    0.08289   0.09321   0.10696   0.13562   0.16000
     Eigenvalues ---    0.16000   0.16000   0.16000   0.16000   0.16000
     Eigenvalues ---    0.18986   0.20999   0.22000   0.22000   0.23234
     Eigenvalues ---    0.24997   0.25000   0.27444   0.28793   0.28840
     Eigenvalues ---    0.29089   0.31875   0.32978   0.34038   0.34058
     Eigenvalues ---    0.34105   0.34189   0.34260   0.34290   0.34311
     Eigenvalues ---    0.34326   0.34330   0.34352   0.34397   0.34678
     Eigenvalues ---    0.35293   0.48579   0.49786   0.53241   0.57681
     Eigenvalues ---    0.94379
 RFO step:  Lambda=-1.27521312D-02 EMin= 2.84377593D-03
 Linear search not attempted -- first point.
 Iteration  1 RMS(Cart)=  0.09430882 RMS(Int)=  0.00388412
 Iteration  2 RMS(Cart)=  0.00546448 RMS(Int)=  0.00030062
 Iteration  3 RMS(Cart)=  0.00001778 RMS(Int)=  0.00030047
 Iteration  4 RMS(Cart)=  0.00000000 RMS(Int)=  0.00030047
 Variable       Old X    -DE/DX   Delta X   Delta X   Delta X     New X
                                 (Linear)    (Quad)   (Total)
    R1        2.05202  -0.00017   0.00000  -0.00046  -0.00046   2.05156
    R2        2.52824  -0.00444   0.00000  -0.00753  -0.00753   2.52071
    R3        2.82391   0.00281   0.00000   0.00819   0.00819   2.83210
    R4        2.61327  -0.00338   0.00000  -0.00678  -0.00678   2.60649
    R5        2.06200  -0.00276   0.00000  -0.00767  -0.00767   2.05433
    R6        2.82961  -0.02107   0.00000  -0.06306  -0.06267   2.76694
    R7        2.78263  -0.00820   0.00000  -0.02277  -0.02243   2.76021
    R8        2.88768  -0.00051   0.00000  -0.00297  -0.00305   2.88463
    R9        2.07012  -0.00341   0.00000  -0.00961  -0.00961   2.06051
   R10        2.90338   0.00143   0.00000   0.00475   0.00475   2.90813
   R11        2.87447   0.00410   0.00000   0.01627   0.01578   2.89025
   R12        2.06739  -0.00427   0.00000  -0.01198  -0.01198   2.05541
   R13        2.07265  -0.00428   0.00000  -0.01213  -0.01213   2.06053
   R14        2.87980   0.00043   0.00000   0.00094   0.00080   2.88060
   R15        2.07232  -0.00296   0.00000  -0.00836  -0.00836   2.06396
   R16        2.06666  -0.00415   0.00000  -0.01162  -0.01162   2.05504
   R17        2.06894  -0.00242   0.00000  -0.00680  -0.00680   2.06213
   R18        2.07153  -0.00037   0.00000  -0.00105  -0.00105   2.07048
   R19        2.30978  -0.04104   0.00000  -0.04291  -0.04291   2.26687
   R20        2.56729  -0.02435   0.00000  -0.04467  -0.04467   2.52262
   R21        1.86782  -0.01145   0.00000  -0.02242  -0.02242   1.84540
   R22        2.06783  -0.00126   0.00000  -0.00355  -0.00355   2.06428
   R23        2.06777  -0.00134   0.00000  -0.00376  -0.00376   2.06401
   R24        2.06843  -0.00279   0.00000  -0.00785  -0.00785   2.06058
    A1        2.09942  -0.00172   0.00000  -0.01105  -0.01105   2.08837
    A2        2.02300   0.00321   0.00000   0.01744   0.01744   2.04044
    A3        2.16077  -0.00149   0.00000  -0.00639  -0.00639   2.15437
    A4        2.23245  -0.00767   0.00000  -0.03296  -0.03296   2.19949
    A5        2.08073   0.00372   0.00000   0.01582   0.01582   2.09655
    A6        1.96995   0.00395   0.00000   0.01713   0.01713   1.98709
    A7        2.15483  -0.00478   0.00000  -0.02162  -0.02273   2.13210
    A8        2.17316  -0.00772   0.00000  -0.03694  -0.03768   2.13549
    A9        1.91842   0.01213   0.00000   0.04082   0.04050   1.95892
   A10        1.81302  -0.00323   0.00000  -0.01214  -0.01200   1.80102
   A11        1.93840  -0.00062   0.00000  -0.00897  -0.00887   1.92953
   A12        1.93479   0.00606   0.00000   0.04867   0.04866   1.98345
   A13        1.95234   0.00164   0.00000   0.00604   0.00565   1.95800
   A14        1.93214  -0.00086   0.00000  -0.00612  -0.00618   1.92596
   A15        1.89304  -0.00278   0.00000  -0.02529  -0.02521   1.86783
   A16        1.80141  -0.00156   0.00000  -0.00795  -0.00814   1.79327
   A17        1.98614  -0.00256   0.00000  -0.02619  -0.02594   1.96020
   A18        1.91717   0.00005   0.00000  -0.01145  -0.01144   1.90573
   A19        1.95555   0.00387   0.00000   0.02998   0.02989   1.98544
   A20        1.91226   0.00016   0.00000   0.01126   0.01114   1.92340
   A21        1.88972   0.00004   0.00000   0.00455   0.00382   1.89354
   A22        1.80262  -0.00230   0.00000  -0.00628  -0.00664   1.79598
   A23        1.92233   0.00045   0.00000   0.00387   0.00394   1.92627
   A24        1.96808   0.00126   0.00000   0.00296   0.00305   1.97113
   A25        1.92278   0.00120   0.00000   0.00400   0.00405   1.92683
   A26        1.96119  -0.00025   0.00000  -0.00637  -0.00620   1.95499
   A27        1.88633  -0.00033   0.00000   0.00184   0.00178   1.88811
   A28        1.82817  -0.00648   0.00000  -0.02701  -0.02652   1.80166
   A29        1.94977   0.00026   0.00000  -0.01243  -0.01219   1.93757
   A30        1.91644   0.00128   0.00000   0.00058   0.00064   1.91709
   A31        1.93965   0.00398   0.00000   0.03194   0.03140   1.97104
   A32        1.92416   0.00350   0.00000   0.02092   0.02078   1.94494
   A33        1.90479  -0.00249   0.00000  -0.01359  -0.01408   1.89071
   A34        2.17808  -0.01059   0.00000  -0.04025  -0.04027   2.13782
   A35        1.96132   0.02341   0.00000   0.08916   0.08914   2.05046
   A36        2.14359  -0.01282   0.00000  -0.04872  -0.04874   2.09486
   A37        1.85963  -0.00244   0.00000  -0.01411  -0.01411   1.84552
   A38        1.91781   0.00395   0.00000   0.02315   0.02307   1.94088
   A39        1.91786   0.00372   0.00000   0.02156   0.02148   1.93934
   A40        1.95983  -0.00279   0.00000  -0.01645  -0.01637   1.94346
   A41        1.89090  -0.00372   0.00000  -0.02093  -0.02117   1.86973
   A42        1.88793  -0.00071   0.00000  -0.00414  -0.00406   1.88387
   A43        1.88790  -0.00068   0.00000  -0.00441  -0.00433   1.88357
    D1        0.00526   0.00035   0.00000   0.00837   0.00837   0.01363
    D2        3.13621   0.00029   0.00000   0.00676   0.00676  -3.14022
    D3       -3.13713   0.00037   0.00000   0.00897   0.00897  -3.12816
    D4       -0.00618   0.00031   0.00000   0.00736   0.00735   0.00117
    D5       -1.04018  -0.00003   0.00000   0.00038   0.00025  -1.03992
    D6        1.03886   0.00012   0.00000   0.00219   0.00232   1.04118
    D7        3.14093  -0.00002   0.00000   0.00057   0.00057   3.14151
    D8        2.10219  -0.00005   0.00000  -0.00018  -0.00032   2.10187
    D9       -2.10197   0.00011   0.00000   0.00162   0.00175  -2.10021
   D10        0.00011  -0.00003   0.00000   0.00000   0.00000   0.00011
   D11       -3.04745   0.00063   0.00000   0.06123   0.06016  -2.98729
   D12       -0.22324   0.00110   0.00000  -0.00654  -0.00548  -0.22872
   D13        0.10422   0.00069   0.00000   0.06274   0.06167   0.16590
   D14        2.92844   0.00116   0.00000  -0.00503  -0.00397   2.92447
   D15        2.64821  -0.00268   0.00000  -0.06754  -0.06821   2.58000
   D16        0.54668  -0.00240   0.00000  -0.06293  -0.06348   0.48320
   D17       -1.55916  -0.00255   0.00000  -0.05770  -0.05826  -1.61743
   D18       -0.21634  -0.00032   0.00000   0.00256   0.00281  -0.21353
   D19       -2.31787  -0.00004   0.00000   0.00717   0.00754  -2.31033
   D20        1.85947  -0.00020   0.00000   0.01239   0.01276   1.87223
   D21       -3.06701   0.00062   0.00000   0.05458   0.05459  -3.01241
   D22        1.11471  -0.00032   0.00000   0.03947   0.03949   1.15420
   D23       -1.00111   0.00178   0.00000   0.06449   0.06464  -0.93647
   D24       -0.20599  -0.00115   0.00000  -0.01326  -0.01367  -0.21966
   D25       -2.30747  -0.00209   0.00000  -0.02836  -0.02876  -2.33623
   D26        1.85990   0.00001   0.00000  -0.00335  -0.00361   1.85629
   D27        0.55107   0.00057   0.00000   0.00475   0.00471   0.55578
   D28        2.67448   0.00287   0.00000   0.02179   0.02171   2.69619
   D29       -1.48697   0.00117   0.00000   0.00103   0.00112  -1.48585
   D30        2.64316  -0.00128   0.00000  -0.01020  -0.01020   2.63296
   D31       -1.51662   0.00102   0.00000   0.00684   0.00680  -1.50982
   D32        0.60511  -0.00067   0.00000  -0.01392  -0.01379   0.59132
   D33       -1.52655  -0.00430   0.00000  -0.04261  -0.04266  -1.56921
   D34        0.59685  -0.00200   0.00000  -0.02557  -0.02565   0.57119
   D35        2.71859  -0.00369   0.00000  -0.04633  -0.04624   2.67234
   D36       -3.12241  -0.00012   0.00000  -0.05433  -0.05460   3.10617
   D37       -0.00145   0.00007   0.00000  -0.04480  -0.04506  -0.04651
   D38       -1.11995  -0.00100   0.00000  -0.04402  -0.04392  -1.16387
   D39        2.00101  -0.00081   0.00000  -0.03448  -0.03438   1.96663
   D40        1.02825  -0.00136   0.00000  -0.05734  -0.05718   0.97108
   D41       -2.13397  -0.00117   0.00000  -0.04780  -0.04763  -2.18160
   D42       -0.68014  -0.00128   0.00000  -0.01522  -0.01510  -0.69524
   D43        1.37304  -0.00093   0.00000  -0.01219  -0.01219   1.36085
   D44       -2.80142  -0.00018   0.00000  -0.00509  -0.00502  -2.80643
   D45       -2.82404   0.00070   0.00000   0.00520   0.00548  -2.81856
   D46       -0.77086   0.00106   0.00000   0.00824   0.00839  -0.76247
   D47        1.33786   0.00180   0.00000   0.01533   0.01557   1.35343
   D48        1.36138  -0.00196   0.00000  -0.02751  -0.02761   1.33378
   D49       -2.86862  -0.00161   0.00000  -0.02448  -0.02469  -2.89331
   D50       -0.75990  -0.00086   0.00000  -0.01738  -0.01752  -0.77742
   D51        0.54788   0.00029   0.00000   0.01277   0.01277   0.56064
   D52        2.65606  -0.00120   0.00000  -0.00137  -0.00167   2.65439
   D53       -1.51278   0.00067   0.00000   0.01682   0.01689  -1.49589
   D54       -1.50499   0.00046   0.00000   0.00983   0.00994  -1.49506
   D55        0.60320  -0.00103   0.00000  -0.00431  -0.00450   0.59869
   D56        2.71754   0.00084   0.00000   0.01388   0.01406   2.73159
   D57        2.67380   0.00022   0.00000   0.00898   0.00903   2.68283
   D58       -1.50120  -0.00127   0.00000  -0.00517  -0.00541  -1.50661
   D59        0.61314   0.00060   0.00000   0.01302   0.01315   0.62629
   D60        0.02244  -0.00150   0.00000  -0.04443  -0.04442  -0.02197
   D61       -3.13931  -0.00129   0.00000  -0.03504  -0.03505   3.10882
         Item               Value     Threshold  Converged?
 Maximum Force            0.041042     0.000450     NO 
 RMS     Force            0.005977     0.000300     NO 
 Maximum Displacement     0.418512     0.001800     NO 
 RMS     Displacement     0.094372     0.001200     NO 
 Predicted change in Energy=-6.979582D-03
 GradGradGradGradGradGradGradGradGradGradGradGradGradGradGradGradGradGrad

                          Input orientation:                          
 ---------------------------------------------------------------------
 Center     Atomic      Atomic             Coordinates (Angstroms)
 Number     Number       Type             X           Y           Z
 ---------------------------------------------------------------------
      1          1           0        2.253292   -0.968223    0.923366
      2          6           0        2.319912   -0.351742    0.032228
      3          6           0        1.209667    0.162335   -0.499165
      4          7           0       -0.071264    0.003201   -0.013001
      5          6           0       -1.249614    0.443405   -0.762400
      6          6           0       -2.317233   -0.570677   -0.359945
      7          6           0       -1.924298   -0.922584    1.075674
      8          6           0       -0.403056   -0.989873    1.005421
      9          1           0        0.077439   -0.751432    1.955716
     10          1           0       -1.049690    0.427336   -1.834171
     11          6           0       -1.707086    1.870087   -0.410885
     12          1           0       -3.323875   -0.169331   -0.452874
     13          1           0       -2.235218   -1.450229   -0.999161
     14          1           0       -2.239183   -0.132220    1.760563
     15          1           0       -2.358450   -1.859640    1.416330
     16          1           0       -0.060404   -1.979987    0.684933
     17          8           0       -2.634142    2.402014   -0.955500
     18          8           0       -1.037541    2.512887    0.548547
     19          1           0       -0.357567    1.886214    0.862484
     20          1           0        1.267410    0.779643   -1.392135
     21          6           0        3.688188   -0.127406   -0.536588
     22          1           0        4.343590    0.357711    0.190307
     23          1           0        4.159157   -1.073197   -0.813414
     24          1           0        3.649966    0.501509   -1.426533
 ---------------------------------------------------------------------
                    Distance matrix (angstroms):
                    1          2          3          4          5
     1  H    0.000000
     2  C    1.085640   0.000000
     3  C    2.095449   1.333903   0.000000
     4  N    2.687751   2.417799   1.379298   0.000000
     5  C    4.135800   3.742353   2.489248   1.464202   0.000000
     6  C    4.763888   4.658847   3.604957   2.343947   1.526481
     7  C    4.180615   4.407716   3.671362   2.340091   2.387392
     8  C    2.657703   2.961228   2.488420   1.460639   2.428196
     9  H    2.418074   2.981316   2.853655   2.113630   3.252208
    10  H    4.523415   3.929966   2.637644   2.110419   1.090377
    11  C    5.051813   4.620561   3.381073   2.513859   1.538917
    12  H    5.799746   5.667534   4.545894   3.286752   2.184906
    13  H    4.906645   4.797880   3.836351   2.787054   2.147864
    14  H    4.645658   4.880644   4.133727   2.804237   2.770548
    15  H    4.722902   5.106523   4.526473   3.277863   3.358630
    16  H    2.536475   2.956876   2.757664   2.102443   3.062976
    17  O    6.227009   5.753385   4.472055   3.634688   2.406316
    18  O    4.805018   4.443555   3.416539   2.747281   2.458926
    19  H    3.868863   3.587014   2.698531   2.096230   2.348977
    20  H    3.064073   2.101572   1.087107   2.072902   2.616301
    21  C    2.212999   1.498685   2.495680   3.797984   4.975812
    22  H    2.581632   2.150252   3.214812   4.433728   5.674409
    23  H    2.580648   2.149053   3.213220   4.437990   5.617604
    24  H    3.103681   2.150596   2.632510   4.011725   4.944727
                    6          7          8          9         10
     6  C    0.000000
     7  C    1.529457   0.000000
     8  C    2.388310   1.524349   0.000000
     9  H    3.336078   2.193335   1.091234   0.000000
    10  H    2.185415   3.324819   3.238811   4.125913   0.000000
    11  C    2.516387   3.171127   3.447577   3.956980   2.130597
    12  H    1.087677   2.205145   3.366169   4.208217   2.726887
    13  H    1.090383   2.163336   2.754468   3.816805   2.372334
    14  H    2.166770   1.092200   2.162677   2.405878   3.827546
    15  H    2.195057   1.087478   2.179199   2.729949   4.184360
    16  H    2.858532   2.178275   1.095649   1.772918   3.622123
    17  O    3.048280   3.960114   4.508642   5.076620   2.679908
    18  O    3.459962   3.587013   3.588960   3.725464   3.166547
    19  H    3.372082   3.223266   2.879996   2.888177   3.143136
    20  H    3.967172   4.378888   3.416127   3.868893   2.385051
    21  C    6.024349   5.893360   4.456447   4.431534   4.943577
    22  H    6.747685   6.458285   5.001104   4.748359   5.761148
    23  H    6.511666   6.371794   4.912117   4.942877   5.515943
    24  H    6.155864   6.273874   4.956370   5.076654   4.717885
                   11         12         13         14         15
    11  C    0.000000
    12  H    2.602882   0.000000
    13  H    3.413134   1.767569   0.000000
    14  H    3.001258   2.465206   3.058307   0.000000
    15  H    4.204028   2.698724   2.453039   1.765418   0.000000
    16  H    4.328446   3.901708   2.801185   3.052589   2.414631
    17  O    1.199577   2.709277   3.873090   3.735684   4.885006
    18  O    1.334913   3.663941   4.419968   3.147939   4.649391
    19  H    1.855513   3.841148   4.257129   2.901914   4.282721
    20  H    3.316556   4.781492   4.170751   4.802833   5.291517
    21  C    5.754542   7.012688   6.086919   6.356938   6.586073
    22  H    6.265732   7.712424   6.925619   6.785178   7.164993
    23  H    6.575542   7.546041   6.408173   6.960571   6.933214
    24  H    5.621615   7.073366   6.215088   6.726163   7.053932
                   16         17         18         19         20
    16  H    0.000000
    17  O    5.340139   0.000000
    18  O    4.599926   2.196266   0.000000
    19  H    3.881667   2.958700   0.976545   0.000000
    20  H    3.700387   4.247923   3.476087   2.991380   0.000000
    21  C    4.356158   6.822412   5.520977   4.730772   2.723025
    22  H    5.010454   7.360760   5.807727   4.988890   3.484972
    23  H    4.568589   7.631919   6.459149   5.653985   3.482834
    24  H    4.937910   6.582082   5.469855   4.818436   2.398982
                   21         22         23         24
    21  C    0.000000
    22  H    1.092367   0.000000
    23  H    1.092229   1.757546   0.000000
    24  H    1.090411   1.765209   1.764905   0.000000
 Stoichiometry    C8H13NO2
 Framework group  C1[X(C8H13NO2)]
 Deg. of freedom    66
 Full point group                 C1      NOp   1
 Largest Abelian subgroup         C1      NOp   1
 Largest concise Abelian subgroup C1      NOp   1
                         Standard orientation:                         
 ---------------------------------------------------------------------
 Center     Atomic      Atomic             Coordinates (Angstroms)
 Number     Number       Type             X           Y           Z
 ---------------------------------------------------------------------
      1          1           0       -2.848991    0.909149    0.735587
      2          6           0       -2.752202    0.024221    0.114179
      3          6           0       -1.548093   -0.345429   -0.324888
      4          7           0       -0.355102    0.291543   -0.053774
      5          6           0        0.892752   -0.070610   -0.728748
      6          6           0        1.647179    1.254465   -0.800592
      7          6           0        1.184394    1.975400    0.466420
      8          6           0       -0.298240    1.627662    0.533609
      9          1           0       -0.688365    1.624042    1.552717
     10          1           0        0.687739   -0.481803   -1.717591
     11          6           0        1.723913   -1.119093    0.031594
     12          1           0        2.724302    1.113880   -0.856127
     13          1           0        1.323969    1.803400   -1.685545
     14          1           0        1.707758    1.581670    1.340473
     15          1           0        1.349766    3.049517    0.427255
     16          1           0       -0.899870    2.322160   -0.063183
     17          8           0        2.756507   -1.555698   -0.395150
     18          8           0        1.261992   -1.531981    1.214026
     19          1           0        0.439582   -1.028329    1.367702
     20          1           0       -1.442551   -1.229504   -0.948644
     21          6           0       -4.012131   -0.722546   -0.203585
     22          1           0       -4.505149   -1.071036    0.706774
     23          1           0       -4.724833   -0.085121   -0.731516
     24          1           0       -3.811067   -1.591818   -0.830430
 ---------------------------------------------------------------------
 Rotational constants (GHZ):           1.7263851           0.7165014           0.5810190
 Standard basis: def2TZVPP (5D, 7F)
 There are   591 symmetry adapted cartesian basis functions of A   symmetry.
 There are   523 symmetry adapted basis functions of A   symmetry.
   523 basis functions,   782 primitive gaussians,   591 cartesian basis functions
    42 alpha electrons       42 beta electrons
       nuclear repulsion energy       640.4259166546 Hartrees.
 NAtoms=   24 NActive=   24 NUniq=   24 SFac= 1.00D+00 NAtFMM=   60 NAOKFM=F Big=F
 Integral buffers will be    131072 words long.
 Raffenetti 2 integral format.
 Two-electron integral symmetry is turned on.
 Nuclear repulsion after empirical dispersion term =      640.4250128947 Hartrees.
 ------------------------------------------------------------------------------
 Polarizable Continuum Model (PCM)
 =================================
 Model                : PCM.
 Atomic radii         : SMD-Coulomb.
 Polarization charges : Total charges.
 Charge compensation  : None.
 Solution method      : On-the-fly selection.
 Cavity type          : VdW (van der Waals Surface) (Alpha=1.000).
 Cavity algorithm     : GePol (No added spheres)
                        Default sphere list used, NSphG=   24.
                        Lebedev-Laikov grids with approx.  5.0 points / Ang**2.
                        Smoothing algorithm: York/Karplus (Gamma=1.0000).
                        Polarization charges: spherical gaussians, with
                                              point-specific exponents (IZeta= 3).
                        Self-potential: point-specific (ISelfS= 7).
                        Self-field    : sphere-specific E.n sum rule (ISelfD= 2).
 1st derivatives      : Analytical E(r).r(x)/FMM algorithm (CHGder, D1EAlg=3).
                        Cavity 1st derivative terms included.
 Solvent              : Chloroform, Eps=   4.711300 Eps(inf)=   2.090627
 ------------------------------------------------------------------------------
 ------------------------------------------------------------------------------
 Atomic radii for non-electrostatic terms: SMD-CDS.
 ------------------------------------------------------------------------------
 Nuclear repulsion after PCM non-electrostatic terms =      640.4204377398 Hartrees.
 One-electron integrals computed using PRISM.
   1 Symmetry operations used in ECPInt.
 ECPInt:  NShTT=   19900 NPrTT=   52931 LenC2=   18787 LenP2D=   39612.
 LDataN:  DoStor=T MaxTD1= 6 Len=  172
 NBasis=   523 RedAO= T EigKep=  7.68D-05  NBF=   523
 NBsUse=   523 1.00D-06 EigRej= -1.00D+00 NBFU=   523
 Initial guess from the checkpoint file:  "/gpfs/summit/scratch/jvalegre@colostate.edu/1580876/Gau-78940.chk"
 B after Tr=     0.000000   -0.000000    0.000000
         Rot=    0.999699   -0.001435   -0.007948   -0.023182 Ang=  -2.81 deg.
 ExpMin= 9.52D-02 ExpMax= 2.70D+04 ExpMxC= 9.22D+02 IAcc=2 IRadAn=         4 AccDes= 0.00D+00
 Harris functional with IExCor= 1009 and IRadAn=       4 diagonalized for initial guess.
 HarFok:  IExCor= 1009 AccDes= 0.00D+00 IRadAn=         4 IDoV= 1 UseB2=F ITyADJ=14
 ICtDFT=  3500011 ScaDFX=  1.000000  1.000000  1.000000  1.000000
 FoFCou: FMM=F IPFlag=           0 FMFlag=      100000 FMFlg1=           0
         NFxFlg=           0 DoJE=T BraDBF=F KetDBF=T FulRan=T
         wScrn=  0.000000 ICntrl=       500 IOpCl=  0 I1Cent=   200000004 NGrid=           0
         NMat0=    1 NMatS0=      1 NMatT0=    0 NMatD0=    1 NMtDS0=    0 NMtDT0=    0
 Petite list used in FoFCou.
 Requested convergence on RMS density matrix=1.00D-08 within 128 cycles.
 Requested convergence on MAX density matrix=1.00D-06.
 Requested convergence on             energy=1.00D-06.
 No special actions if energy rises.
 Inv3:  Mode=1 IEnd=     9398700.
 Iteration    1 A*A^-1 deviation from unit magnitude is 6.66D-15 for   1770.
[...]
 0.00013739,-0.00058027,-0.00573375,0.00056731,-0.00093309,0.00173035,-
 0.00025410,0.00019331,0.08208031,-0.00042705,0.00009339,-0.00041278,-0
 .00083961,0.00032839,-0.00017622,0.00568298,0.00164919,-0.00149951,0.0
 0220172,-0.03353557,0.00505869,-0.00215564,-0.00128140,-0.00206043,0.0
 0000779,-0.00013746,0.00058962,-0.00084562,0.00279263,0.00057075,0.069
 08558,-0.22448279,-0.08773465,0.00232582,-0.00386275,-0.00378207,0.000
 16676,-0.00018320,0.00010448,-0.00006286,0.00012502,-0.00021725,0.0001
 1915,0.00014237,0.00006796,0.00024656,-0.00003004,0.00017022,-0.001029
 62,0.00127642,0.00011606,0.00038104,0.00077951,0.00012698,-0.07543868,
 0.25602087,0.00022617,0.00061961,0.00001785,0.00081906,-0.00187698,0.0
 0062675,-0.00390610,0.00070887,0.00148593,-0.00434776,0.02677876,0.006
 32591,0.00131997,0.00100945,0.00112440,-0.00012637,0.00005077,0.000514
 15,0.00158987,-0.00174857,-0.00225346,0.03075399,-0.08887174,-0.093711
 14,0.00948419,-0.02412722,-0.01071214,0.00014436,-0.00000697,0.0000607
 5,-0.00002444,0.00024101,-0.00002665,0.00009999,-0.00001661,-0.0000122
 2,-0.00029888,-0.00020879,0.00032076,0.00091842,0.00024997,0.00107720,
 0.00020904,-0.00004331,0.00023027,-0.03599080,0.08743201,0.09622588,0.
 00001640,0.00003362,0.00001901,-0.00130111,0.00044281,-0.00004467,0.00
 455080,0.00061075,-0.00211432,-0.00538450,0.00852934,0.00088089,-0.003
 94633,0.01754506,-0.01883655,-0.00535623,-0.00027555,0.00216689,0.0007
 2717,0.00031890,-0.00013771,-0.00148536,-0.00107935,0.00123168,0.00000
 197,0.00028434,-0.00033909,-0.00004075,-0.00198810,-0.00085595,-0.4366
 6204,0.22692751,-0.25153900,0.00179537,0.00025381,-0.00027689,0.001574
 30,0.00096502,-0.00054035,-0.00019366,0.00002036,-0.00004101,0.0000110
 5,0.00016403,-0.00036959,-0.00006100,0.00079211,-0.00033317,0.48740265
 ,-0.00006490,-0.00007527,-0.00006337,0.00151293,-0.00016177,-0.0002565
 3,-0.00342115,-0.00163246,0.00269666,0.00803101,-0.00773800,0.00176900
 ,0.02859454,-0.00721904,0.01781587,0.00320059,0.00250089,0.00047213,-0
 .00026654,-0.00090850,-0.00064776,0.00217966,0.00101105,-0.00056353,0.
 00017008,-0.00052312,0.00037689,0.00082402,-0.00030604,0.00078075,0.21
 244465,-0.23391384,0.13799170,0.00046449,-0.00011296,-0.00018989,-0.00
 050252,-0.00086051,0.00028922,-0.00005693,0.00008695,0.00007149,0.0000
 9764,-0.00019320,0.00057016,-0.00001135,-0.00071674,0.00020363,-0.2400
 0177,0.21475438,0.00000409,-0.00001227,0.00000884,-0.00080283,0.000289
 34,-0.00004537,0.00296443,0.00038633,-0.00128614,-0.00410851,0.0038211
 8,0.00298126,-0.00846779,0.00291937,0.01090687,-0.00113790,-0.00252719
 ,0.00068990,0.00039151,-0.00010614,-0.00018971,-0.00026615,-0.00101423
 ,0.00137841,0.00002409,-0.00008420,-0.00007950,-0.00107391,0.00314153,
 0.00186323,-0.25885951,0.15290850,-0.26837549,0.00052287,0.00009128,-0
 .00023079,0.00026919,0.00011178,-0.00014394,-0.00008646,0.00001716,0.0
 0013762,0.00001699,0.00007815,-0.00001819,-0.00002886,0.00044113,-0.00
 011865,0.34535520,-0.15411678,0.31191917,-0.00002483,-0.00003854,-0.00
 004229,-0.00119527,0.00054702,-0.00043232,0.00589517,-0.00068577,-0.00
 174642,-0.00277655,0.01654596,0.00813584,0.01007998,0.00576208,-0.0123
 6484,-0.00117312,0.00254831,0.00190399,-0.00019176,0.00005963,0.000235
 11,-0.00065144,-0.00105271,0.00286105,0.00000892,-0.00006290,-0.000393
 41,0.00064155,-0.00212184,0.00085156,-0.10387118,-0.04458607,-0.072748
 19,0.00043815,0.00004996,0.00010204,0.00049994,0.00034539,-0.00028087,
 -0.00012992,-0.00046193,-0.00001055,0.00020820,-0.00005918,0.00001593,
 0.00005716,0.00095612,-0.00062912,-0.04876649,-0.01299697,-0.07473546,
 0.36048078,-0.00006376,-0.00008894,-0.00011087,0.00190477,-0.00033825,
 0.00030691,-0.00611756,-0.00092085,0.00253413,0.00512305,-0.01356222,-
 0.00818950,-0.00975771,-0.01594316,-0.03423338,0.00213859,-0.00100375,
 -0.00188770,-0.00034690,-0.00078328,-0.00011889,0.00097076,0.00154356,
 -0.00202520,0.00020362,-0.00034990,0.00065190,0.00149515,-0.00627610,-
 0.00083945,-0.00358817,-0.20136456,-0.08191492,-0.00042130,0.00001263,
 0.00016380,-0.00110007,-0.00114419,0.00083962,-0.00035583,-0.00106384,
 0.00050900,-0.00005288,-0.00006823,0.00041031,0.00002792,-0.00076612,0
 .00040014,-0.00563145,0.03810766,0.00678582,-0.15240141,0.40415168,0.0
 0001042,-0.00007408,-0.00000570,-0.00050362,0.00028117,-0.00021327,0.0
 0320417,-0.00009353,-0.00057336,-0.00293645,0.00847415,0.00655444,-0.0
 2014963,-0.01703553,-0.00377261,0.00402017,-0.00265787,-0.00383307,0.0
 0003236,-0.00046359,-0.00109164,0.00002399,-0.00129930,0.00107067,0.00
 025577,-0.00036031,-0.00011974,0.00074719,0.00005649,0.00057308,-0.050
 13867,-0.12458189,-0.17818329,0.00044970,0.00062904,-0.00021077,-0.001
 42530,-0.00153509,0.00111985,-0.00015981,0.00041291,0.00028996,0.00011
 741,0.00012093,0.00060851,-0.00012836,0.00033145,-0.00017624,-0.070641
 95,-0.00128836,-0.05928139,0.25713352,0.04353188,0.32619155,0.00004739
 ,0.00012368,0.00011072,0.00027038,-0.00034588,0.00014286,-0.00420823,0
 .00223881,0.00247792,-0.00112938,-0.00581333,-0.00158511,0.00148750,-0
 .00005826,0.00260816,-0.00049026,0.00004582,0.00003057,0.00045754,-0.0
 0052030,-0.00031107,0.00068236,0.00037816,-0.00178677,-0.00001312,0.00
 000536,0.00018292,-0.00077380,0.00100106,-0.00021040,-0.02988471,0.005
 30859,-0.02501249,-0.00013487,-0.00010312,-0.00009792,0.00023448,0.000
 24725,-0.00005403,-0.00026136,0.00015325,0.00033960,-0.00020186,0.0001
 5303,0.00004295,-0.00012291,-0.00059801,0.00038095,0.00765953,-0.00075
 786,0.00038393,-0.21898814,0.16712795,-0.11949563,0.24506224,0.0000355
 2,-0.00005779,0.00003392,-0.00296549,0.00112792,-0.00065345,0.01191425
 ,-0.00032832,-0.00464696,-0.00685575,0.01254560,0.01078590,-0.00555490
 ,-0.00556643,-0.00774399,0.00037902,-0.00064946,-0.00042736,-0.0003336
 5,0.00000378,-0.00014382,-0.00104024,-0.00464743,0.00305298,0.00005692
 ,0.00021138,-0.00069959,0.00052629,-0.00014582,0.00062548,-0.00643110,
 0.02487038,0.00814024,0.00034187,0.00022666,0.00004839,-0.00020660,-0.
 00017740,0.00014328,-0.00010977,-0.00000438,0.00010286,0.00028382,0.00
 014751,0.00008614,-0.00019922,0.00131352,-0.00048133,-0.00782641,-0.00
 209557,-0.01307065,0.18782826,-0.19999417,0.09572229,-0.16840519,0.173
 15334,-0.00004817,0.00008276,-0.00002824,-0.00063826,0.00038155,-0.000
 24641,0.00326211,-0.00139515,-0.00141349,-0.00003364,0.00290396,-0.001
 28159,-0.00038586,-0.00214701,-0.00343171,-0.00068345,0.00024384,0.000
 54375,-0.00007713,0.00029213,0.00024648,-0.00058009,0.00054275,0.00192
 548,-0.00018385,0.00034999,-0.00026913,-0.00029762,0.00014461,0.000123
 28,-0.03157045,0.02115709,-0.02466215,0.00007551,0.00000385,-0.0000364
 5,0.00029344,0.00034141,-0.00023573,0.00029336,-0.00004343,-0.00011521
 ,0.00005090,-0.00002940,-0.00019723,0.00008654,0.00069178,-0.00044967,
 -0.00354353,-0.00583377,0.00003346,-0.10772603,0.07366968,-0.08893528,
 0.14181836,-0.09148950,0.11863356,-0.00334609,0.00342948,-0.00037420,0
 .00423833,0.01710625,-0.01739492,-0.05675173,-0.00570271,0.01249952,-0
 .00576279,-0.02301623,0.02542007,0.00023445,-0.00148475,0.00166934,0.0
 0012031,0.00001763,0.00010593,-0.00031498,-0.00147057,0.00096007,-0.00
 413909,0.00258076,0.00026814,-0.00003792,-0.00017268,0.00026776,-0.000
 32096,-0.00011610,-0.00034225,-0.00023080,0.00033668,0.00021025,-0.000
 01653,0.00001657,-0.00004421,0.00001424,0.00001516,-0.00004896,-0.0000
 3504,0.00004664,0.00001053,-0.00057059,0.00004954,0.00004879,0.0001736
 0,-0.00005388,-0.00022379,0.00003315,-0.00004170,-0.00005623,-0.000071
 79,0.00009853,-0.00022976,0.00011178,-0.00028576,0.00015832,0.06553192
 ,0.00324076,0.00431663,0.00484756,-0.00087464,-0.00551585,0.01442056,-
 0.00972098,-0.17274057,0.14443546,-0.00048641,0.00037541,0.00105913,0.
 00106059,-0.00004219,0.00072153,-0.00008307,0.00000021,-0.00019239,0.0
 0023477,0.00016372,0.00018411,-0.00017433,0.00202294,0.00125749,-0.000
 21319,-0.00034483,0.00021014,-0.00010186,0.00010477,-0.00056007,-0.000
 27852,0.00005803,0.00005286,0.00000123,-0.00000786,-0.00000894,-0.0000
 2505,-0.00002859,0.00000025,-0.00005446,-0.00000429,-0.00000371,0.0000
 1428,0.00001018,-0.00006613,0.00031655,0.00026668,-0.00030713,-0.00007
 701,0.00004253,-0.00003977,-0.00016361,-0.00011993,-0.00004973,-0.0000
 4714,0.00006003,0.00004387,0.00884010,0.17396874,-0.00013185,0.0046854
 6,0.00437973,0.00223290,0.00956483,-0.00271319,0.01470322,0.14306241,-
 0.19899258,0.00347093,0.01027213,-0.01072584,-0.00116895,-0.00083306,-
 0.00026647,0.00007727,0.00015082,0.00003637,-0.00015361,0.00057970,-0.
 00017507,0.00121879,-0.00137393,0.00268349,-0.00019501,-0.00012292,0.0
 0002043,-0.00002821,-0.00014037,0.00059826,0.00064461,0.00031775,0.000
 32137,0.00002506,-0.00002806,0.00006532,0.00000282,0.00000443,0.000000
 51,0.00002436,-0.00001772,-0.00001195,0.00026068,-0.00004815,0.0000793
 0,0.00011665,0.00037567,-0.00024649,0.00007039,-0.00022007,-0.00007262
 ,-0.00009191,-0.00052547,0.00006839,0.00013542,0.00063182,-0.00022303,
 -0.02094405,-0.16195616,0.20710868,0.00053528,0.00042046,-0.00025506,-
 0.20715632,-0.01691242,0.05523308,-0.02938830,-0.00227988,0.00943800,-
 0.00040928,0.00212031,0.00032288,0.00034744,0.00013496,0.00093812,0.00
 006435,0.00004518,-0.00001078,-0.00004755,-0.00019635,0.00013881,0.000
 07524,0.00062855,-0.00047369,-0.00004139,0.00001950,0.00014284,0.00008
 687,-0.00001681,-0.00011404,-0.00001717,-0.00006823,-0.00004648,-0.000
 01675,-0.00002548,0.00002560,-0.00000683,-0.00000981,-0.00000427,0.000
 03504,-0.00001504,0.00000057,-0.00004020,-0.00001104,-0.00000346,0.000
 04796,-0.00020581,-0.00011247,-0.00010380,0.00011606,-0.00004894,-0.00
 008452,0.00015555,-0.00004918,-0.00001847,-0.00018409,-0.00002283,0.00
 109628,-0.00202375,0.00021328,0.50969677,-0.01837904,-0.00011894,0.006
 69795,-0.02199059,-0.07916264,0.02149772,0.01239477,0.00308191,-0.0073
 6709,0.00468586,0.00326708,0.00658566,0.00104225,0.00163727,-0.0001073
 8,0.00050271,-0.00029472,0.00025165,0.00007032,0.00027150,0.00003430,-
 0.00031133,-0.00023568,0.00065159,-0.00027716,-0.00017859,-0.00021973,
 0.00021547,-0.00001214,-0.00006112,-0.00034022,0.00039539,-0.00012176,
 0.00017531,0.00017797,-0.00005336,0.00001229,0.00003555,-0.00000652,-0
 .00007443,-0.00000866,-0.00002884,0.00007009,-0.00001262,-0.00004293,0
 .00029736,0.00032660,-0.00006510,0.00013084,-0.00017219,0.00007063,0.0
 0011954,-0.00017514,-0.00005658,-0.00022353,0.00029633,0.00015200,0.00
 021592,-0.00320828,-0.00432444,-0.01474409,0.55968846,0.02070939,0.002
 04458,-0.00550960,0.05946451,0.02092345,-0.10224719,-0.00472914,-0.004
 28811,0.00450611,-0.00538147,0.00634006,0.00627675,0.00136759,0.000663
 37,0.00168332,0.00034590,0.00003277,0.00006127,-0.00002687,-0.00016354
 ,0.00020916,0.00062820,0.00143885,-0.00130558,-0.00011599,-0.00007185,
 0.00031853,0.00017674,-0.00003008,-0.00031658,0.00005459,-0.00022121,-
 0.00001845,0.00000383,0.00002505,0.00003492,-0.00000462,-0.00001510,-0
 .00000142,0.00001146,-0.00003047,-0.00001193,-0.00005866,-0.00004661,-
 0.00000684,0.00043416,-0.00044911,-0.00029166,-0.00037146,0.00040355,-
 0.00022436,-0.00026229,0.00041990,-0.00019443,0.00000702,-0.00062065,-
 0.00008542,-0.00237901,-0.00348853,-0.00237418,0.02237290,-0.01605346,
 0.55257975,0.00095209,0.00025710,0.00067367,-0.02380145,-0.00672254,-0
 .01978050,0.00071540,-0.00376471,0.00095445,-0.00361917,0.00207132,0.0
 0268847,0.00079040,-0.00011437,0.00080796,0.00002571,0.00009131,0.0000
 1893,0.00001896,-0.00006208,0.00005714,0.00012466,0.00069827,-0.000876
 00,-0.00000893,-0.00006982,0.00011445,0.00001859,-0.00000367,-0.000168
 88,0.00016888,-0.00026639,0.00000290,-0.00004448,-0.00002105,0.0000032
 8,0.00000239,-0.00001331,-0.00000027,-0.00002438,0.00000136,0.00000227
 ,-0.00005707,-0.00003057,0.00000920,0.00016438,-0.00019839,-0.00003800
 ,-0.00026241,0.00028487,-0.00013344,-0.00019323,0.00035469,-0.00006051
 ,0.00005513,-0.00052791,-0.00014313,-0.00023978,-0.00073004,-0.0006165
 1,-0.14818542,-0.05675927,-0.11776533,0.16654188,0.00004621,0.00008801
 ,0.00008325,-0.00189633,-0.00021091,-0.00187548,0.00150216,-0.00018165
 ,-0.00004817,-0.00129397,0.00002767,0.00044284,0.00020726,-0.00014137,
 0.00018061,-0.00001048,0.00003905,-0.00000086,-0.00000083,-0.00000029,
 0.00001441,0.00003962,0.00013083,-0.00035050,-0.00000115,0.00000383,0.
 00003875,-0.00002020,-0.00000524,-0.00005120,0.00011022,-0.00003907,0.
 00006070,-0.00002067,-0.00001213,0.00000431,0.00000162,-0.00000512,-0.
 00000040,-0.00000652,-0.00000129,0.00000199,-0.00001437,-0.00000760,0.
 00000598,0.00001661,-0.00008395,0.00001382,-0.00009677,0.00007589,-0.0
 0005847,-0.00009621,0.00007382,-0.00004660,0.00006634,-0.00016502,-0.0
 0004537,0.00005149,0.00030824,0.00019474,-0.05719282,-0.07610328,-0.06
 125836,0.06189902,0.07784887,-0.00099998,-0.00016821,0.00017561,0.0097
 8724,0.00513501,0.01297493,0.00003647,0.00065565,0.00053500,0.00156880
 ,-0.00090959,-0.00133308,-0.00032813,0.00000609,-0.00034848,-0.0000395
 7,-0.00002121,-0.00002032,0.00000154,0.00000870,-0.00003072,-0.0000575
 0,-0.00019441,0.00040478,0.00002585,0.00002272,-0.00003657,-0.00001464
 ,0.00001372,0.00008367,-0.00007019,0.00000806,-0.00003026,0.00000844,0
 .00000302,-0.00000293,0.00000261,0.00000702,0.00000077,0.00000626,0.00
 000627,0.00000174,0.00001398,0.00000902,-0.00000277,-0.00004903,0.0001
 2726,0.00002825,0.00008793,-0.00007485,0.00005660,0.00009534,-0.000105
 10,0.00006155,-0.00002646,0.00019293,0.00003770,0.00004775,-0.00007157
 ,0.00004309,-0.11596168,-0.06048576,-0.17628979,0.12612606,0.06830253,
 0.18809227,0.00087949,-0.00083995,-0.00041749,-0.01620709,0.02671858,0
 .00931198,0.00039003,-0.00082090,0.00332118,-0.00329503,-0.00050880,-0
 .00084503,0.00010056,-0.00080868,0.00037223,-0.00020587,0.00017606,-0.
 00006707,-0.00000103,-0.00009019,-0.00001985,0.00000895,0.00050288,-0.
 00050648,0.00008452,-0.00001640,0.00005027,-0.00007810,0.00002432,-0.0
 0006673,0.00026515,-0.00022813,0.00010409,-0.00008723,-0.00007961,0.00
 000836,-0.00001133,-0.00002990,-0.00000512,0.00000226,0.00000292,0.000
 00901,-0.00005790,-0.00001452,0.00002435,-0.00002001,-0.00018085,0.000
 03749,-0.00019099,0.00018381,-0.00010694,-0.00017205,0.00019785,-0.000
 04785,0.00014581,-0.00035981,-0.00011073,0.00013260,0.00078152,0.00082
 228,-0.07905161,0.08414846,0.03530615,0.00774616,-0.01785130,-0.006742
 92,0.09097428,0.00073652,0.00018066,-0.00028566,-0.00111256,0.00837835
 ,0.00304678,-0.00043506,0.00048155,-0.00025727,-0.00045235,0.00000632,
 -0.00022660,-0.00008046,-0.00017605,-0.00003349,-0.00003106,0.00003166
 ,-0.00002401,0.00001166,-0.00001323,-0.00000741,0.00005883,0.00002473,
 0.00000883,0.00000508,0.00000234,0.00003249,-0.00000374,-0.00000344,-0
 .00000485,-0.00000134,-0.00005032,-0.00002397,-0.00001467,-0.00001499,
 0.00000860,0.00000146,0.00000200,-0.00000052,0.00001065,-0.00000007,0.
 00000180,0.00000113,-0.00000001,-0.00000088,-0.00004978,-0.00001435,0.
 00002564,0.00000887,0.00001048,0.00000900,0.00002309,0.00005282,0.0000
 2110,-0.00001254,-0.00005413,-0.00000677,-0.00002536,-0.00001485,-0.00
 023896,0.08312163,-0.24154236,-0.08004249,0.00329826,-0.00988444,-0.00
 368766,-0.09160758,0.25932955,-0.00028910,0.00027737,0.00022838,0.0053
 1332,-0.00973432,-0.00299516,-0.00121236,0.00077785,-0.00052364,0.0019
 1775,-0.00037354,-0.00038526,-0.00022585,0.00050308,-0.00023800,0.0000
 8480,-0.00010366,0.00003730,-0.00002216,0.00003808,0.00001170,-0.00008
 123,-0.00038328,0.00031810,-0.00003231,0.00001722,-0.00005464,0.000011
 40,0.00000797,0.00006702,-0.00017347,0.00013745,-0.00006374,0.00004829
 ,0.00003999,-0.00000892,-0.00000138,0.00000880,0.00000269,-0.00000597,
 0.00000047,-0.00000625,0.00002853,0.00001549,-0.00000762,-0.00000219,0
 .00013234,0.00002140,0.00012742,-0.00011696,0.00006622,0.00011541,-0.0
 0015976,0.00003966,-0.00007759,0.00025772,0.00005962,-0.00001841,-0.00
 007825,0.00012014,0.03585773,-0.08103871,-0.08116535,0.00835005,-0.020
 44139,-0.00881337,-0.04045898,0.08974056,0.08320063,-0.00491027,-0.000
 20850,0.00189295,0.00076683,-0.02132839,0.02348128,0.00170354,-0.00139
 375,0.00091021,-0.00026161,0.00013331,0.00016926,0.00011141,-0.0001008
 6,0.00001476,-0.00004314,0.00000802,0.00001123,0.00004258,0.00007531,-
 0.00003279,-0.00019640,-0.00008607,0.00001922,-0.00000644,-0.00003103,
 -0.00008752,-0.00001809,-0.00000664,-0.00003986,0.00002602,-0.00000549
 ,0.00002381,-0.00000674,0.00000037,-0.00001515,0.00000284,-0.00000130,
 -0.00000224,-0.00002789,0.00000587,-0.00000007,-0.00000081,-0.00000626
 ,-0.00000209,0.00000174,0.00007037,0.00004741,-0.00001772,0.00001733,-
 0.00001936,-0.00001954,0.00003861,-0.00002799,0.00001298,-0.00008005,0
 .00000623,0.00015143,0.00056426,-0.00068854,-0.04741763,0.00901846,-0.
 00978762,-0.00088831,0.01456107,-0.01351818,-0.00135157,0.00654931,-0.
 00925369,0.05234680,-0.00061995,0.00135482,0.00050150,-0.00051806,-0.0
 0387006,0.00320641,0.00169959,0.00031056,-0.00113807,-0.00058766,0.000
 12312,-0.00007033,0.00005544,-0.00008961,0.00012516,-0.00003428,0.0000
 2567,0.00000095,0.00001167,0.00004013,-0.00002918,0.00010527,0.0000421
 6,-0.00005715,-0.00002555,-0.00003876,-0.00002281,-0.00001191,0.000003
 01,-0.00002275,0.00006274,-0.00001333,0.00004832,-0.00001231,-0.000006
 96,-0.00000236,-0.00000120,-0.00000731,0.00000007,-0.00001069,0.000000
 40,-0.00000133,0.00000373,-0.00000340,0.00000272,0.00003396,-0.0000202
 2,0.00002007,-0.00005096,0.00003940,-0.00004149,-0.00005822,0.00002048
 ,-0.00003896,0.00003585,-0.00007054,-0.00001087,-0.00043503,0.00032912
 ,-0.00001044,0.00712341,-0.16795280,0.13448798,0.00032789,0.00824515,-
 0.00877965,0.00070024,-0.01673223,0.02047548,-0.00779396,0.17827120,0.
 00228532,0.00030054,0.00060551,0.00001720,0.00828924,-0.01030701,-0.00
 239860,-0.00013199,0.00082894,0.00075953,-0.00046133,-0.00026901,-0.00
 014242,0.00012066,-0.00012064,0.00004337,-0.00003035,-0.00000215,-0.00
 004680,-0.00006089,0.00004954,-0.00009703,0.00003852,0.00012448,-0.000
 00897,0.00004189,0.00002342,0.00001114,0.00000783,0.00004070,-0.000035
 06,0.00009222,0.00000940,0.00001711,0.00000710,0.00000864,-0.00000407,
 0.00000144,0.00000082,0.00001525,-0.00000512,-0.00000070,-0.00000165,0
 .00000725,-0.00000200,0.00002122,-0.00000436,-0.00006118,0.00004583,-0
 .00006919,0.00002457,0.00001391,-0.00011284,0.00001311,-0.00000389,0.0
 0015336,0.00000740,0.00038930,-0.00041059,0.00027636,-0.00758092,0.134
 09126,-0.19562704,-0.00022628,0.01483288,-0.01558768,0.00002778,-0.008
 05427,0.01008908,0.00689873,-0.14864327,0.20987543\\-0.00000188,0.0000
 0205,0.00000097,0.00001129,0.00000037,0.00000090,-0.00000133,0.0000031
 9,0.00000298,0.00000104,-0.00000864,0.00000803,-0.00001244,-0.00002246
 ,0.00000746,0.00001162,0.00001069,-0.00001179,-0.00000188,-0.00000852,
 0.00000539,0.00000262,0.00002048,-0.00001143,0.00000019,-0.00000145,0.
 00000478,0.00000129,0.00000127,-0.00000664,0.00000597,0.00000755,0.000
 01788,-0.00000149,-0.00000628,-0.00000314,0.00000206,-0.00000659,-0.00
 000156,0.,0.00000156,-0.00000198,-0.00000002,-0.00000011,-0.00000226,0
 .00000328,-0.00000347,0.00000358,-0.00001216,0.00000160,-0.00001681,-0
 .00000046,-0.00001428,-0.00001453,-0.00000645,0.00000533,-0.00000148,-
 0.00000129,0.00000078,0.00000068,-0.00000312,0.00000205,0.00000632,-0.
 00000020,0.00000795,0.00000442,0.00000272,0.00000363,0.00000717,0.0000
 0062,0.00000331,0.00000106\\\@


 EXPERIENCE IS A WONDERFUL THING.  IT ENABLES
 YOU TO RECOGNIZE A MISTAKE WHEN YOU MAKE IT AGAIN.
           - BACK OF A SUGAR PACKET
 Job cpu time:       0 days 10 hours 13 minutes 47.4 seconds.
 Elapsed time:       0 days  0 hours 25 minutes 37.6 seconds.
 File lengths (MBytes):  RWF=   1160 Int=      0 D2E=      0 Chk=     40 Scr=     16
 Normal termination of Gaussian 16 at Mon Dec 31 14:35:08 2018.
