Job Start Time: Tue Jun 21 11:22:46 MDT 2022
SLURM Job ID: 40887
SLURM Job Name: DATS_13_exo_ii_TZVP
 Entering Gaussian System, Link 0=/opt/apps/Gaussian/G16C/g16/g16
 Initial command:
 /opt/apps/Gaussian/G16C/g16/l1.exe "/tmp/Gau-349973.inp" -scrdir="/tmp/"
 Entering Link 1 = /opt/apps/Gaussian/G16C/g16/l1.exe PID=    349974.
  
 Copyright (c) 1988-2019, Gaussian, Inc.  All Rights Reserved.
  
 This is part of the Gaussian(R) 16 program.  It is based on
 the Gaussian(R) 09 system (copyright 2009, Gaussian, Inc.),
 the Gaussian(R) 03 system (copyright 2003, Gaussian, Inc.),
 the Gaussian(R) 98 system (copyright 1998, Gaussian, Inc.),
 the Gaussian(R) 94 system (copyright 1995, Gaussian, Inc.),
 the Gaussian 92(TM) system (copyright 1992, Gaussian, Inc.),
 the Gaussian 90(TM) system (copyright 1990, Gaussian, Inc.),
 the Gaussian 88(TM) system (copyright 1988, Gaussian, Inc.),
 the Gaussian 86(TM) system (copyright 1986, Carnegie Mellon
 University), and the Gaussian 82(TM) system (copyright 1983,
 Carnegie Mellon University). Gaussian is a federally registered
 trademark of Gaussian, Inc.
  
 This software contains proprietary and confidential information,
 including trade secrets, belonging to Gaussian, Inc.
  
 This software is provided under written license and may be
 used, copied, transmitted, or stored only in accord with that
 written license.
  
 The following legend is applicable only to US Government
 contracts under FAR:
  
                    RESTRICTED RIGHTS LEGEND
  
 Use, reproduction and disclosure by the US Government is
 subject to restrictions as set forth in subparagraphs (a)
 and (c) of the Commercial Computer Software - Restricted
 Rights clause in FAR 52.227-19.
  
 Gaussian, Inc.
 340 Quinnipiac St., Bldg. 40, Wallingford CT 06492
  
  
 ---------------------------------------------------------------
 Warning -- This program may not be used in any manner that
 competes with the business of Gaussian, Inc. or will provide
 assistance to any competitor of Gaussian, Inc.  The licensee
 of this program is prohibited from giving any competitor of
 Gaussian, Inc. access to this program.  By using this program,
 the user acknowledges that Gaussian, Inc. is engaged in the
 business of creating and licensing software in the field of
 computational chemistry and represents and warrants to the
 licensee that it is not a competitor of Gaussian, Inc. and that
 it will not use this program in any manner prohibited above.
 ---------------------------------------------------------------
  

 Cite this work as:
 Gaussian 16, Revision C.01,
 M. J. Frisch, G. W. Trucks, H. B. Schlegel, G. E. Scuseria, 
 M. A. Robb, J. R. Cheeseman, G. Scalmani, V. Barone, 
 G. A. Petersson, H. Nakatsuji, X. Li, M. Caricato, A. V. Marenich, 
 J. Bloino, B. G. Janesko, R. Gomperts, B. Mennucci, H. P. Hratchian, 
 J. V. Ortiz, A. F. Izmaylov, J. L. Sonnenberg, D. Williams-Young, 
 F. Ding, F. Lipparini, F. Egidi, J. Goings, B. Peng, A. Petrone, 
 T. Henderson, D. Ranasinghe, V. G. Zakrzewski, J. Gao, N. Rega, 
 G. Zheng, W. Liang, M. Hada, M. Ehara, K. Toyota, R. Fukuda, 
 J. Hasegawa, M. Ishida, T. Nakajima, Y. Honda, O. Kitao, H. Nakai, 
 T. Vreven, K. Throssell, J. A. Montgomery, Jr., J. E. Peralta, 
 F. Ogliaro, M. J. Bearpark, J. J. Heyd, E. N. Brothers, K. N. Kudin, 
 V. N. Staroverov, T. A. Keith, R. Kobayashi, J. Normand, 
 K. Raghavachari, A. P. Rendell, J. C. Burant, S. S. Iyengar, 
 J. Tomasi, M. Cossi, J. M. Millam, M. Klene, C. Adamo, R. Cammi, 
 J. W. Ochterski, R. L. Martin, K. Morokuma, O. Farkas, 
 J. B. Foresman, and D. J. Fox, Gaussian, Inc., Wallingford CT, 2019.
 
 ******************************************
 Gaussian 16:  AS64L-G16RevC.01  3-Jul-2019
                21-Jun-2022 
 ******************************************
 %chk=DATS_13_exo_ii_TZVP.chk
 %mem=48GB
 %nprocshared=16
 Will use up to   16 processors via shared memory.
 ----------------
 # M062X/def2tzvp
 ----------------
 1/38=1,172=1/1;
 2/12=2,17=6,18=5,40=1/2;
 3/5=44,7=101,11=2,25=1,30=1,74=-55/1,2,3;
 4//1;
 5/5=2,38=5/2;
 6/7=2,8=2,9=2,10=2,28=1/1;
 99/5=1,9=1/99;
 ------------------------------------------
 DATS_13_exo_ii_TZVPcreated by GaussianPrep
 ------------------------------------------
 Symbolic Z-matrix:
 Charge =  0 Multiplicity = 1
 C                    -1.55332   0.90444   1.04321 
 C                    -0.63147   1.8166   -0.52434 
 C                     0.48831  -0.79032  -0.70194 
 C                    -1.30568  -0.4632    0.98911 
 H                    -1.14328   1.48338   1.86348 
 H                    -2.51672   1.23802   0.66658 
 H                    -0.65644  -0.95455   1.70443 
 C                     0.71824   1.59207  -0.31681 
 C                     1.25891   0.28954  -0.34208 
 H                    -0.99783   2.83687  -0.44933 
 H                     0.85082  -1.8087   -0.623 
 H                    -1.20448   1.1882   -1.20294 
 H                    -0.35023  -0.63865  -1.36667 
 C                    -2.14276  -1.28986   0.12557 
 O                    -2.86846  -0.83454  -0.74269 
 H                    -2.06305  -2.38697   0.2692 
 O                     2.51141   0.19999   0.19337 
 C                     3.11994  -1.07026   0.19584 
 H                     4.13643  -0.92203   0.56048 
 H                     2.59529  -1.76503   0.86384 
 H                     3.14882  -1.49897  -0.81364 
 H                     1.34397   2.37075   0.11086 
 
                          Input orientation:                          
 ---------------------------------------------------------------------
 Center     Atomic      Atomic             Coordinates (Angstroms)
 Number     Number       Type             X           Y           Z
 ---------------------------------------------------------------------
      1          6           0       -1.553318    0.904444    1.043212
      2          6           0       -0.631469    1.816600   -0.524342
      3          6           0        0.488305   -0.790322   -0.701942
      4          6           0       -1.305681   -0.463201    0.989105
      5          1           0       -1.143280    1.483383    1.863478
      6          1           0       -2.516721    1.238018    0.666579
      7          1           0       -0.656441   -0.954545    1.704428
      8          6           0        0.718241    1.592067   -0.316813
      9          6           0        1.258912    0.289542   -0.342075
     10          1           0       -0.997828    2.836869   -0.449329
     11          1           0        0.850823   -1.808701   -0.622998
     12          1           0       -1.204476    1.188198   -1.202940
     13          1           0       -0.350225   -0.638646   -1.366666
     14          6           0       -2.142755   -1.289863    0.125571
     15          8           0       -2.868461   -0.834537   -0.742692
     16          1           0       -2.063051   -2.386968    0.269204
     17          8           0        2.511411    0.199989    0.193365
     18          6           0        3.119945   -1.070257    0.195837
     19          1           0        4.136427   -0.922032    0.560483
     20          1           0        2.595294   -1.765031    0.863844
     21          1           0        3.148824   -1.498967   -0.813643
     22          1           0        1.343970    2.370745    0.110860
 ---------------------------------------------------------------------
                    Distance matrix (angstroms):
                    1          2          3          4          5
     1  C    0.000000
     2  C    2.034468   0.000000
     3  C    3.175849   2.842794   0.000000
     4  C    1.390937   2.818258   2.486973   0.000000
     5  H    1.084499   2.464684   3.796470   2.140115   0.000000
     6  H    1.086862   2.303742   3.875202   2.113004   1.838236
     7  H    2.167357   3.556302   2.669837   1.083798   2.491145
     8  C    2.735411   1.383908   2.424247   3.166356   2.868927
     9  C    3.194646   2.436938   1.374571   2.985934   3.472787
    10  H    2.504099   1.086644   3.927966   3.613077   2.683683
    11  H    3.989650   3.917873   1.083858   3.009943   4.582229
    12  H    2.290722   1.087990   2.651612   2.746347   3.081201
    13  H    3.104202   2.610908   1.080739   2.548202   3.945348
    14  C    2.450405   3.515179   2.802998   1.459368   3.422012
    15  O    2.818352   3.475678   3.357305   2.362053   3.891160
    16  H    3.419402   4.511001   3.162565   2.189234   4.285709
    17  O    4.211950   3.606415   2.423891   3.955150   4.218192
    18  C    5.143625   4.788080   2.794620   4.536955   5.241869
    19  H    5.995185   5.604443   3.862623   5.478210   5.946354
    20  H    4.936522   5.016686   2.800205   4.114372   5.052563
    21  H    5.597717   5.036596   2.755543   4.915824   5.872269
    22  H    3.378401   2.147770   3.374189   3.977840   3.169463
                    6          7          8          9         10
     6  H    0.000000
     7  H    3.056976   0.000000
     8  C    3.399616   3.529929   0.000000
     9  C    4.021492   3.066676   1.410509   0.000000
    10  H    2.471560   4.373789   2.124143   3.404887   0.000000
    11  H    4.720790   2.901437   3.417097   2.155940   5.002898
    12  H    2.284638   3.653010   2.155266   2.759883   1.824486
    13  H    3.514208   3.102447   2.686986   2.121472   3.652410
    14  C    2.612034   2.194164   4.084914   3.779491   4.321028
    15  O    2.530860   3.300883   4.351346   4.296424   4.130926
    16  H    3.674812   2.467844   4.889961   4.309618   5.379541
    17  O    5.155923   3.694800   2.326719   1.365090   4.436322
    18  C    6.109152   4.068209   3.622011   2.366822   5.712961
    19  H    6.995817   4.927601   4.332936   3.250018   6.442797
    20  H    5.932109   3.455032   4.023355   2.731561   5.984349
    21  H    6.463787   4.595337   3.963466   2.644411   6.010567
    22  H    4.061629   4.195075   1.086637   2.131617   2.452570
                   11         12         13         14         15
    11  H    0.000000
    12  H    3.679944   0.000000
    13  H    1.834281   2.023341   0.000000
    14  C    3.129067   2.964135   2.421574   0.000000
    15  O    3.846608   2.659348   2.601774   1.219775   0.000000
    16  H    3.101786   3.960577   2.943887   1.109334   2.020560
    17  O    2.731087   4.090726   3.365407   4.887281   5.557830
    18  C    2.522837   5.075216   3.830115   5.267749   6.066087
    19  H    3.603055   6.007327   4.891243   6.304964   7.125614
    20  H    2.292550   5.237500   3.862642   4.818707   5.770563
    21  H    2.326605   5.130656   3.645453   5.378351   6.054273
    22  H    4.271945   3.101462   3.756303   5.055444   5.361619
                   16         17         18         19         20
    16  H    0.000000
    17  O    5.255835   0.000000
    18  C    5.348136   1.408490   0.000000
    19  H    6.376865   2.008578   1.090033   0.000000
    20  H    4.737149   2.077951   1.097362   1.782629   0.000000
    21  H    5.396735   2.075286   1.097122   1.787858   1.786379
    22  H    5.853947   2.466152   3.873216   4.340778   4.386051
                   21         22
    21  H    0.000000
    22  H    4.368853   0.000000
 Stoichiometry    C8H12O2
 Framework group  C1[X(C8H12O2)]
 Deg. of freedom    60
 Full point group                 C1      NOp   1
 Largest Abelian subgroup         C1      NOp   1
 Largest concise Abelian subgroup C1      NOp   1
                         Standard orientation:                         
 ---------------------------------------------------------------------
 Center     Atomic      Atomic             Coordinates (Angstroms)
 Number     Number       Type             X           Y           Z
 ---------------------------------------------------------------------
      1          6           0       -1.553318    0.904444    1.043212
      2          6           0       -0.631469    1.816600   -0.524342
      3          6           0        0.488305   -0.790322   -0.701942
      4          6           0       -1.305681   -0.463201    0.989105
      5          1           0       -1.143280    1.483383    1.863478
      6          1           0       -2.516721    1.238018    0.666579
      7          1           0       -0.656441   -0.954545    1.704428
      8          6           0        0.718241    1.592067   -0.316813
      9          6           0        1.258912    0.289542   -0.342075
     10          1           0       -0.997828    2.836869   -0.449329
     11          1           0        0.850823   -1.808701   -0.622998
     12          1           0       -1.204476    1.188198   -1.202940
     13          1           0       -0.350225   -0.638646   -1.366666
     14          6           0       -2.142755   -1.289863    0.125571
     15          8           0       -2.868461   -0.834537   -0.742692
     16          1           0       -2.063051   -2.386968    0.269204
     17          8           0        2.511411    0.199989    0.193365
     18          6           0        3.119945   -1.070257    0.195837
     19          1           0        4.136427   -0.922032    0.560483
     20          1           0        2.595294   -1.765031    0.863844
     21          1           0        3.148824   -1.498967   -0.813643
     22          1           0        1.343970    2.370745    0.110860
 ---------------------------------------------------------------------
 Rotational constants (GHZ):           2.1906512           0.8450149           0.7116323
 Standard basis: def2TZVP (5D, 7F)
 There are   432 symmetry adapted cartesian basis functions of A   symmetry.
 There are   382 symmetry adapted basis functions of A   symmetry.
   382 basis functions,   606 primitive gaussians,   432 cartesian basis functions
    38 alpha electrons       38 beta electrons
       nuclear repulsion energy       528.3858404681 Hartrees.
 NAtoms=   22 NActive=   22 NUniq=   22 SFac= 1.00D+00 NAtFMM=   60 NAOKFM=F Big=F
 Integral buffers will be    131072 words long.
 Raffenetti 2 integral format.
 Two-electron integral symmetry is turned on.
 One-electron integrals computed using PRISM.
   1 Symmetry operations used in ECPInt.
 ECPInt:  NShTT=   12561 NPrTT=   37384 LenC2=   12098 LenP2D=   28123.
 LDataN:  DoStor=T MaxTD1= 6 Len=  172
 NBasis=   382 RedAO= T EigKep=  5.87D-05  NBF=   382
 NBsUse=   382 1.00D-06 EigRej= -1.00D+00 NBFU=   382
 ExpMin= 9.52D-02 ExpMax= 2.70D+04 ExpMxC= 9.22D+02 IAcc=3 IRadAn=         5 AccDes= 0.00D+00
 Harris functional with IExCor= 1009 and IRadAn=       5 diagonalized for initial guess.
 HarFok:  IExCor= 1009 AccDes= 0.00D+00 IRadAn=         5 IDoV= 1 UseB2=F ITyADJ=14
 ICtDFT=  3500011 ScaDFX=  1.000000  1.000000  1.000000  1.000000
 FoFCou: FMM=F IPFlag=           0 FMFlag=      100000 FMFlg1=           0
         NFxFlg=           0 DoJE=T BraDBF=F KetDBF=T FulRan=T
         wScrn=  0.000000 ICntrl=       500 IOpCl=  0 I1Cent=   200000004 NGrid=           0
         NMat0=    1 NMatS0=      1 NMatT0=    0 NMatD0=    1 NMtDS0=    0 NMtDT0=    0
 Petite list used in FoFCou.
 Requested convergence on RMS density matrix=1.00D-08 within 128 cycles.
 Requested convergence on MAX density matrix=1.00D-06.
 Requested convergence on             energy=1.00D-06.
 No special actions if energy rises.
 Integral accuracy reduced to 1.0D-05 until final iterations.
 Initial convergence to 1.0D-05 achieved.  Increase integral accuracy.
 SCF Done:  E(RM062X) =  -462.369842792     A.U. after   16 cycles
            NFock= 16  Conv=0.35D-08     -V/T= 2.0051

 **********************************************************************

            Population analysis using the SCF Density.

 **********************************************************************

 Orbital symmetries:
       Occupied  (A) (A) (A) (A) (A) (A) (A) (A) (A) (A) (A) (A)
                 (A) (A) (A) (A) (A) (A) (A) (A) (A) (A) (A) (A)
                 (A) (A) (A) (A) (A) (A) (A) (A) (A) (A) (A) (A)
                 (A) (A)
       Virtual   (A) (A) (A) (A) (A) (A) (A) (A) (A) (A) (A) (A)
                 (A) (A) (A) (A) (A) (A) (A) (A) (A) (A) (A) (A)
                 (A) (A) (A) (A) (A) (A) (A) (A) (A) (A) (A) (A)
                 (A) (A) (A) (A) (A) (A) (A) (A) (A) (A) (A) (A)
                 (A) (A) (A) (A) (A) (A) (A) (A) (A) (A) (A) (A)
                 (A) (A) (A) (A) (A) (A) (A) (A) (A) (A) (A) (A)
                 (A) (A) (A) (A) (A) (A) (A) (A) (A) (A) (A) (A)
                 (A) (A) (A) (A) (A) (A) (A) (A) (A) (A) (A) (A)
                 (A) (A) (A) (A) (A) (A) (A) (A) (A) (A) (A) (A)
                 (A) (A) (A) (A) (A) (A) (A) (A) (A) (A) (A) (A)
                 (A) (A) (A) (A) (A) (A) (A) (A) (A) (A) (A) (A)
                 (A) (A) (A) (A) (A) (A) (A) (A) (A) (A) (A) (A)
                 (A) (A) (A) (A) (A) (A) (A) (A) (A) (A) (A) (A)
                 (A) (A) (A) (A) (A) (A) (A) (A) (A) (A) (A) (A)
                 (A) (A) (A) (A) (A) (A) (A) (A) (A) (A) (A) (A)
                 (A) (A) (A) (A) (A) (A) (A) (A) (A) (A) (A) (A)
                 (A) (A) (A) (A) (A) (A) (A) (A) (A) (A) (A) (A)
                 (A) (A) (A) (A) (A) (A) (A) (A) (A) (A) (A) (A)
                 (A) (A) (A) (A) (A) (A) (A) (A) (A) (A) (A) (A)
                 (A) (A) (A) (A) (A) (A) (A) (A) (A) (A) (A) (A)
                 (A) (A) (A) (A) (A) (A) (A) (A) (A) (A) (A) (A)
                 (A) (A) (A) (A) (A) (A) (A) (A) (A) (A) (A) (A)
                 (A) (A) (A) (A) (A) (A) (A) (A) (A) (A) (A) (A)
                 (A) (A) (A) (A) (A) (A) (A) (A) (A) (A) (A) (A)
                 (A) (A) (A) (A) (A) (A) (A) (A) (A) (A) (A) (A)
                 (A) (A) (A) (A) (A) (A) (A) (A) (A) (A) (A) (A)
                 (A) (A) (A) (A) (A) (A) (A) (A) (A) (A) (A) (A)
                 (A) (A) (A) (A) (A) (A) (A) (A) (A) (A) (A) (A)
                 (A) (A) (A) (A) (A) (A) (A) (A)
 The electronic state is 1-A.
 Alpha  occ. eigenvalues --  -19.66065 -19.60731 -10.61516 -10.60613 -10.59500
 Alpha  occ. eigenvalues --  -10.56165 -10.55679 -10.55143 -10.54936 -10.54634
 Alpha  occ. eigenvalues --   -1.19808  -1.15232  -0.93077  -0.87626  -0.83310
 Alpha  occ. eigenvalues --   -0.81054  -0.74087  -0.70933  -0.63145  -0.61345
 Alpha  occ. eigenvalues --   -0.59872  -0.58087  -0.56325  -0.55646  -0.51849
 Alpha  occ. eigenvalues --   -0.51129  -0.48554  -0.48049  -0.47028  -0.46255
 Alpha  occ. eigenvalues --   -0.44094  -0.43627  -0.42995  -0.41252  -0.38928
 Alpha  occ. eigenvalues --   -0.32388  -0.29367  -0.27567
 Alpha virt. eigenvalues --   -0.03872   0.02148   0.05991   0.07515   0.09346
 Alpha virt. eigenvalues --    0.09622   0.10351   0.11281   0.12202   0.13089
 Alpha virt. eigenvalues --    0.13471   0.13892   0.14530   0.15240   0.16419
 Alpha virt. eigenvalues --    0.17499   0.19877   0.20786   0.21387   0.21495
 Alpha virt. eigenvalues --    0.23550   0.23763   0.24901   0.25223   0.26766
 Alpha virt. eigenvalues --    0.27337   0.28087   0.29641   0.29898   0.31565
 Alpha virt. eigenvalues --    0.32620   0.34690   0.34904   0.36390   0.37334
 Alpha virt. eigenvalues --    0.38412   0.39489   0.40132   0.40608   0.41683
 Alpha virt. eigenvalues --    0.42293   0.42719   0.43459   0.44502   0.45059
 Alpha virt. eigenvalues --    0.46111   0.46873   0.47154   0.48206   0.48779
 Alpha virt. eigenvalues --    0.49588   0.49928   0.50615   0.51547   0.52591
 Alpha virt. eigenvalues --    0.54088   0.54606   0.56416   0.57397   0.58981
 Alpha virt. eigenvalues --    0.59617   0.60134   0.61837   0.62961   0.64919
 Alpha virt. eigenvalues --    0.65688   0.65947   0.66574   0.68029   0.68905
 Alpha virt. eigenvalues --    0.70139   0.71635   0.73853   0.76011   0.76941
 Alpha virt. eigenvalues --    0.79601   0.80497   0.81571   0.82671   0.86075
 Alpha virt. eigenvalues --    0.88160   0.88746   0.92270   0.94337   0.94916
 Alpha virt. eigenvalues --    0.96328   0.97408   0.99341   1.00076   1.01066
 Alpha virt. eigenvalues --    1.02402   1.02920   1.04168   1.05775   1.07247
 Alpha virt. eigenvalues --    1.08326   1.09923   1.12696   1.13632   1.16315
 Alpha virt. eigenvalues --    1.18001   1.19330   1.20277   1.21739   1.22318
 Alpha virt. eigenvalues --    1.24555   1.26298   1.27684   1.29525   1.30900
 Alpha virt. eigenvalues --    1.35463   1.36545   1.38588   1.40902   1.42824
 Alpha virt. eigenvalues --    1.44547   1.47749   1.49745   1.50208   1.52068
 Alpha virt. eigenvalues --    1.53141   1.53760   1.54336   1.56058   1.57043
 Alpha virt. eigenvalues --    1.58267   1.59912   1.61853   1.62490   1.63136
 Alpha virt. eigenvalues --    1.65767   1.67182   1.67618   1.69442   1.71376
 Alpha virt. eigenvalues --    1.71703   1.72176   1.73839   1.75823   1.78069
 Alpha virt. eigenvalues --    1.78757   1.80782   1.82150   1.83085   1.85100
 Alpha virt. eigenvalues --    1.86478   1.88013   1.88566   1.92559   1.95434
 Alpha virt. eigenvalues --    1.96106   1.97446   1.98902   1.99452   2.02921
 Alpha virt. eigenvalues --    2.03525   2.05396   2.08719   2.08845   2.09689
 Alpha virt. eigenvalues --    2.13735   2.14830   2.16653   2.17498   2.19295
 Alpha virt. eigenvalues --    2.23107   2.24064   2.27068   2.27416   2.29025
 Alpha virt. eigenvalues --    2.30185   2.31364   2.34427   2.36636   2.38059
 Alpha virt. eigenvalues --    2.39022   2.41451   2.42559   2.43275   2.46812
 Alpha virt. eigenvalues --    2.47331   2.49250   2.52299   2.52505   2.52819
 Alpha virt. eigenvalues --    2.55015   2.56106   2.57357   2.58297   2.59892
 Alpha virt. eigenvalues --    2.60784   2.63336   2.63638   2.64738   2.66634
 Alpha virt. eigenvalues --    2.66745   2.68487   2.70075   2.70724   2.72520
 Alpha virt. eigenvalues --    2.75056   2.76084   2.77272   2.80228   2.80699
 Alpha virt. eigenvalues --    2.80859   2.82593   2.83840   2.85068   2.86337
 Alpha virt. eigenvalues --    2.87094   2.89162   2.91427   2.95192   2.96535
 Alpha virt. eigenvalues --    2.97174   2.98569   3.01298   3.03043   3.03645
 Alpha virt. eigenvalues --    3.06351   3.07227   3.09475   3.11378   3.11809
 Alpha virt. eigenvalues --    3.13402   3.14414   3.15000   3.16214   3.19184
 Alpha virt. eigenvalues --    3.20501   3.21482   3.22754   3.23682   3.24183
 Alpha virt. eigenvalues --    3.24732   3.26364   3.26714   3.28568   3.30936
 Alpha virt. eigenvalues --    3.31971   3.32429   3.32864   3.34793   3.35040
 Alpha virt. eigenvalues --    3.37034   3.39150   3.40041   3.41545   3.42158
 Alpha virt. eigenvalues --    3.43918   3.46072   3.47332   3.48506   3.49378
 Alpha virt. eigenvalues --    3.50092   3.53772   3.54580   3.55657   3.56573
 Alpha virt. eigenvalues --    3.60038   3.60372   3.63385   3.64120   3.65574
 Alpha virt. eigenvalues --    3.67858   3.69444   3.73027   3.76056   3.78335
 Alpha virt. eigenvalues --    3.81943   3.82593   3.87482   3.91192   3.94214
 Alpha virt. eigenvalues --    3.98591   4.00531   4.02934   4.05140   4.08439
 Alpha virt. eigenvalues --    4.09384   4.11463   4.14843   4.15867   4.19665
 Alpha virt. eigenvalues --    4.20224   4.21913   4.24216   4.26459   4.29026
 Alpha virt. eigenvalues --    4.30859   4.35738   4.37099   4.38871   4.44978
 Alpha virt. eigenvalues --    4.50611   4.53253   4.57144   4.58425   4.63136
 Alpha virt. eigenvalues --    4.67479   4.71916   4.76889   4.80454   4.81673
 Alpha virt. eigenvalues --    4.83948   4.89656   4.94375   5.01935   5.09747
 Alpha virt. eigenvalues --    5.22941   5.24046   5.37281   5.51248   5.57322
 Alpha virt. eigenvalues --    5.67859   5.75610   5.88928   5.90231   6.06570
 Alpha virt. eigenvalues --    6.25216   6.29828   6.39020   6.40015   6.41187
 Alpha virt. eigenvalues --    6.49373   6.64335   6.74030   6.82666   6.84783
 Alpha virt. eigenvalues --    6.96970   7.06541   7.13526   7.33488  22.37063
 Alpha virt. eigenvalues --   22.47468  22.50145  22.58579  22.72586  22.80867
 Alpha virt. eigenvalues --   22.95581  23.15400  44.02629  44.34801
          Condensed to atoms (all electrons):
               1          2          3          4          5          6
     1  C    5.330216  -0.017353   0.008949   0.221461   0.435370   0.439566
     2  C   -0.017353   5.321267  -0.055274   0.043469  -0.020101  -0.038864
     3  C    0.008949  -0.055274   5.570322   0.033956   0.002662   0.008247
     4  C    0.221461   0.043469   0.033956   5.850461  -0.056750  -0.052051
     5  H    0.435370  -0.020101   0.002662  -0.056750   0.490030  -0.015989
     6  H    0.439566  -0.038864   0.008247  -0.052051  -0.015989   0.460310
     7  H   -0.034510   0.000935  -0.013548   0.406493  -0.004059   0.002244
     8  C   -0.005495   0.353751  -0.079150  -0.045837  -0.008365  -0.000615
     9  C   -0.050576  -0.036338   0.328583   0.001777   0.000536   0.001103
    10  H   -0.019049   0.428372   0.000692   0.001830  -0.000961  -0.000019
    11  H    0.001729  -0.000657   0.429742  -0.007424   0.000016  -0.000082
    12  H   -0.038423   0.441856  -0.005886  -0.033020   0.003356  -0.004926
    13  H   -0.022772   0.015213   0.373990  -0.025331  -0.000280  -0.000394
    14  C   -0.000859  -0.006881  -0.024423   0.166129   0.005271  -0.003043
    15  O    0.044548  -0.015985  -0.021577  -0.175518   0.000970   0.003818
    16  H    0.025358  -0.002477   0.007386  -0.194259   0.000097   0.000627
    17  O    0.000544   0.003026  -0.071956   0.003277   0.000090  -0.000014
    18  C    0.000460  -0.001049  -0.001486  -0.001134  -0.000005  -0.000015
    19  H   -0.000005   0.000050  -0.000109   0.000025  -0.000001  -0.000000
    20  H    0.000197   0.000213   0.013684  -0.002025  -0.000018   0.000011
    21  H    0.000056  -0.000426  -0.004550   0.000690   0.000002  -0.000002
    22  H    0.000567  -0.028154   0.006188   0.000193   0.000887  -0.000257
               7          8          9         10         11         12
     1  C   -0.034510  -0.005495  -0.050576  -0.019049   0.001729  -0.038423
     2  C    0.000935   0.353751  -0.036338   0.428372  -0.000657   0.441856
     3  C   -0.013548  -0.079150   0.328583   0.000692   0.429742  -0.005886
     4  C    0.406493  -0.045837   0.001777   0.001830  -0.007424  -0.033020
     5  H   -0.004059  -0.008365   0.000536  -0.000961   0.000016   0.003356
     6  H    0.002244  -0.000615   0.001103  -0.000019  -0.000082  -0.004926
     7  H    0.500172   0.003398  -0.005154  -0.000134  -0.000382   0.000225
     8  C    0.003398   5.229729   0.413859  -0.053059   0.006112  -0.061396
     9  C   -0.005154   0.413859   4.912873   0.008574  -0.061474   0.005077
    10  H   -0.000134  -0.053059   0.008574   0.489522  -0.000015  -0.010893
    11  H   -0.000382   0.006112  -0.061474  -0.000015   0.471018   0.000226
    12  H    0.000225  -0.061396   0.005077  -0.010893   0.000226   0.460564
    13  H    0.001487  -0.002081  -0.025673   0.000294  -0.008976   0.005156
    14  C   -0.026313   0.000815  -0.003194   0.000250   0.003735   0.004780
    15  O    0.004988   0.001875   0.000492   0.000206   0.000224   0.019076
    16  H    0.000204   0.000249  -0.001462   0.000015   0.000373   0.001518
    17  O    0.001008  -0.067014   0.327132  -0.000151  -0.003377  -0.000053
    18  C   -0.000113   0.006256  -0.083156   0.000019   0.002956   0.000037
    19  H    0.000011  -0.000235   0.006005  -0.000000   0.000245  -0.000002
    20  H   -0.000247  -0.002971  -0.013635   0.000003  -0.006598   0.000007
    21  H    0.000068   0.004055  -0.004431  -0.000004   0.000285  -0.000010
    22  H   -0.000002   0.422017  -0.050935  -0.006023  -0.000105   0.001867
              13         14         15         16         17         18
     1  C   -0.022772  -0.000859   0.044548   0.025358   0.000544   0.000460
     2  C    0.015213  -0.006881  -0.015985  -0.002477   0.003026  -0.001049
     3  C    0.373990  -0.024423  -0.021577   0.007386  -0.071956  -0.001486
     4  C   -0.025331   0.166129  -0.175518  -0.194259   0.003277  -0.001134
     5  H   -0.000280   0.005271   0.000970   0.000097   0.000090  -0.000005
     6  H   -0.000394  -0.003043   0.003818   0.000627  -0.000014  -0.000015
     7  H    0.001487  -0.026313   0.004988   0.000204   0.001008  -0.000113
     8  C   -0.002081   0.000815   0.001875   0.000249  -0.067014   0.006256
     9  C   -0.025673  -0.003194   0.000492  -0.001462   0.327132  -0.083156
    10  H    0.000294   0.000250   0.000206   0.000015  -0.000151   0.000019
    11  H   -0.008976   0.003735   0.000224   0.000373  -0.003377   0.002956
    12  H    0.005156   0.004780   0.019076   0.001518  -0.000053   0.000037
    13  H    0.475168   0.001587   0.013223  -0.002146   0.002374  -0.000912
    14  C    0.001587   4.701242   0.607990   0.490015  -0.000005  -0.000050
    15  O    0.013223   0.607990   7.916926  -0.053786  -0.000006  -0.000003
    16  H   -0.002146   0.490015  -0.053786   0.627452  -0.000005  -0.000067
    17  O    0.002374  -0.000005  -0.000006  -0.000005   7.965816   0.234244
    18  C   -0.000912  -0.000050  -0.000003  -0.000067   0.234244   4.903065
    19  H    0.000059  -0.000001  -0.000000  -0.000001  -0.031442   0.402350
    20  H   -0.000173  -0.000150   0.000000   0.000095  -0.041163   0.412777
    21  H   -0.000397   0.000059  -0.000001  -0.000008  -0.042989   0.420715
    22  H   -0.000240  -0.000029  -0.000008  -0.000001   0.008115   0.000199
              19         20         21         22
     1  C   -0.000005   0.000197   0.000056   0.000567
     2  C    0.000050   0.000213  -0.000426  -0.028154
     3  C   -0.000109   0.013684  -0.004550   0.006188
     4  C    0.000025  -0.002025   0.000690   0.000193
     5  H   -0.000001  -0.000018   0.000002   0.000887
     6  H   -0.000000   0.000011  -0.000002  -0.000257
     7  H    0.000011  -0.000247   0.000068  -0.000002
     8  C   -0.000235  -0.002971   0.004055   0.422017
     9  C    0.006005  -0.013635  -0.004431  -0.050935
    10  H   -0.000000   0.000003  -0.000004  -0.006023
    11  H    0.000245  -0.006598   0.000285  -0.000105
    12  H   -0.000002   0.000007  -0.000010   0.001867
    13  H    0.000059  -0.000173  -0.000397  -0.000240
    14  C   -0.000001  -0.000150   0.000059  -0.000029
    15  O   -0.000000   0.000000  -0.000001  -0.000008
    16  H   -0.000001   0.000095  -0.000008  -0.000001
    17  O   -0.031442  -0.041163  -0.042989   0.008115
    18  C    0.402350   0.412777   0.420715   0.000199
    19  H    0.510777  -0.022526  -0.017864  -0.000192
    20  H   -0.022526   0.578148  -0.059283  -0.000002
    21  H   -0.017864  -0.059283   0.550031   0.000200
    22  H   -0.000192  -0.000002   0.000200   0.492078
 Mulliken charges:
               1
     1  C   -0.319978
     2  C   -0.384591
     3  C   -0.506443
     4  C   -0.136413
     5  H    0.167242
     6  H    0.200344
     7  H    0.163228
     8  C   -0.115899
     9  C    0.330017
    10  H    0.160530
    11  H    0.172426
    12  H    0.210863
    13  H    0.200824
    14  C    0.083074
    15  O   -0.347452
    16  H    0.100823
    17  O   -0.287451
    18  C   -0.295087
    19  H    0.152856
    20  H    0.143653
    21  H    0.153801
    22  H    0.153635
 Sum of Mulliken charges =  -0.00000
 Mulliken charges with hydrogens summed into heavy atoms:
               1
     1  C    0.047607
     2  C   -0.013197
     3  C   -0.133194
     4  C    0.026815
     8  C    0.037736
     9  C    0.330017
    14  C    0.183896
    15  O   -0.347452
    17  O   -0.287451
    18  C    0.155223
 Electronic spatial extent (au):  <R**2>=           1688.3792
 Charge=             -0.0000 electrons
 Dipole moment (field-independent basis, Debye):
    X=              2.6988    Y=             -0.3356    Z=              1.6672  Tot=              3.1899
 Quadrupole moment (field-independent basis, Debye-Ang):
   XX=            -68.5499   YY=            -54.5622   ZZ=            -63.4596
   XY=             -7.2573   XZ=             -3.2703   YZ=             -0.6417
 Traceless Quadrupole moment (field-independent basis, Debye-Ang):
   XX=             -6.3593   YY=              7.6284   ZZ=             -1.2691
   XY=             -7.2573   XZ=             -3.2703   YZ=             -0.6417
 Octapole moment (field-independent basis, Debye-Ang**2):
  XXX=             52.6478  YYY=              0.0385  ZZZ=              2.0609  XYY=             -0.2706
  XXY=             -3.2797  XXZ=             14.1109  XZZ=              4.4106  YZZ=             -1.0017
  YYZ=              4.2466  XYZ=              4.3391
 Hexadecapole moment (field-independent basis, Debye-Ang**3):
 XXXX=          -1458.4972 YYYY=           -525.7356 ZZZZ=           -244.9840 XXXY=            -69.2974
 XXXZ=            -19.0382 YYYX=              5.5030 YYYZ=              6.3807 ZZZX=             16.7525
 ZZZY=              6.3841 XXYY=           -314.0883 XXZZ=           -295.9870 YYZZ=           -137.6630
 XXYZ=            -14.0972 YYXZ=              1.0801 ZZXY=             -6.3077
 N-N= 5.283858404681D+02 E-N=-2.134622121138D+03  KE= 4.600434280939D+02
 Unable to Open any file for archive entry.
 1\1\GINC-NODE12\SP\RM062X\def2TZVP\C8H12O2\RPATON\21-Jun-2022\0\\# M06
 2X/def2tzvp\\DATS_13_exo_ii_TZVPcreated by GaussianPrep\\0,1\C,0,-1.55
 3318,0.904444,1.043212\C,0,-0.631469,1.8166,-0.524342\C,0,0.488305,-0.
 790322,-0.701942\C,0,-1.305681,-0.463201,0.989105\H,0,-1.14328,1.48338
 3,1.863478\H,0,-2.516721,1.238018,0.666579\H,0,-0.656441,-0.954545,1.7
 04428\C,0,0.718241,1.592067,-0.316813\C,0,1.258912,0.289542,-0.342075\
 H,0,-0.997828,2.836869,-0.449329\H,0,0.850823,-1.808701,-0.622998\H,0,
 -1.204476,1.188198,-1.20294\H,0,-0.350225,-0.638646,-1.366666\C,0,-2.1
 42755,-1.289863,0.125571\O,0,-2.868461,-0.834537,-0.742692\H,0,-2.0630
 51,-2.386968,0.269204\O,0,2.511411,0.199989,0.193365\C,0,3.119945,-1.0
 70257,0.195837\H,0,4.136427,-0.922032,0.560483\H,0,2.595294,-1.765031,
 0.863844\H,0,3.148824,-1.498967,-0.813643\H,0,1.34397,2.370745,0.11086
 \\Version=AS64L-G16RevC.01\State=1-A\HF=-462.3698428\RMSD=3.520e-09\Di
 pole=1.0617924,-0.1320402,0.6559284\Quadrupole=-4.7280116,5.6715369,-0
 .9435254,-5.3956492,-2.4313801,-0.4770758\PG=C01 [X(C8H12O2)]\\@
 The archive entry for this job was punched.


 SOME PEOPLE TRY TO PULL THE WOOL OVER YOUR EYES
 USING THE WRONG YARN.
 Job cpu time:       0 days  0 hours 16 minutes 23.6 seconds.
 Elapsed time:       0 days  0 hours  1 minutes  5.2 seconds.
 File lengths (MBytes):  RWF=     83 Int=      0 D2E=      0 Chk=     10 Scr=      1
 Normal termination of Gaussian 16 at Tue Jun 21 11:23:52 2022.
