Job Start Time: Tue Jun 21 11:23:48 MDT 2022
SLURM Job ID: 40890
SLURM Job Name: DATS_14_endo_iii_TZVP
 Entering Gaussian System, Link 0=/opt/apps/Gaussian/G16C/g16/g16
 Initial command:
 /opt/apps/Gaussian/G16C/g16/l1.exe "/tmp/Gau-3376327.inp" -scrdir="/tmp/"
 Entering Link 1 = /opt/apps/Gaussian/G16C/g16/l1.exe PID=   3376328.
  
 Copyright (c) 1988-2019, Gaussian, Inc.  All Rights Reserved.
  
 This is part of the Gaussian(R) 16 program.  It is based on
 the Gaussian(R) 09 system (copyright 2009, Gaussian, Inc.),
 the Gaussian(R) 03 system (copyright 2003, Gaussian, Inc.),
 the Gaussian(R) 98 system (copyright 1998, Gaussian, Inc.),
 the Gaussian(R) 94 system (copyright 1995, Gaussian, Inc.),
 the Gaussian 92(TM) system (copyright 1992, Gaussian, Inc.),
 the Gaussian 90(TM) system (copyright 1990, Gaussian, Inc.),
 the Gaussian 88(TM) system (copyright 1988, Gaussian, Inc.),
 the Gaussian 86(TM) system (copyright 1986, Carnegie Mellon
 University), and the Gaussian 82(TM) system (copyright 1983,
 Carnegie Mellon University). Gaussian is a federally registered
 trademark of Gaussian, Inc.
  
 This software contains proprietary and confidential information,
 including trade secrets, belonging to Gaussian, Inc.
  
 This software is provided under written license and may be
 used, copied, transmitted, or stored only in accord with that
 written license.
  
 The following legend is applicable only to US Government
 contracts under FAR:
  
                    RESTRICTED RIGHTS LEGEND
  
 Use, reproduction and disclosure by the US Government is
 subject to restrictions as set forth in subparagraphs (a)
 and (c) of the Commercial Computer Software - Restricted
 Rights clause in FAR 52.227-19.
  
 Gaussian, Inc.
 340 Quinnipiac St., Bldg. 40, Wallingford CT 06492
  
  
 ---------------------------------------------------------------
 Warning -- This program may not be used in any manner that
 competes with the business of Gaussian, Inc. or will provide
 assistance to any competitor of Gaussian, Inc.  The licensee
 of this program is prohibited from giving any competitor of
 Gaussian, Inc. access to this program.  By using this program,
 the user acknowledges that Gaussian, Inc. is engaged in the
 business of creating and licensing software in the field of
 computational chemistry and represents and warrants to the
 licensee that it is not a competitor of Gaussian, Inc. and that
 it will not use this program in any manner prohibited above.
 ---------------------------------------------------------------
  

 Cite this work as:
 Gaussian 16, Revision C.01,
 M. J. Frisch, G. W. Trucks, H. B. Schlegel, G. E. Scuseria, 
 M. A. Robb, J. R. Cheeseman, G. Scalmani, V. Barone, 
 G. A. Petersson, H. Nakatsuji, X. Li, M. Caricato, A. V. Marenich, 
 J. Bloino, B. G. Janesko, R. Gomperts, B. Mennucci, H. P. Hratchian, 
 J. V. Ortiz, A. F. Izmaylov, J. L. Sonnenberg, D. Williams-Young, 
 F. Ding, F. Lipparini, F. Egidi, J. Goings, B. Peng, A. Petrone, 
 T. Henderson, D. Ranasinghe, V. G. Zakrzewski, J. Gao, N. Rega, 
 G. Zheng, W. Liang, M. Hada, M. Ehara, K. Toyota, R. Fukuda, 
 J. Hasegawa, M. Ishida, T. Nakajima, Y. Honda, O. Kitao, H. Nakai, 
 T. Vreven, K. Throssell, J. A. Montgomery, Jr., J. E. Peralta, 
 F. Ogliaro, M. J. Bearpark, J. J. Heyd, E. N. Brothers, K. N. Kudin, 
 V. N. Staroverov, T. A. Keith, R. Kobayashi, J. Normand, 
 K. Raghavachari, A. P. Rendell, J. C. Burant, S. S. Iyengar, 
 J. Tomasi, M. Cossi, J. M. Millam, M. Klene, C. Adamo, R. Cammi, 
 J. W. Ochterski, R. L. Martin, K. Morokuma, O. Farkas, 
 J. B. Foresman, and D. J. Fox, Gaussian, Inc., Wallingford CT, 2019.
 
 ******************************************
 Gaussian 16:  AS64L-G16RevC.01  3-Jul-2019
                21-Jun-2022 
 ******************************************
 %chk=DATS_14_endo_iii_TZVP.chk
 %mem=48GB
 %nprocshared=16
 Will use up to   16 processors via shared memory.
 ----------------
 # M062X/def2tzvp
 ----------------
 1/38=1,172=1/1;
 2/12=2,17=6,18=5,40=1/2;
 3/5=44,7=101,11=2,25=1,30=1,74=-55/1,2,3;
 4//1;
 5/5=2,38=5/2;
 6/7=2,8=2,9=2,10=2,28=1/1;
 99/5=1,9=1/99;
 --------------------------------------------
 DATS_14_endo_iii_TZVPcreated by GaussianPrep
 --------------------------------------------
 Symbolic Z-matrix:
 Charge =  0 Multiplicity = 1
 C                     0.84811   1.51012  -0.8465 
 C                    -0.93268   1.6779    0.32695 
 C                     0.58663  -0.32526   1.6674 
 C                     1.8204    0.75287  -0.21829 
 H                     0.33143   1.08999  -1.70631 
 H                     0.9346    2.59213  -0.8533 
 H                     2.55829   1.21222   0.43375 
 C                    -1.35393   0.36309   0.37927 
 C                    -0.58438  -0.63286   1.03862 
 H                    -1.53496   2.37557  -0.24616 
 H                     1.23906  -1.11328   2.02918 
 H                    -0.81667  -1.67885   0.87008 
 H                    -0.37851   2.09489   1.1568 
 H                     0.80725   0.67162   2.02616 
 O                    -2.39468   0.05301  -0.43988 
 C                    -2.7085   -1.307    -0.6568 
 H                    -2.99278  -1.8075    0.27589 
 H                    -3.55823  -1.31107  -1.33909 
 H                    -1.8706   -1.84455  -1.11687 
 C                     2.08908  -0.618    -0.65101 
 O                     3.07002  -1.27374  -0.36786 
 H                     1.28994  -1.04042  -1.30605 
 
                          Input orientation:                          
 ---------------------------------------------------------------------
 Center     Atomic      Atomic             Coordinates (Angstroms)
 Number     Number       Type             X           Y           Z
 ---------------------------------------------------------------------
      1          6           0        0.848114    1.510121   -0.846500
      2          6           0       -0.932682    1.677895    0.326947
      3          6           0        0.586630   -0.325261    1.667397
      4          6           0        1.820400    0.752866   -0.218291
      5          1           0        0.331426    1.089993   -1.706309
      6          1           0        0.934598    2.592133   -0.853301
      7          1           0        2.558291    1.212215    0.433752
      8          6           0       -1.353929    0.363085    0.379268
      9          6           0       -0.584381   -0.632860    1.038624
     10          1           0       -1.534960    2.375573   -0.246163
     11          1           0        1.239056   -1.113284    2.029183
     12          1           0       -0.816667   -1.678848    0.870075
     13          1           0       -0.378507    2.094885    1.156802
     14          1           0        0.807247    0.671623    2.026157
     15          8           0       -2.394677    0.053007   -0.439878
     16          6           0       -2.708498   -1.306997   -0.656797
     17          1           0       -2.992782   -1.807500    0.275886
     18          1           0       -3.558227   -1.311074   -1.339093
     19          1           0       -1.870597   -1.844552   -1.116866
     20          6           0        2.089085   -0.618003   -0.651008
     21          8           0        3.070021   -1.273735   -0.367861
     22          1           0        1.289939   -1.040416   -1.306052
 ---------------------------------------------------------------------
                    Distance matrix (angstroms):
                    1          2          3          4          5
     1  C    0.000000
     2  C    2.139243   0.000000
     3  C    3.123568   2.849166   0.000000
     4  C    1.383265   2.955067   2.498072   0.000000
     5  H    1.087541   2.465305   3.667419   2.131876   0.000000
     6  H    1.085484   2.390722   3.871200   2.137940   1.829717
     7  H    2.156965   3.523515   2.788039   1.086575   3.090910
     8  C    2.768970   1.381634   2.428758   3.253517   2.778210
     9  C    3.193447   2.442823   1.364272   3.046809   3.367727
    10  H    2.605466   1.085333   3.931585   3.727250   2.695949
    11  H    3.912115   3.924886   1.085140   2.978526   4.430815
    12  H    3.985931   3.402377   2.106457   3.748586   3.952512
    13  H    2.420696   1.081504   2.655052   2.920118   3.116283
    14  H    2.992809   2.631967   1.082201   2.463864   3.785861
    15  O    3.578298   2.316400   3.670407   4.278525   3.179752
    16  C    4.541104   3.609828   4.150127   4.994621   4.011007
    17  H    5.197965   4.049024   4.116494   5.474158   4.834762
    18  H    5.255248   4.313132   5.214465   5.869044   4.585779
    19  H    4.326467   3.920703   4.012272   4.601899   3.715899
    20  C    2.471262   3.919007   2.778142   1.462435   2.668384
    21  O    3.593859   5.021604   3.348001   2.385589   3.857273
    22  H    2.628999   3.872460   3.138071   2.163440   2.370147
                    6          7          8          9         10
     6  H    0.000000
     7  H    2.489389   0.000000
     8  C    3.424213   4.003680   0.000000
     9  C    4.035747   3.694125   1.420866   0.000000
    10  H    2.552299   4.309338   2.115194   3.406603   0.000000
    11  H    4.704415   3.113475   3.409612   2.130009   5.004447
    12  H    4.927295   4.465307   2.167725   1.084646   4.266176
    13  H    2.451941   3.150665   2.134277   2.738055   1.839696
    14  H    3.463503   2.427787   2.734615   2.147912   3.681415
    15  O    4.207392   5.161287   1.360259   2.435889   2.484140
    16  C    5.339848   5.939259   2.386936   2.800140   3.886790
    17  H    6.004677   6.321235   2.721758   2.786027   4.460480
    18  H    5.971306   6.849946   3.257991   3.867463   4.345051
    19  H    5.255736   5.600294   2.716436   2.787236   4.322063
    20  C    3.417417   2.178659   3.725365   3.162673   4.717955
    21  O    4.443042   2.661653   4.775847   3.967817   5.876913
    22  H    3.677861   3.116084   3.435136   3.029304   4.557675
                   11         12         13         14         15
    11  H    0.000000
    12  H    2.426807   0.000000
    13  H    3.697284   3.809889   0.000000
    14  H    1.836399   3.081937   2.046330   0.000000
    15  O    4.545384   2.684290   3.283838   4.088561   0.000000
    16  C    4.778619   2.459397   4.504531   4.844960   1.412497
    17  H    4.632973   2.259444   4.779022   4.863098   2.081234
    18  H    5.865009   3.540033   5.285893   5.857761   2.005780
    19  H    4.483561   2.255252   4.786968   4.835347   2.081755
    20  C    2.855044   3.447097   4.088637   3.236272   4.538607
    21  O    3.020596   4.099140   5.056139   3.825688   5.623909
    22  H    3.336419   3.095305   4.321976   3.777259   3.939826
                   16         17         18         19         20
    16  C    0.000000
    17  H    1.096001   0.000000
    18  H    1.089763   1.781663   0.000000
    19  H    1.096680   1.788975   1.783838   0.000000
    20  C    4.846808   5.300887   5.731138   4.171394   0.000000
    21  O    5.785834   6.120204   6.699131   5.029567   1.213422
    22  H    4.059568   4.629540   4.855828   3.266713   1.116311
                   21         22
    21  O    0.000000
    22  H    2.025668   0.000000
 Stoichiometry    C8H12O2
 Framework group  C1[X(C8H12O2)]
 Deg. of freedom    60
 Full point group                 C1      NOp   1
 Largest Abelian subgroup         C1      NOp   1
 Largest concise Abelian subgroup C1      NOp   1
                         Standard orientation:                         
 ---------------------------------------------------------------------
 Center     Atomic      Atomic             Coordinates (Angstroms)
 Number     Number       Type             X           Y           Z
 ---------------------------------------------------------------------
      1          6           0        0.848114    1.510121   -0.846500
      2          6           0       -0.932682    1.677895    0.326947
      3          6           0        0.586630   -0.325261    1.667397
      4          6           0        1.820400    0.752866   -0.218291
      5          1           0        0.331426    1.089993   -1.706309
      6          1           0        0.934598    2.592133   -0.853301
      7          1           0        2.558291    1.212215    0.433752
      8          6           0       -1.353929    0.363085    0.379268
      9          6           0       -0.584381   -0.632860    1.038624
     10          1           0       -1.534960    2.375573   -0.246163
     11          1           0        1.239056   -1.113284    2.029183
     12          1           0       -0.816667   -1.678848    0.870075
     13          1           0       -0.378507    2.094885    1.156802
     14          1           0        0.807247    0.671623    2.026157
     15          8           0       -2.394677    0.053007   -0.439878
     16          6           0       -2.708498   -1.306997   -0.656797
     17          1           0       -2.992782   -1.807500    0.275886
     18          1           0       -3.558227   -1.311074   -1.339093
     19          1           0       -1.870597   -1.844552   -1.116866
     20          6           0        2.089085   -0.618003   -0.651008
     21          8           0        3.070021   -1.273735   -0.367861
     22          1           0        1.289939   -1.040416   -1.306052
 ---------------------------------------------------------------------
 Rotational constants (GHZ):           1.9989296           0.8346051           0.7517531
 Standard basis: def2TZVP (5D, 7F)
 There are   432 symmetry adapted cartesian basis functions of A   symmetry.
 There are   382 symmetry adapted basis functions of A   symmetry.
   382 basis functions,   606 primitive gaussians,   432 cartesian basis functions
    38 alpha electrons       38 beta electrons
       nuclear repulsion energy       526.2515875631 Hartrees.
 NAtoms=   22 NActive=   22 NUniq=   22 SFac= 1.00D+00 NAtFMM=   60 NAOKFM=F Big=F
 Integral buffers will be    131072 words long.
 Raffenetti 2 integral format.
 Two-electron integral symmetry is turned on.
 One-electron integrals computed using PRISM.
   1 Symmetry operations used in ECPInt.
 ECPInt:  NShTT=   12561 NPrTT=   37384 LenC2=   12143 LenP2D=   28223.
 LDataN:  DoStor=T MaxTD1= 6 Len=  172
 NBasis=   382 RedAO= T EigKep=  6.53D-05  NBF=   382
 NBsUse=   382 1.00D-06 EigRej= -1.00D+00 NBFU=   382
 ExpMin= 9.52D-02 ExpMax= 2.70D+04 ExpMxC= 9.22D+02 IAcc=3 IRadAn=         5 AccDes= 0.00D+00
 Harris functional with IExCor= 1009 and IRadAn=       5 diagonalized for initial guess.
 HarFok:  IExCor= 1009 AccDes= 0.00D+00 IRadAn=         5 IDoV= 1 UseB2=F ITyADJ=14
 ICtDFT=  3500011 ScaDFX=  1.000000  1.000000  1.000000  1.000000
 FoFCou: FMM=F IPFlag=           0 FMFlag=      100000 FMFlg1=           0
         NFxFlg=           0 DoJE=T BraDBF=F KetDBF=T FulRan=T
         wScrn=  0.000000 ICntrl=       500 IOpCl=  0 I1Cent=   200000004 NGrid=           0
         NMat0=    1 NMatS0=      1 NMatT0=    0 NMatD0=    1 NMtDS0=    0 NMtDT0=    0
 Petite list used in FoFCou.
 Requested convergence on RMS density matrix=1.00D-08 within 128 cycles.
 Requested convergence on MAX density matrix=1.00D-06.
 Requested convergence on             energy=1.00D-06.
 No special actions if energy rises.
 Integral accuracy reduced to 1.0D-05 until final iterations.
 Initial convergence to 1.0D-05 achieved.  Increase integral accuracy.
 SCF Done:  E(RM062X) =  -462.369190149     A.U. after   17 cycles
            NFock= 17  Conv=0.16D-08     -V/T= 2.0051

 **********************************************************************

            Population analysis using the SCF Density.

 **********************************************************************

 Orbital symmetries:
       Occupied  (A) (A) (A) (A) (A) (A) (A) (A) (A) (A) (A) (A)
                 (A) (A) (A) (A) (A) (A) (A) (A) (A) (A) (A) (A)
                 (A) (A) (A) (A) (A) (A) (A) (A) (A) (A) (A) (A)
                 (A) (A)
       Virtual   (A) (A) (A) (A) (A) (A) (A) (A) (A) (A) (A) (A)
                 (A) (A) (A) (A) (A) (A) (A) (A) (A) (A) (A) (A)
                 (A) (A) (A) (A) (A) (A) (A) (A) (A) (A) (A) (A)
                 (A) (A) (A) (A) (A) (A) (A) (A) (A) (A) (A) (A)
                 (A) (A) (A) (A) (A) (A) (A) (A) (A) (A) (A) (A)
                 (A) (A) (A) (A) (A) (A) (A) (A) (A) (A) (A) (A)
                 (A) (A) (A) (A) (A) (A) (A) (A) (A) (A) (A) (A)
                 (A) (A) (A) (A) (A) (A) (A) (A) (A) (A) (A) (A)
                 (A) (A) (A) (A) (A) (A) (A) (A) (A) (A) (A) (A)
                 (A) (A) (A) (A) (A) (A) (A) (A) (A) (A) (A) (A)
                 (A) (A) (A) (A) (A) (A) (A) (A) (A) (A) (A) (A)
                 (A) (A) (A) (A) (A) (A) (A) (A) (A) (A) (A) (A)
                 (A) (A) (A) (A) (A) (A) (A) (A) (A) (A) (A) (A)
                 (A) (A) (A) (A) (A) (A) (A) (A) (A) (A) (A) (A)
                 (A) (A) (A) (A) (A) (A) (A) (A) (A) (A) (A) (A)
                 (A) (A) (A) (A) (A) (A) (A) (A) (A) (A) (A) (A)
                 (A) (A) (A) (A) (A) (A) (A) (A) (A) (A) (A) (A)
                 (A) (A) (A) (A) (A) (A) (A) (A) (A) (A) (A) (A)
                 (A) (A) (A) (A) (A) (A) (A) (A) (A) (A) (A) (A)
                 (A) (A) (A) (A) (A) (A) (A) (A) (A) (A) (A) (A)
                 (A) (A) (A) (A) (A) (A) (A) (A) (A) (A) (A) (A)
                 (A) (A) (A) (A) (A) (A) (A) (A) (A) (A) (A) (A)
                 (A) (A) (A) (A) (A) (A) (A) (A) (A) (A) (A) (A)
                 (A) (A) (A) (A) (A) (A) (A) (A) (A) (A) (A) (A)
                 (A) (A) (A) (A) (A) (A) (A) (A) (A) (A) (A) (A)
                 (A) (A) (A) (A) (A) (A) (A) (A) (A) (A) (A) (A)
                 (A) (A) (A) (A) (A) (A) (A) (A) (A) (A) (A) (A)
                 (A) (A) (A) (A) (A) (A) (A) (A) (A) (A) (A) (A)
                 (A) (A) (A) (A) (A) (A) (A) (A)
 The electronic state is 1-A.
 Alpha  occ. eigenvalues --  -19.67076 -19.59669 -10.61835 -10.60947 -10.60209
 Alpha  occ. eigenvalues --  -10.56695 -10.56441 -10.55539 -10.55480 -10.54084
 Alpha  occ. eigenvalues --   -1.20727  -1.14394  -0.93515  -0.87939  -0.85785
 Alpha  occ. eigenvalues --   -0.79216  -0.73450  -0.72092  -0.64334  -0.63041
 Alpha  occ. eigenvalues --   -0.60489  -0.57526  -0.56376  -0.53524  -0.53237
 Alpha  occ. eigenvalues --   -0.50567  -0.49209  -0.48259  -0.47235  -0.46897
 Alpha  occ. eigenvalues --   -0.46045  -0.44033  -0.43795  -0.41062  -0.38234
 Alpha  occ. eigenvalues --   -0.32265  -0.31315  -0.26317
 Alpha virt. eigenvalues --   -0.02810   0.01391   0.05737   0.06233   0.07719
 Alpha virt. eigenvalues --    0.08393   0.10356   0.10741   0.11384   0.12494
 Alpha virt. eigenvalues --    0.12797   0.13310   0.14576   0.15595   0.16479
 Alpha virt. eigenvalues --    0.17908   0.19094   0.20051   0.21010   0.21590
 Alpha virt. eigenvalues --    0.22441   0.23426   0.24075   0.24772   0.25892
 Alpha virt. eigenvalues --    0.27448   0.28453   0.29083   0.30707   0.32153
 Alpha virt. eigenvalues --    0.32907   0.33984   0.35025   0.35421   0.36552
 Alpha virt. eigenvalues --    0.37384   0.38130   0.39132   0.40706   0.41079
 Alpha virt. eigenvalues --    0.42583   0.43089   0.43929   0.44518   0.45225
 Alpha virt. eigenvalues --    0.45876   0.46065   0.47203   0.47412   0.48248
 Alpha virt. eigenvalues --    0.49340   0.49809   0.50529   0.50858   0.52357
 Alpha virt. eigenvalues --    0.53309   0.55368   0.56096   0.57388   0.57676
 Alpha virt. eigenvalues --    0.58012   0.59535   0.61534   0.62544   0.63705
 Alpha virt. eigenvalues --    0.64507   0.65230   0.66441   0.67755   0.70461
 Alpha virt. eigenvalues --    0.71302   0.73820   0.74613   0.75318   0.76502
 Alpha virt. eigenvalues --    0.79263   0.81453   0.82290   0.85256   0.86414
 Alpha virt. eigenvalues --    0.88055   0.88757   0.90122   0.91444   0.94577
 Alpha virt. eigenvalues --    0.94925   0.95224   0.96558   0.98344   1.00878
 Alpha virt. eigenvalues --    1.02046   1.04105   1.04525   1.06826   1.07842
 Alpha virt. eigenvalues --    1.10470   1.11509   1.11941   1.12851   1.14729
 Alpha virt. eigenvalues --    1.16243   1.18478   1.21429   1.22515   1.23313
 Alpha virt. eigenvalues --    1.25241   1.27533   1.27641   1.29880   1.32183
 Alpha virt. eigenvalues --    1.33435   1.35842   1.37259   1.38259   1.41655
 Alpha virt. eigenvalues --    1.44533   1.48131   1.48977   1.50445   1.51359
 Alpha virt. eigenvalues --    1.52930   1.53960   1.54624   1.56125   1.57729
 Alpha virt. eigenvalues --    1.58811   1.59457   1.60774   1.61350   1.62513
 Alpha virt. eigenvalues --    1.63926   1.64119   1.66294   1.67029   1.68793
 Alpha virt. eigenvalues --    1.69853   1.70397   1.71929   1.72861   1.75147
 Alpha virt. eigenvalues --    1.78792   1.80718   1.81948   1.82014   1.84446
 Alpha virt. eigenvalues --    1.86021   1.87750   1.91413   1.92998   1.93780
 Alpha virt. eigenvalues --    1.94948   1.96380   1.99481   2.01612   2.02973
 Alpha virt. eigenvalues --    2.04190   2.06352   2.07091   2.08421   2.10226
 Alpha virt. eigenvalues --    2.12527   2.15516   2.15862   2.19591   2.21571
 Alpha virt. eigenvalues --    2.22844   2.23840   2.26535   2.29626   2.30116
 Alpha virt. eigenvalues --    2.31451   2.32638   2.33434   2.35582   2.36149
 Alpha virt. eigenvalues --    2.39062   2.40334   2.41277   2.43110   2.43770
 Alpha virt. eigenvalues --    2.47078   2.47792   2.48286   2.49616   2.50758
 Alpha virt. eigenvalues --    2.52386   2.55105   2.56253   2.57315   2.59513
 Alpha virt. eigenvalues --    2.60230   2.61099   2.61926   2.64326   2.65474
 Alpha virt. eigenvalues --    2.66028   2.66753   2.68911   2.69231   2.72473
 Alpha virt. eigenvalues --    2.73272   2.74637   2.76955   2.79075   2.80184
 Alpha virt. eigenvalues --    2.81122   2.82964   2.83499   2.85125   2.87019
 Alpha virt. eigenvalues --    2.87813   2.90770   2.93714   2.94183   2.95744
 Alpha virt. eigenvalues --    2.99303   2.99816   3.01316   3.02304   3.05280
 Alpha virt. eigenvalues --    3.05710   3.06809   3.09663   3.10051   3.11301
 Alpha virt. eigenvalues --    3.13091   3.14200   3.14344   3.16486   3.17388
 Alpha virt. eigenvalues --    3.18403   3.20276   3.20806   3.21723   3.23653
 Alpha virt. eigenvalues --    3.24201   3.25703   3.26983   3.28826   3.30186
 Alpha virt. eigenvalues --    3.30858   3.32958   3.33210   3.33822   3.34800
 Alpha virt. eigenvalues --    3.35611   3.38390   3.39034   3.40385   3.41606
 Alpha virt. eigenvalues --    3.43365   3.44279   3.47665   3.48274   3.49101
 Alpha virt. eigenvalues --    3.49557   3.50133   3.51096   3.53490   3.55211
 Alpha virt. eigenvalues --    3.56737   3.57513   3.59133   3.61217   3.62212
 Alpha virt. eigenvalues --    3.67895   3.69369   3.71656   3.74252   3.75343
 Alpha virt. eigenvalues --    3.77687   3.81458   3.85834   3.88106   3.89689
 Alpha virt. eigenvalues --    3.94374   4.02062   4.04574   4.06032   4.10159
 Alpha virt. eigenvalues --    4.11536   4.12845   4.13660   4.14270   4.16035
 Alpha virt. eigenvalues --    4.19356   4.22885   4.25669   4.27539   4.28286
 Alpha virt. eigenvalues --    4.30359   4.31275   4.36681   4.41826   4.47881
 Alpha virt. eigenvalues --    4.51396   4.53045   4.54422   4.58534   4.65610
 Alpha virt. eigenvalues --    4.66449   4.70390   4.74503   4.77798   4.83201
 Alpha virt. eigenvalues --    4.83781   4.88328   4.90705   5.00899   5.10201
 Alpha virt. eigenvalues --    5.23894   5.25397   5.35477   5.46331   5.59169
 Alpha virt. eigenvalues --    5.68940   5.75098   5.88352   5.89863   6.10814
 Alpha virt. eigenvalues --    6.23077   6.33909   6.38402   6.42214   6.43946
 Alpha virt. eigenvalues --    6.48436   6.63061   6.74829   6.82602   6.84855
 Alpha virt. eigenvalues --    6.96210   7.07539   7.12667   7.31790  22.40553
 Alpha virt. eigenvalues --   22.43997  22.46896  22.58958  22.74868  22.80661
 Alpha virt. eigenvalues --   23.04159  23.11326  44.02355  44.34220
          Condensed to atoms (all electrons):
               1          2          3          4          5          6
     1  C    5.314849   0.098100  -0.040003   0.123723   0.422644   0.418065
     2  C    0.098100   5.417181  -0.033187  -0.075973  -0.056324  -0.032956
     3  C   -0.040003  -0.033187   5.211468   0.114678   0.003469   0.003345
     4  C    0.123723  -0.075973   0.114678   6.187063  -0.049164  -0.034352
     5  H    0.422644  -0.056324   0.003469  -0.049164   0.497239  -0.010571
     6  H    0.418065  -0.032956   0.003345  -0.034352  -0.010571   0.486628
     7  H   -0.025082   0.001351  -0.015540   0.372443   0.002247  -0.003767
     8  C    0.015218   0.340699  -0.035440  -0.019201  -0.005961   0.000977
     9  C   -0.023591  -0.029257   0.350308  -0.052725  -0.004806   0.001722
    10  H   -0.012055   0.419081  -0.000431   0.002895   0.000548  -0.001318
    11  H    0.002873   0.001424   0.413359  -0.019678  -0.000107  -0.000102
    12  H   -0.000744   0.003119  -0.015038   0.000747  -0.000019   0.000031
    13  H   -0.036224   0.447798  -0.008843  -0.010646   0.003997  -0.002386
    14  H   -0.007558   0.012978   0.449291  -0.023779  -0.000471   0.000673
    15  O   -0.010290  -0.075154   0.006498   0.003899   0.008518   0.000040
    16  C   -0.000667   0.002518  -0.002396   0.001296   0.000635   0.000043
    17  H   -0.000296  -0.000603   0.000506   0.000427   0.000237   0.000001
    18  H    0.000102  -0.000070   0.000151  -0.000066  -0.000058   0.000000
    19  H    0.001727   0.001804  -0.002392  -0.001624  -0.001367  -0.000021
    20  C    0.061053   0.003899  -0.041222   0.013308   0.000141   0.001308
    21  O    0.009007   0.000214  -0.012107  -0.120055   0.000217  -0.000262
    22  H    0.057529  -0.000257  -0.021572  -0.264606  -0.000604  -0.000169
               7          8          9         10         11         12
     1  C   -0.025082   0.015218  -0.023591  -0.012055   0.002873  -0.000744
     2  C    0.001351   0.340699  -0.029257   0.419081   0.001424   0.003119
     3  C   -0.015540  -0.035440   0.350308  -0.000431   0.413359  -0.015038
     4  C    0.372443  -0.019201  -0.052725   0.002895  -0.019678   0.000747
     5  H    0.002247  -0.005961  -0.004806   0.000548  -0.000107  -0.000019
     6  H   -0.003767   0.000977   0.001722  -0.001318  -0.000102   0.000031
     7  H    0.474029   0.001031   0.001645  -0.000040   0.001825  -0.000175
     8  C    0.001031   5.016563   0.266196  -0.049077   0.006404  -0.068055
     9  C    0.001645   0.266196   5.388854   0.007004  -0.045256   0.438818
    10  H   -0.000040  -0.049077   0.007004   0.461463  -0.000009  -0.000125
    11  H    0.001825   0.006404  -0.045256  -0.000009   0.460057  -0.004716
    12  H   -0.000175  -0.068055   0.438818  -0.000125  -0.004716   0.486486
    13  H    0.000739  -0.071135   0.010354  -0.008811   0.000205   0.000384
    14  H   -0.004387  -0.010063  -0.064741   0.000079  -0.013065   0.003068
    15  O    0.000003   0.344920  -0.069980   0.006546  -0.000110  -0.004163
    16  C   -0.000001  -0.073549  -0.008400   0.000408  -0.000015   0.002816
    17  H    0.000001  -0.005043  -0.007213   0.000098  -0.000063  -0.003810
    18  H   -0.000000   0.005054   0.000704  -0.000161  -0.000000   0.000222
    19  H    0.000002  -0.010767   0.010826   0.000075   0.000116  -0.002436
    20  C    0.006673   0.009289  -0.004973  -0.000177   0.005820  -0.002123
    21  O    0.006229   0.000193  -0.000979   0.000003   0.005518   0.000312
    22  H    0.007239  -0.000702   0.017234   0.000097   0.002701  -0.002849
              13         14         15         16         17         18
     1  C   -0.036224  -0.007558  -0.010290  -0.000667  -0.000296   0.000102
     2  C    0.447798   0.012978  -0.075154   0.002518  -0.000603  -0.000070
     3  C   -0.008843   0.449291   0.006498  -0.002396   0.000506   0.000151
     4  C   -0.010646  -0.023779   0.003899   0.001296   0.000427  -0.000066
     5  H    0.003997  -0.000471   0.008518   0.000635   0.000237  -0.000058
     6  H   -0.002386   0.000673   0.000040   0.000043   0.000001   0.000000
     7  H    0.000739  -0.004387   0.000003  -0.000001   0.000001  -0.000000
     8  C   -0.071135  -0.010063   0.344920  -0.073549  -0.005043   0.005054
     9  C    0.010354  -0.064741  -0.069980  -0.008400  -0.007213   0.000704
    10  H   -0.008811   0.000079   0.006546   0.000408   0.000098  -0.000161
    11  H    0.000205  -0.013065  -0.000110  -0.000015  -0.000063  -0.000000
    12  H    0.000384   0.003068  -0.004163   0.002816  -0.003810   0.000222
    13  H    0.475899  -0.000675   0.002377  -0.000397   0.000097   0.000013
    14  H   -0.000675   0.504191  -0.000081   0.000008  -0.000089   0.000003
    15  O    0.002377  -0.000081   7.946295   0.226823  -0.038602  -0.031273
    16  C   -0.000397   0.000008   0.226823   4.919451   0.423421   0.402298
    17  H    0.000097  -0.000089  -0.038602   0.423421   0.552786  -0.020715
    18  H    0.000013   0.000003  -0.031273   0.402298  -0.020715   0.505706
    19  H   -0.000108   0.000056  -0.043020   0.409271  -0.057464  -0.018606
    20  C    0.000996  -0.000263   0.000064  -0.000360   0.000023   0.000017
    21  O   -0.000003  -0.000011  -0.000003  -0.000016  -0.000004  -0.000000
    22  H   -0.000002  -0.000566   0.000231  -0.000173   0.000097   0.000032
              19         20         21         22
     1  C    0.001727   0.061053   0.009007   0.057529
     2  C    0.001804   0.003899   0.000214  -0.000257
     3  C   -0.002392  -0.041222  -0.012107  -0.021572
     4  C   -0.001624   0.013308  -0.120055  -0.264606
     5  H   -0.001367   0.000141   0.000217  -0.000604
     6  H   -0.000021   0.001308  -0.000262  -0.000169
     7  H    0.000002   0.006673   0.006229   0.007239
     8  C   -0.010767   0.009289   0.000193  -0.000702
     9  C    0.010826  -0.004973  -0.000979   0.017234
    10  H    0.000075  -0.000177   0.000003   0.000097
    11  H    0.000116   0.005820   0.005518   0.002701
    12  H   -0.002436  -0.002123   0.000312  -0.002849
    13  H   -0.000108   0.000996  -0.000003  -0.000002
    14  H    0.000056  -0.000263  -0.000011  -0.000566
    15  O   -0.043020   0.000064  -0.000003   0.000231
    16  C    0.409271  -0.000360  -0.000016  -0.000173
    17  H   -0.057464   0.000023  -0.000004   0.000097
    18  H   -0.018606   0.000017  -0.000000   0.000032
    19  H    0.562945   0.000004   0.000023  -0.000172
    20  C    0.000004   4.708394   0.652617   0.507918
    21  O    0.000023   0.652617   7.852077  -0.069405
    22  H   -0.000172   0.507918  -0.069405   0.694800
 Mulliken charges:
               1
     1  C   -0.368381
     2  C   -0.446383
     3  C   -0.324905
     4  C   -0.148612
     5  H    0.189560
     6  H    0.173072
     7  H    0.173536
     8  C    0.342450
     9  C   -0.181745
    10  H    0.173906
    11  H    0.182818
    12  H    0.168251
    13  H    0.196371
    14  H    0.155404
    15  O   -0.273539
    16  C   -0.303016
    17  H    0.156208
    18  H    0.156648
    19  H    0.151128
    20  C    0.077594
    21  O   -0.323564
    22  H    0.073199
 Sum of Mulliken charges =  -0.00000
 Mulliken charges with hydrogens summed into heavy atoms:
               1
     1  C   -0.005749
     2  C   -0.076106
     3  C    0.013318
     4  C    0.024924
     8  C    0.342450
     9  C   -0.013494
    15  O   -0.273539
    16  C    0.160968
    20  C    0.150793
    21  O   -0.323564
 Electronic spatial extent (au):  <R**2>=           1672.9558
 Charge=             -0.0000 electrons
 Dipole moment (field-independent basis, Debye):
    X=             -3.7801    Y=              1.2594    Z=              0.3180  Tot=              3.9971
 Quadrupole moment (field-independent basis, Debye-Ang):
   XX=            -74.6966   YY=            -57.5423   ZZ=            -60.0585
   XY=             11.1871   XZ=              4.5642   YZ=              0.4640
 Traceless Quadrupole moment (field-independent basis, Debye-Ang):
   XX=            -10.5975   YY=              6.5569   ZZ=              4.0406
   XY=             11.1871   XZ=              4.5642   YZ=              0.4640
 Octapole moment (field-independent basis, Debye-Ang**2):
  XXX=            -59.5594  YYY=              6.0112  ZZZ=             -6.6149  XYY=            -15.8044
  XXY=              9.1539  XXZ=              1.6870  XZZ=              2.6055  YZZ=             -2.4737
  YYZ=              0.5632  XYZ=             -3.0494
 Hexadecapole moment (field-independent basis, Debye-Ang**3):
 XXXX=          -1478.2199 YYYY=           -500.6179 ZZZZ=           -347.1641 XXXY=            106.0751
 XXXZ=             46.7451 YYYX=             11.9793 YYYZ=             -4.5925 ZZZX=             20.4855
 ZZZY=              7.8504 XXYY=           -325.9214 XXZZ=           -272.9784 YYZZ=           -138.7401
 XXYZ=              2.6508 YYXZ=             15.0538 ZZXY=             -1.8125
 N-N= 5.262515875631D+02 E-N=-2.130129249158D+03  KE= 4.600403076548D+02
 Unable to Open any file for archive entry.
 1\1\GINC-NODE11\SP\RM062X\def2TZVP\C8H12O2\RPATON\21-Jun-2022\0\\# M06
 2X/def2tzvp\\DATS_14_endo_iii_TZVPcreated by GaussianPrep\\0,1\C,0,0.8
 48114,1.510121,-0.8465\C,0,-0.932682,1.677895,0.326947\C,0,0.58663,-0.
 325261,1.667397\C,0,1.8204,0.752866,-0.218291\H,0,0.331426,1.089993,-1
 .706309\H,0,0.934598,2.592133,-0.853301\H,0,2.558291,1.212215,0.433752
 \C,0,-1.353929,0.363085,0.379268\C,0,-0.584381,-0.63286,1.038624\H,0,-
 1.53496,2.375573,-0.246163\H,0,1.239056,-1.113284,2.029183\H,0,-0.8166
 67,-1.678848,0.870075\H,0,-0.378507,2.094885,1.156802\H,0,0.807247,0.6
 71623,2.026157\O,0,-2.394677,0.053007,-0.439878\C,0,-2.708498,-1.30699
 7,-0.656797\H,0,-2.992782,-1.8075,0.275886\H,0,-3.558227,-1.311074,-1.
 339093\H,0,-1.870597,-1.844552,-1.116866\C,0,2.089085,-0.618003,-0.651
 008\O,0,3.070021,-1.273735,-0.367861\H,0,1.289939,-1.040416,-1.306052\
 \Version=AS64L-G16RevC.01\State=1-A\HF=-462.3691901\RMSD=1.590e-09\Dip
 ole=-1.4872248,0.495502,0.1250977\Quadrupole=-7.8789657,4.874872,3.004
 0937,8.3173664,3.3933987,0.345006\PG=C01 [X(C8H12O2)]\\@
 The archive entry for this job was punched.


 ADAM SMITH SAID, "THE REAL PRICE OF ANYTHING IS THE TOIL AND TROUBLE
 OF ACQUIRING IT."  BUT IN ALL UNDERTAKINGS WITH NATURE WE SHOULD FIRST
 READ CAREFULLY THE SMALL PRINT IN THE CONTRACT. THIS MIGHT DISCLOSE
 THAT THE REAL PRICE IS TO BE PAID BY THOSE WHO INHERIT THE DEPLETION
 AND DESPOILATION THAT FOLLOWS.
                               -- E. R. HARRISON IN "COSMOLOGY" (1980)
 Job cpu time:       0 days  0 hours 17 minutes  2.3 seconds.
 Elapsed time:       0 days  0 hours  1 minutes  6.9 seconds.
 File lengths (MBytes):  RWF=     83 Int=      0 D2E=      0 Chk=     10 Scr=      1
 Normal termination of Gaussian 16 at Tue Jun 21 11:24:55 2022.
