Job Start Time: Tue Jun 21 11:23:57 MDT 2022
SLURM Job ID: 40895
SLURM Job Name: DATS_14_exo_ii_TZVP
 Entering Gaussian System, Link 0=/opt/apps/Gaussian/G16C/g16/g16
 Initial command:
 /opt/apps/Gaussian/G16C/g16/l1.exe "/tmp/Gau-3346646.inp" -scrdir="/tmp/"
 Entering Link 1 = /opt/apps/Gaussian/G16C/g16/l1.exe PID=   3346647.
  
 Copyright (c) 1988-2019, Gaussian, Inc.  All Rights Reserved.
  
 This is part of the Gaussian(R) 16 program.  It is based on
 the Gaussian(R) 09 system (copyright 2009, Gaussian, Inc.),
 the Gaussian(R) 03 system (copyright 2003, Gaussian, Inc.),
 the Gaussian(R) 98 system (copyright 1998, Gaussian, Inc.),
 the Gaussian(R) 94 system (copyright 1995, Gaussian, Inc.),
 the Gaussian 92(TM) system (copyright 1992, Gaussian, Inc.),
 the Gaussian 90(TM) system (copyright 1990, Gaussian, Inc.),
 the Gaussian 88(TM) system (copyright 1988, Gaussian, Inc.),
 the Gaussian 86(TM) system (copyright 1986, Carnegie Mellon
 University), and the Gaussian 82(TM) system (copyright 1983,
 Carnegie Mellon University). Gaussian is a federally registered
 trademark of Gaussian, Inc.
  
 This software contains proprietary and confidential information,
 including trade secrets, belonging to Gaussian, Inc.
  
 This software is provided under written license and may be
 used, copied, transmitted, or stored only in accord with that
 written license.
  
 The following legend is applicable only to US Government
 contracts under FAR:
  
                    RESTRICTED RIGHTS LEGEND
  
 Use, reproduction and disclosure by the US Government is
 subject to restrictions as set forth in subparagraphs (a)
 and (c) of the Commercial Computer Software - Restricted
 Rights clause in FAR 52.227-19.
  
 Gaussian, Inc.
 340 Quinnipiac St., Bldg. 40, Wallingford CT 06492
  
  
 ---------------------------------------------------------------
 Warning -- This program may not be used in any manner that
 competes with the business of Gaussian, Inc. or will provide
 assistance to any competitor of Gaussian, Inc.  The licensee
 of this program is prohibited from giving any competitor of
 Gaussian, Inc. access to this program.  By using this program,
 the user acknowledges that Gaussian, Inc. is engaged in the
 business of creating and licensing software in the field of
 computational chemistry and represents and warrants to the
 licensee that it is not a competitor of Gaussian, Inc. and that
 it will not use this program in any manner prohibited above.
 ---------------------------------------------------------------
  

 Cite this work as:
 Gaussian 16, Revision C.01,
 M. J. Frisch, G. W. Trucks, H. B. Schlegel, G. E. Scuseria, 
 M. A. Robb, J. R. Cheeseman, G. Scalmani, V. Barone, 
 G. A. Petersson, H. Nakatsuji, X. Li, M. Caricato, A. V. Marenich, 
 J. Bloino, B. G. Janesko, R. Gomperts, B. Mennucci, H. P. Hratchian, 
 J. V. Ortiz, A. F. Izmaylov, J. L. Sonnenberg, D. Williams-Young, 
 F. Ding, F. Lipparini, F. Egidi, J. Goings, B. Peng, A. Petrone, 
 T. Henderson, D. Ranasinghe, V. G. Zakrzewski, J. Gao, N. Rega, 
 G. Zheng, W. Liang, M. Hada, M. Ehara, K. Toyota, R. Fukuda, 
 J. Hasegawa, M. Ishida, T. Nakajima, Y. Honda, O. Kitao, H. Nakai, 
 T. Vreven, K. Throssell, J. A. Montgomery, Jr., J. E. Peralta, 
 F. Ogliaro, M. J. Bearpark, J. J. Heyd, E. N. Brothers, K. N. Kudin, 
 V. N. Staroverov, T. A. Keith, R. Kobayashi, J. Normand, 
 K. Raghavachari, A. P. Rendell, J. C. Burant, S. S. Iyengar, 
 J. Tomasi, M. Cossi, J. M. Millam, M. Klene, C. Adamo, R. Cammi, 
 J. W. Ochterski, R. L. Martin, K. Morokuma, O. Farkas, 
 J. B. Foresman, and D. J. Fox, Gaussian, Inc., Wallingford CT, 2019.
 
 ******************************************
 Gaussian 16:  AS64L-G16RevC.01  3-Jul-2019
                21-Jun-2022 
 ******************************************
 %chk=DATS_14_exo_ii_TZVP.chk
 %mem=48GB
 %nprocshared=16
 Will use up to   16 processors via shared memory.
 ----------------
 # M062X/def2tzvp
 ----------------
 1/38=1,172=1/1;
 2/12=2,17=6,18=5,40=1/2;
 3/5=44,7=101,11=2,25=1,30=1,74=-55/1,2,3;
 4//1;
 5/5=2,38=5/2;
 6/7=2,8=2,9=2,10=2,28=1/1;
 99/5=1,9=1/99;
 ------------------------------------------
 DATS_14_exo_ii_TZVPcreated by GaussianPrep
 ------------------------------------------
 Symbolic Z-matrix:
 Charge =  0 Multiplicity = 1
 C                    -0.65472  -1.21953  -0.75681 
 C                     0.53005  -0.66952   0.75872 
 C                    -0.71546   1.85777   0.23984 
 C                    -1.61489  -0.24838  -1.04517 
 H                     0.0893   -1.45837  -1.51165 
 H                    -0.99825  -2.06562  -0.16637 
 H                    -1.56873   0.35482  -1.94397 
 C                     1.24349   0.41887   0.26737 
 C                     0.59649   1.64482  -0.04017 
 H                     1.05543  -1.58685   1.00166 
 H                    -1.21132   2.75564  -0.11606 
 H                     1.15706   2.34405  -0.65457 
 H                    -0.33099  -0.4757    1.39145 
 H                    -1.25099   1.28121   0.98387 
 O                     2.51408   0.34509  -0.19495 
 C                     3.2344   -0.8482    0.03276 
 H                     2.78228  -1.69359  -0.49902 
 H                     4.23798  -0.6732   -0.3536 
 H                     3.28599  -1.08058   1.10267 
 C                    -2.7743   -0.15562  -0.18713 
 O                    -2.85319  -0.70371   0.90692 
 H                    -3.60524   0.48585  -0.5466 
 
                          Input orientation:                          
 ---------------------------------------------------------------------
 Center     Atomic      Atomic             Coordinates (Angstroms)
 Number     Number       Type             X           Y           Z
 ---------------------------------------------------------------------
      1          6           0       -0.654719   -1.219530   -0.756811
      2          6           0        0.530045   -0.669520    0.758717
      3          6           0       -0.715460    1.857766    0.239837
      4          6           0       -1.614890   -0.248376   -1.045171
      5          1           0        0.089304   -1.458374   -1.511647
      6          1           0       -0.998247   -2.065619   -0.166366
      7          1           0       -1.568728    0.354823   -1.943970
      8          6           0        1.243486    0.418868    0.267372
      9          6           0        0.596492    1.644818   -0.040171
     10          1           0        1.055430   -1.586852    1.001663
     11          1           0       -1.211317    2.755636   -0.116057
     12          1           0        1.157058    2.344049   -0.654569
     13          1           0       -0.330986   -0.475700    1.391452
     14          1           0       -1.250991    1.281209    0.983867
     15          8           0        2.514081    0.345092   -0.194949
     16          6           0        3.234399   -0.848195    0.032763
     17          1           0        2.782283   -1.693587   -0.499024
     18          1           0        4.237984   -0.673201   -0.353601
     19          1           0        3.285988   -1.080578    1.102666
     20          6           0       -2.774297   -0.155623   -0.187132
     21          8           0       -2.853190   -0.703705    0.906919
     22          1           0       -3.605244    0.485849   -0.546595
 ---------------------------------------------------------------------
                    Distance matrix (angstroms):
                    1          2          3          4          5
     1  C    0.000000
     2  C    2.000750   0.000000
     3  C    3.235235   2.864907   0.000000
     4  C    1.395786   2.834100   2.626034   0.000000
     5  H    1.086459   2.443583   3.835639   2.141488   0.000000
     6  H    1.087430   2.267278   3.954481   2.110668   1.833383
     7  H    2.173326   3.571924   2.784945   1.083430   2.494726
     8  C    2.708594   1.391045   2.430773   3.215322   2.832152
     9  C    3.206804   2.449244   1.358296   3.079678   3.471640
    10  H    2.480275   1.084689   3.947382   3.621002   2.695669
    11  H    4.064765   3.940719   1.085682   3.170207   4.625707
    12  H    3.999010   3.387052   2.131374   3.815355   4.041423
    13  H    2.296328   1.085953   2.630418   2.763552   3.093586
    14  H    3.104705   2.651061   1.082955   2.566914   3.940723
    15  O    3.578411   2.423905   3.592653   4.257168   3.296320
    16  C    3.985794   2.805791   4.792337   5.003731   3.556563
    17  H    3.479104   2.775464   5.039070   4.660691   2.886670
    18  H    4.939595   3.871185   5.594155   5.908881   4.378255
    19  H    4.359603   2.807577   5.038842   5.415198   4.146824
    20  C    2.439066   3.475255   2.911159   1.445358   3.413460
    21  O    2.804879   3.386652   3.402355   2.356134   3.882944
    22  H    3.414397   4.487687   3.294159   2.179260   4.284975
                    6          7          8          9         10
     6  H    0.000000
     7  H    3.056773   0.000000
     8  C    3.374340   3.578084   0.000000
     9  C    4.040601   3.158594   1.419908   0.000000
    10  H    2.410622   4.396938   2.144169   3.426329   0.000000
    11  H    4.826223   3.038571   3.410801   2.123169   5.024405
    12  H    4.932429   3.612407   2.136297   1.086574   4.266780
    13  H    2.323763   3.653329   2.131377   2.721462   1.818995
    14  H    3.547982   3.087293   2.734851   2.143376   3.680444
    15  O    4.260140   4.441677   1.354103   2.321722   2.700361
    16  C    4.408749   5.331487   2.371545   3.630287   2.496455
    17  H    3.813329   5.021469   2.723550   4.016613   2.290300
    18  H    5.421439   6.107701   3.247344   4.328038   3.577730
    19  H    4.575524   5.908522   2.667933   3.995904   2.289520
    20  C    2.608231   2.190989   4.084017   3.824317   4.257753
    21  O    2.539205   3.301196   4.295573   4.279351   4.008271
    22  H    3.667560   2.473302   4.917033   4.387968   5.330579
                   11         12         13         14         15
    11  H    0.000000
    12  H    2.463453   0.000000
    13  H    3.672751   3.788332   0.000000
    14  H    1.839930   3.100452   2.024664   0.000000
    15  O    4.437965   2.459388   3.359282   4.054835   0.000000
    16  C    5.724870   3.870167   3.833635   5.055461   1.412319
    17  H    5.990917   4.355233   3.840520   5.226440   2.078607
    18  H    6.442688   4.322787   4.894865   5.978075   2.008465
    19  H    6.035526   4.398669   3.678556   5.116281   2.076579
    20  C    3.305055   4.682137   2.926456   2.399205   5.312035
    21  O    3.963492   5.273437   2.578424   2.552028   5.578681
    22  H    3.326888   5.113129   3.924458   2.918462   6.131036
                   16         17         18         19         20
    16  C    0.000000
    17  H    1.096309   0.000000
    18  H    1.089533   1.783648   0.000000
    19  H    1.096064   1.787431   1.786887   0.000000
    20  C    6.052474   5.773923   7.033327   6.264677   0.000000
    21  O    6.151729   5.891952   7.202402   6.153849   1.226200
    22  H    6.992571   6.749274   7.930755   7.256916   1.109582
                   21         22
    21  O    0.000000
    22  H    2.023197   0.000000
 Stoichiometry    C8H12O2
 Framework group  C1[X(C8H12O2)]
 Deg. of freedom    60
 Full point group                 C1      NOp   1
 Largest Abelian subgroup         C1      NOp   1
 Largest concise Abelian subgroup C1      NOp   1
                         Standard orientation:                         
 ---------------------------------------------------------------------
 Center     Atomic      Atomic             Coordinates (Angstroms)
 Number     Number       Type             X           Y           Z
 ---------------------------------------------------------------------
      1          6           0        0.654719   -1.219530    0.756811
      2          6           0       -0.530045   -0.669520   -0.758717
      3          6           0        0.715460    1.857766   -0.239837
      4          6           0        1.614890   -0.248376    1.045171
      5          1           0       -0.089304   -1.458374    1.511647
      6          1           0        0.998247   -2.065619    0.166366
      7          1           0        1.568728    0.354823    1.943970
      8          6           0       -1.243486    0.418868   -0.267372
      9          6           0       -0.596492    1.644818    0.040171
     10          1           0       -1.055430   -1.586852   -1.001663
     11          1           0        1.211317    2.755636    0.116057
     12          1           0       -1.157058    2.344049    0.654569
     13          1           0        0.330986   -0.475700   -1.391452
     14          1           0        1.250991    1.281209   -0.983867
     15          8           0       -2.514081    0.345092    0.194949
     16          6           0       -3.234399   -0.848195   -0.032763
     17          1           0       -2.782283   -1.693587    0.499024
     18          1           0       -4.237984   -0.673201    0.353601
     19          1           0       -3.285988   -1.080578   -1.102666
     20          6           0        2.774297   -0.155623    0.187132
     21          8           0        2.853190   -0.703705   -0.906919
     22          1           0        3.605244    0.485849    0.546595
 ---------------------------------------------------------------------
 Rotational constants (GHZ):           2.5004020           0.7990421           0.6974724
 Standard basis: def2TZVP (5D, 7F)
 There are   432 symmetry adapted cartesian basis functions of A   symmetry.
 There are   382 symmetry adapted basis functions of A   symmetry.
   382 basis functions,   606 primitive gaussians,   432 cartesian basis functions
    38 alpha electrons       38 beta electrons
       nuclear repulsion energy       528.3403468368 Hartrees.
 NAtoms=   22 NActive=   22 NUniq=   22 SFac= 1.00D+00 NAtFMM=   60 NAOKFM=F Big=F
 Integral buffers will be    131072 words long.
 Raffenetti 2 integral format.
 Two-electron integral symmetry is turned on.
 One-electron integrals computed using PRISM.
   1 Symmetry operations used in ECPInt.
 ECPInt:  NShTT=   12561 NPrTT=   37384 LenC2=   12097 LenP2D=   28142.
 LDataN:  DoStor=T MaxTD1= 6 Len=  172
 NBasis=   382 RedAO= T EigKep=  6.11D-05  NBF=   382
 NBsUse=   382 1.00D-06 EigRej= -1.00D+00 NBFU=   382
 ExpMin= 9.52D-02 ExpMax= 2.70D+04 ExpMxC= 9.22D+02 IAcc=3 IRadAn=         5 AccDes= 0.00D+00
 Harris functional with IExCor= 1009 and IRadAn=       5 diagonalized for initial guess.
 HarFok:  IExCor= 1009 AccDes= 0.00D+00 IRadAn=         5 IDoV= 1 UseB2=F ITyADJ=14
 ICtDFT=  3500011 ScaDFX=  1.000000  1.000000  1.000000  1.000000
 FoFCou: FMM=F IPFlag=           0 FMFlag=      100000 FMFlg1=           0
         NFxFlg=           0 DoJE=T BraDBF=F KetDBF=T FulRan=T
         wScrn=  0.000000 ICntrl=       500 IOpCl=  0 I1Cent=   200000004 NGrid=           0
         NMat0=    1 NMatS0=      1 NMatT0=    0 NMatD0=    1 NMtDS0=    0 NMtDT0=    0
 Petite list used in FoFCou.
 Requested convergence on RMS density matrix=1.00D-08 within 128 cycles.
 Requested convergence on MAX density matrix=1.00D-06.
 Requested convergence on             energy=1.00D-06.
 No special actions if energy rises.
 Integral accuracy reduced to 1.0D-05 until final iterations.
 Initial convergence to 1.0D-05 achieved.  Increase integral accuracy.
 SCF Done:  E(RM062X) =  -462.373436313     A.U. after   16 cycles
            NFock= 16  Conv=0.97D-08     -V/T= 2.0051

 **********************************************************************

            Population analysis using the SCF Density.

 **********************************************************************

 Orbital symmetries:
       Occupied  (A) (A) (A) (A) (A) (A) (A) (A) (A) (A) (A) (A)
                 (A) (A) (A) (A) (A) (A) (A) (A) (A) (A) (A) (A)
                 (A) (A) (A) (A) (A) (A) (A) (A) (A) (A) (A) (A)
                 (A) (A)
       Virtual   (A) (A) (A) (A) (A) (A) (A) (A) (A) (A) (A) (A)
                 (A) (A) (A) (A) (A) (A) (A) (A) (A) (A) (A) (A)
                 (A) (A) (A) (A) (A) (A) (A) (A) (A) (A) (A) (A)
                 (A) (A) (A) (A) (A) (A) (A) (A) (A) (A) (A) (A)
                 (A) (A) (A) (A) (A) (A) (A) (A) (A) (A) (A) (A)
                 (A) (A) (A) (A) (A) (A) (A) (A) (A) (A) (A) (A)
                 (A) (A) (A) (A) (A) (A) (A) (A) (A) (A) (A) (A)
                 (A) (A) (A) (A) (A) (A) (A) (A) (A) (A) (A) (A)
                 (A) (A) (A) (A) (A) (A) (A) (A) (A) (A) (A) (A)
                 (A) (A) (A) (A) (A) (A) (A) (A) (A) (A) (A) (A)
                 (A) (A) (A) (A) (A) (A) (A) (A) (A) (A) (A) (A)
                 (A) (A) (A) (A) (A) (A) (A) (A) (A) (A) (A) (A)
                 (A) (A) (A) (A) (A) (A) (A) (A) (A) (A) (A) (A)
                 (A) (A) (A) (A) (A) (A) (A) (A) (A) (A) (A) (A)
                 (A) (A) (A) (A) (A) (A) (A) (A) (A) (A) (A) (A)
                 (A) (A) (A) (A) (A) (A) (A) (A) (A) (A) (A) (A)
                 (A) (A) (A) (A) (A) (A) (A) (A) (A) (A) (A) (A)
                 (A) (A) (A) (A) (A) (A) (A) (A) (A) (A) (A) (A)
                 (A) (A) (A) (A) (A) (A) (A) (A) (A) (A) (A) (A)
                 (A) (A) (A) (A) (A) (A) (A) (A) (A) (A) (A) (A)
                 (A) (A) (A) (A) (A) (A) (A) (A) (A) (A) (A) (A)
                 (A) (A) (A) (A) (A) (A) (A) (A) (A) (A) (A) (A)
                 (A) (A) (A) (A) (A) (A) (A) (A) (A) (A) (A) (A)
                 (A) (A) (A) (A) (A) (A) (A) (A) (A) (A) (A) (A)
                 (A) (A) (A) (A) (A) (A) (A) (A) (A) (A) (A) (A)
                 (A) (A) (A) (A) (A) (A) (A) (A) (A) (A) (A) (A)
                 (A) (A) (A) (A) (A) (A) (A) (A) (A) (A) (A) (A)
                 (A) (A) (A) (A) (A) (A) (A) (A) (A) (A) (A) (A)
                 (A) (A) (A) (A) (A) (A) (A) (A)
 The electronic state is 1-A.
 Alpha  occ. eigenvalues --  -19.67667 -19.59245 -10.62202 -10.60465 -10.60104
 Alpha  occ. eigenvalues --  -10.56164 -10.56058 -10.55657 -10.54921 -10.52834
 Alpha  occ. eigenvalues --   -1.21385  -1.13601  -0.93373  -0.87336  -0.83868
 Alpha  occ. eigenvalues --   -0.82033  -0.73206  -0.71434  -0.63732  -0.61535
 Alpha  occ. eigenvalues --   -0.59479  -0.58471  -0.56716  -0.56167  -0.51921
 Alpha  occ. eigenvalues --   -0.50055  -0.48950  -0.48275  -0.46745  -0.45617
 Alpha  occ. eigenvalues --   -0.45148  -0.43732  -0.42875  -0.41537  -0.38353
 Alpha  occ. eigenvalues --   -0.32660  -0.31190  -0.25321
 Alpha virt. eigenvalues --   -0.03349   0.01551   0.05817   0.08363   0.08860
 Alpha virt. eigenvalues --    0.09247   0.10930   0.11161   0.11843   0.12835
 Alpha virt. eigenvalues --    0.13481   0.13920   0.14614   0.15822   0.16100
 Alpha virt. eigenvalues --    0.17959   0.20211   0.20720   0.21463   0.22704
 Alpha virt. eigenvalues --    0.23224   0.23313   0.24898   0.25554   0.26457
 Alpha virt. eigenvalues --    0.27724   0.28069   0.28765   0.29866   0.31796
 Alpha virt. eigenvalues --    0.32599   0.34649   0.35299   0.36001   0.37451
 Alpha virt. eigenvalues --    0.38684   0.38867   0.40135   0.40592   0.40930
 Alpha virt. eigenvalues --    0.41749   0.43196   0.43466   0.44561   0.45227
 Alpha virt. eigenvalues --    0.45432   0.46625   0.47148   0.48211   0.48459
 Alpha virt. eigenvalues --    0.49175   0.49890   0.50438   0.50913   0.53332
 Alpha virt. eigenvalues --    0.53724   0.54452   0.55576   0.57575   0.58499
 Alpha virt. eigenvalues --    0.59652   0.60755   0.61305   0.61986   0.64624
 Alpha virt. eigenvalues --    0.65626   0.66407   0.67579   0.68481   0.69495
 Alpha virt. eigenvalues --    0.71290   0.72472   0.74393   0.74842   0.76918
 Alpha virt. eigenvalues --    0.78406   0.80357   0.82870   0.84289   0.86352
 Alpha virt. eigenvalues --    0.88180   0.88495   0.90541   0.94188   0.95055
 Alpha virt. eigenvalues --    0.95515   0.96895   0.98571   1.01405   1.01607
 Alpha virt. eigenvalues --    1.02447   1.03648   1.04685   1.06614   1.07650
 Alpha virt. eigenvalues --    1.10103   1.10655   1.12146   1.13120   1.16018
 Alpha virt. eigenvalues --    1.18964   1.19478   1.20467   1.21302   1.22221
 Alpha virt. eigenvalues --    1.24314   1.26614   1.29074   1.31159   1.32769
 Alpha virt. eigenvalues --    1.33266   1.35741   1.37521   1.40578   1.43005
 Alpha virt. eigenvalues --    1.43626   1.47598   1.48252   1.50061   1.51473
 Alpha virt. eigenvalues --    1.53343   1.54816   1.55710   1.55822   1.57343
 Alpha virt. eigenvalues --    1.58541   1.59594   1.61441   1.62520   1.63748
 Alpha virt. eigenvalues --    1.64175   1.65689   1.67115   1.70235   1.70988
 Alpha virt. eigenvalues --    1.71811   1.72308   1.74846   1.76637   1.78178
 Alpha virt. eigenvalues --    1.78702   1.80077   1.82743   1.83345   1.84405
 Alpha virt. eigenvalues --    1.85640   1.88069   1.90369   1.91804   1.93442
 Alpha virt. eigenvalues --    1.94017   1.97098   1.98953   1.99982   2.01813
 Alpha virt. eigenvalues --    2.02594   2.04340   2.08267   2.08725   2.10520
 Alpha virt. eigenvalues --    2.12622   2.12982   2.15535   2.17451   2.19473
 Alpha virt. eigenvalues --    2.22820   2.23977   2.25935   2.27778   2.28866
 Alpha virt. eigenvalues --    2.30172   2.31654   2.33924   2.37382   2.37767
 Alpha virt. eigenvalues --    2.39375   2.40807   2.42265   2.43731   2.44922
 Alpha virt. eigenvalues --    2.46757   2.48602   2.51201   2.52886   2.53933
 Alpha virt. eigenvalues --    2.54821   2.55359   2.57097   2.58139   2.59469
 Alpha virt. eigenvalues --    2.61969   2.62431   2.62907   2.64744   2.65997
 Alpha virt. eigenvalues --    2.67179   2.68435   2.69695   2.71737   2.73893
 Alpha virt. eigenvalues --    2.74732   2.76596   2.78461   2.79724   2.80795
 Alpha virt. eigenvalues --    2.82405   2.82934   2.84310   2.85948   2.86280
 Alpha virt. eigenvalues --    2.87232   2.89140   2.91430   2.94620   2.95776
 Alpha virt. eigenvalues --    2.96776   2.98898   2.99708   3.03855   3.06323
 Alpha virt. eigenvalues --    3.07827   3.07950   3.08699   3.10453   3.11004
 Alpha virt. eigenvalues --    3.12950   3.14138   3.15174   3.15918   3.18396
 Alpha virt. eigenvalues --    3.19197   3.21482   3.21997   3.23984   3.24244
 Alpha virt. eigenvalues --    3.25226   3.26773   3.28115   3.28641   3.30254
 Alpha virt. eigenvalues --    3.30946   3.32339   3.33615   3.33746   3.34779
 Alpha virt. eigenvalues --    3.36476   3.38972   3.39949   3.40526   3.41929
 Alpha virt. eigenvalues --    3.43432   3.44325   3.47050   3.47242   3.49573
 Alpha virt. eigenvalues --    3.51264   3.51556   3.52998   3.54588   3.56618
 Alpha virt. eigenvalues --    3.57773   3.59055   3.62262   3.64510   3.65786
 Alpha virt. eigenvalues --    3.67908   3.69347   3.71959   3.74682   3.76097
 Alpha virt. eigenvalues --    3.81451   3.83424   3.86168   3.90192   3.96715
 Alpha virt. eigenvalues --    3.99598   4.00639   4.02597   4.06147   4.09286
 Alpha virt. eigenvalues --    4.10084   4.11781   4.13308   4.14349   4.19981
 Alpha virt. eigenvalues --    4.21833   4.23231   4.24318   4.26546   4.30221
 Alpha virt. eigenvalues --    4.32609   4.35057   4.36816   4.40428   4.46861
 Alpha virt. eigenvalues --    4.50465   4.51389   4.54899   4.55907   4.63798
 Alpha virt. eigenvalues --    4.66865   4.71631   4.76071   4.80657   4.83153
 Alpha virt. eigenvalues --    4.85858   4.88278   4.94407   5.03656   5.09177
 Alpha virt. eigenvalues --    5.24385   5.25498   5.35581   5.49453   5.57960
 Alpha virt. eigenvalues --    5.68273   5.74436   5.89360   5.90241   6.06716
 Alpha virt. eigenvalues --    6.24903   6.29488   6.39943   6.40823   6.41300
 Alpha virt. eigenvalues --    6.51010   6.63637   6.72595   6.83626   6.84018
 Alpha virt. eigenvalues --    6.98237   7.07223   7.12279   7.33160  22.33695
 Alpha virt. eigenvalues --   22.46622  22.50311  22.62893  22.74053  22.78240
 Alpha virt. eigenvalues --   22.96791  23.13399  44.03647  44.34316
          Condensed to atoms (all electrons):
               1          2          3          4          5          6
     1  C    5.258744  -0.076548   0.021087   0.222611   0.438839   0.445474
     2  C   -0.076548   5.757788  -0.070655   0.014804  -0.045979  -0.052671
     3  C    0.021087  -0.070655   5.237507   0.061577   0.003528   0.005867
     4  C    0.222611   0.014804   0.061577   5.926086  -0.059081  -0.046985
     5  H    0.438839  -0.045979   0.003528  -0.059081   0.514763  -0.015658
     6  H    0.445474  -0.052671   0.005867  -0.046985  -0.015658   0.465767
     7  H   -0.039169   0.001701  -0.000840   0.407254  -0.004096   0.002681
     8  C    0.040738   0.201574  -0.023310  -0.013932  -0.003427   0.003783
     9  C   -0.047424  -0.019234   0.371688  -0.043510  -0.000736  -0.000076
    10  H   -0.022278   0.420245   0.000647   0.001281   0.000615  -0.001153
    11  H    0.001638  -0.003030   0.433949  -0.001140   0.000044  -0.000040
    12  H   -0.000594   0.006577  -0.024819  -0.000170  -0.000027   0.000056
    13  H   -0.021869   0.420380  -0.008967  -0.036254   0.003235  -0.005489
    14  H   -0.024828   0.032914   0.384643  -0.037699  -0.000694  -0.000702
    15  O    0.003250  -0.068723   0.003345   0.001048   0.003412   0.000002
    16  C   -0.003204  -0.002147  -0.000669   0.000822  -0.000289   0.000508
    17  H   -0.004454   0.031471  -0.000540  -0.000086  -0.002804  -0.000128
    18  H    0.000053  -0.000415   0.000060   0.000007   0.000050   0.000001
    19  H    0.001965  -0.018979   0.000479   0.000108   0.000463   0.000050
    20  C    0.001315  -0.012432  -0.008039   0.178712   0.005883  -0.001619
    21  O    0.044987  -0.010660  -0.028046  -0.189845   0.001094   0.004039
    22  H    0.027520  -0.002450   0.003908  -0.202226   0.000144   0.000497
               7          8          9         10         11         12
     1  C   -0.039169   0.040738  -0.047424  -0.022278   0.001638  -0.000594
     2  C    0.001701   0.201574  -0.019234   0.420245  -0.003030   0.006577
     3  C   -0.000840  -0.023310   0.371688   0.000647   0.433949  -0.024819
     4  C    0.407254  -0.013932  -0.043510   0.001281  -0.001140  -0.000170
     5  H   -0.004096  -0.003427  -0.000736   0.000615   0.000044  -0.000027
     6  H    0.002681   0.003783  -0.000076  -0.001153  -0.000040   0.000056
     7  H    0.497616   0.002622  -0.004619  -0.000141  -0.000645   0.000230
     8  C    0.002622   5.015669   0.358804  -0.049851   0.010406  -0.045129
     9  C   -0.004619   0.358804   5.214787   0.005818  -0.060140   0.414268
    10  H   -0.000141  -0.049851   0.005818   0.473612  -0.000010  -0.000131
    11  H   -0.000645   0.010406  -0.060140  -0.000010   0.490243  -0.006032
    12  H    0.000230  -0.045129   0.414268  -0.000131  -0.006032   0.494719
    13  H    0.000209  -0.048152   0.006691  -0.002869   0.000593  -0.000273
    14  H    0.000914  -0.018527  -0.032195   0.000241  -0.017614   0.001664
    15  O   -0.000033   0.322631  -0.062585  -0.003088  -0.000130   0.007806
    16  C   -0.000006  -0.074109   0.005177   0.001600   0.000027   0.000157
    17  H    0.000019  -0.024939   0.000040  -0.008489  -0.000005   0.000081
    18  H   -0.000001   0.006051  -0.000094   0.000542  -0.000000  -0.000170
    19  H   -0.000003   0.006729   0.000742   0.000600   0.000003   0.000109
    20  C   -0.026122  -0.002384   0.001312   0.000396   0.000998   0.000092
    21  O    0.005002  -0.002073   0.005236   0.000688  -0.000108  -0.000012
    22  H   -0.000562   0.000009  -0.000365   0.000026   0.000177  -0.000002
              13         14         15         16         17         18
     1  C   -0.021869  -0.024828   0.003250  -0.003204  -0.004454   0.000053
     2  C    0.420380   0.032914  -0.068723  -0.002147   0.031471  -0.000415
     3  C   -0.008967   0.384643   0.003345  -0.000669  -0.000540   0.000060
     4  C   -0.036254  -0.037699   0.001048   0.000822  -0.000086   0.000007
     5  H    0.003235  -0.000694   0.003412  -0.000289  -0.002804   0.000050
     6  H   -0.005489  -0.000702   0.000002   0.000508  -0.000128   0.000001
     7  H    0.000209   0.000914  -0.000033  -0.000006   0.000019  -0.000001
     8  C   -0.048152  -0.018527   0.322631  -0.074109  -0.024939   0.006051
     9  C    0.006691  -0.032195  -0.062585   0.005177   0.000040  -0.000094
    10  H   -0.002869   0.000241  -0.003088   0.001600  -0.008489   0.000542
    11  H    0.000593  -0.017614  -0.000130   0.000027  -0.000005  -0.000000
    12  H   -0.000273   0.001664   0.007806   0.000157   0.000081  -0.000170
    13  H    0.442769   0.002388   0.002373  -0.001182  -0.000011   0.000038
    14  H    0.002388   0.499041   0.000080   0.000017   0.000070  -0.000004
    15  O    0.002373   0.000080   7.942383   0.228245  -0.039464  -0.031302
    16  C   -0.001182   0.000017   0.228245   4.906785   0.405780   0.402976
    17  H   -0.000011   0.000070  -0.039464   0.405780   0.574172  -0.022532
    18  H    0.000038  -0.000004  -0.031302   0.402976  -0.022532   0.504613
    19  H   -0.000283  -0.000105  -0.040681   0.425052  -0.055837  -0.017129
    20  C    0.003338   0.000962  -0.000056   0.000006  -0.000021   0.000000
    21  O    0.020329   0.021195  -0.000007  -0.000007   0.000002   0.000000
    22  H    0.001639  -0.002308  -0.000000  -0.000001  -0.000000   0.000000
              19         20         21         22
     1  C    0.001965   0.001315   0.044987   0.027520
     2  C   -0.018979  -0.012432  -0.010660  -0.002450
     3  C    0.000479  -0.008039  -0.028046   0.003908
     4  C    0.000108   0.178712  -0.189845  -0.202226
     5  H    0.000463   0.005883   0.001094   0.000144
     6  H    0.000050  -0.001619   0.004039   0.000497
     7  H   -0.000003  -0.026122   0.005002  -0.000562
     8  C    0.006729  -0.002384  -0.002073   0.000009
     9  C    0.000742   0.001312   0.005236  -0.000365
    10  H    0.000600   0.000396   0.000688   0.000026
    11  H    0.000003   0.000998  -0.000108   0.000177
    12  H    0.000109   0.000092  -0.000012  -0.000002
    13  H   -0.000283   0.003338   0.020329   0.001639
    14  H   -0.000105   0.000962   0.021195  -0.002308
    15  O   -0.040681  -0.000056  -0.000007  -0.000000
    16  C    0.425052   0.000006  -0.000007  -0.000001
    17  H   -0.055837  -0.000021   0.000002  -0.000000
    18  H   -0.017129   0.000000   0.000000   0.000000
    19  H    0.536788   0.000012  -0.000003   0.000000
    20  C    0.000012   4.695978   0.600378   0.497240
    21  O   -0.000003   0.600378   7.960647  -0.054868
    22  H    0.000000   0.497240  -0.054868   0.635121
 Mulliken charges:
               1
     1  C   -0.267854
     2  C   -0.503529
     3  C   -0.362397
     4  C   -0.183383
     5  H    0.160721
     6  H    0.195795
     7  H    0.157989
     8  C    0.336817
     9  C   -0.113587
    10  H    0.181703
    11  H    0.150817
    12  H    0.151602
    13  H    0.221368
    14  H    0.190549
    15  O   -0.268505
    16  C   -0.295539
    17  H    0.147675
    18  H    0.157255
    19  H    0.159921
    20  C    0.064051
    21  O   -0.377969
    22  H    0.096499
 Sum of Mulliken charges =  -0.00000
 Mulliken charges with hydrogens summed into heavy atoms:
               1
     1  C    0.088662
     2  C   -0.100457
     3  C   -0.021031
     4  C   -0.025393
     8  C    0.336817
     9  C    0.038015
    15  O   -0.268505
    16  C    0.169313
    20  C    0.160550
    21  O   -0.377969
 Electronic spatial extent (au):  <R**2>=           1707.0890
 Charge=             -0.0000 electrons
 Dipole moment (field-independent basis, Debye):
    X=             -3.6527    Y=              0.0896    Z=              1.5861  Tot=              3.9832
 Quadrupole moment (field-independent basis, Debye-Ang):
   XX=            -64.1411   YY=            -58.0699   ZZ=            -63.7655
   XY=              9.9305   XZ=              5.4466   YZ=              0.4939
 Traceless Quadrupole moment (field-independent basis, Debye-Ang):
   XX=             -2.1489   YY=              3.9222   ZZ=             -1.7733
   XY=              9.9305   XZ=              5.4466   YZ=              0.4939
 Octapole moment (field-independent basis, Debye-Ang**2):
  XXX=            -50.8732  YYY=              0.6428  ZZZ=              0.3719  XYY=             -4.3614
  XXY=              1.9058  XXZ=             15.9963  XZZ=             -8.6458  YZZ=              0.1958
  YYZ=              3.2368  XYZ=             -3.8980
 Hexadecapole moment (field-independent basis, Debye-Ang**3):
 XXXX=          -1491.2004 YYYY=           -469.4585 ZZZZ=           -228.8552 XXXY=             79.4783
 XXXZ=             44.0605 YYYX=              4.9651 YYYZ=             18.5938 ZZZX=             -9.3224
 ZZZY=              7.6119 XXYY=           -337.2334 XXZZ=           -315.6225 YYZZ=           -124.2317
 XXYZ=             -6.7802 YYXZ=             -5.3597 ZZXY=              9.4301
 N-N= 5.283403468368D+02 E-N=-2.134492097047D+03  KE= 4.600468510558D+02
 Unable to Open any file for archive entry.
 1\1\GINC-NODE10\SP\RM062X\def2TZVP\C8H12O2\RPATON\21-Jun-2022\0\\# M06
 2X/def2tzvp\\DATS_14_exo_ii_TZVPcreated by GaussianPrep\\0,1\C,0,-0.65
 4719,-1.21953,-0.756811\C,0,0.530045,-0.66952,0.758717\C,0,-0.71546,1.
 857766,0.239837\C,0,-1.61489,-0.248376,-1.045171\H,0,0.089304,-1.45837
 4,-1.511647\H,0,-0.998247,-2.065619,-0.166366\H,0,-1.568728,0.354823,-
 1.94397\C,0,1.243486,0.418868,0.267372\C,0,0.596492,1.644818,-0.040171
 \H,0,1.05543,-1.586852,1.001663\H,0,-1.211317,2.755636,-0.116057\H,0,1
 .157058,2.344049,-0.654569\H,0,-0.330986,-0.4757,1.391452\H,0,-1.25099
 1,1.281209,0.983867\O,0,2.514081,0.345092,-0.194949\C,0,3.234399,-0.84
 8195,0.032763\H,0,2.782283,-1.693587,-0.499024\H,0,4.237984,-0.673201,
 -0.353601\H,0,3.285988,-1.080578,1.102666\C,0,-2.774297,-0.155623,-0.1
 87132\O,0,-2.85319,-0.703705,0.906919\H,0,-3.605244,0.485849,-0.546595
 \\Version=AS64L-G16RevC.01\State=1-A\HF=-462.3734363\RMSD=9.662e-09\Di
 pole=1.4370948,0.0352617,-0.6240102\Quadrupole=-1.5976641,2.9160836,-1
 .3184195,-7.3831022,4.0494184,-0.3672018\PG=C01 [X(C8H12O2)]\\@
 The archive entry for this job was punched.


 A successful marriage requires falling in love
 many times, always with the same person.
                           -- Mignon McLaughlin
 Job cpu time:       0 days  0 hours 15 minutes 40.9 seconds.
 Elapsed time:       0 days  0 hours  1 minutes  1.6 seconds.
 File lengths (MBytes):  RWF=     83 Int=      0 D2E=      0 Chk=     10 Scr=      1
 Normal termination of Gaussian 16 at Tue Jun 21 11:24:59 2022.
