Job Start Time: Tue Jun 21 11:23:47 MDT 2022
SLURM Job ID: 40889
SLURM Job Name: DATS_13_exo_iv_TZVP
 Entering Gaussian System, Link 0=/opt/apps/Gaussian/G16C/g16/g16
 Initial command:
 /opt/apps/Gaussian/G16C/g16/l1.exe "/tmp/Gau-2333788.inp" -scrdir="/tmp/"
 Entering Link 1 = /opt/apps/Gaussian/G16C/g16/l1.exe PID=   2333789.
  
 Copyright (c) 1988-2019, Gaussian, Inc.  All Rights Reserved.
  
 This is part of the Gaussian(R) 16 program.  It is based on
 the Gaussian(R) 09 system (copyright 2009, Gaussian, Inc.),
 the Gaussian(R) 03 system (copyright 2003, Gaussian, Inc.),
 the Gaussian(R) 98 system (copyright 1998, Gaussian, Inc.),
 the Gaussian(R) 94 system (copyright 1995, Gaussian, Inc.),
 the Gaussian 92(TM) system (copyright 1992, Gaussian, Inc.),
 the Gaussian 90(TM) system (copyright 1990, Gaussian, Inc.),
 the Gaussian 88(TM) system (copyright 1988, Gaussian, Inc.),
 the Gaussian 86(TM) system (copyright 1986, Carnegie Mellon
 University), and the Gaussian 82(TM) system (copyright 1983,
 Carnegie Mellon University). Gaussian is a federally registered
 trademark of Gaussian, Inc.
  
 This software contains proprietary and confidential information,
 including trade secrets, belonging to Gaussian, Inc.
  
 This software is provided under written license and may be
 used, copied, transmitted, or stored only in accord with that
 written license.
  
 The following legend is applicable only to US Government
 contracts under FAR:
  
                    RESTRICTED RIGHTS LEGEND
  
 Use, reproduction and disclosure by the US Government is
 subject to restrictions as set forth in subparagraphs (a)
 and (c) of the Commercial Computer Software - Restricted
 Rights clause in FAR 52.227-19.
  
 Gaussian, Inc.
 340 Quinnipiac St., Bldg. 40, Wallingford CT 06492
  
  
 ---------------------------------------------------------------
 Warning -- This program may not be used in any manner that
 competes with the business of Gaussian, Inc. or will provide
 assistance to any competitor of Gaussian, Inc.  The licensee
 of this program is prohibited from giving any competitor of
 Gaussian, Inc. access to this program.  By using this program,
 the user acknowledges that Gaussian, Inc. is engaged in the
 business of creating and licensing software in the field of
 computational chemistry and represents and warrants to the
 licensee that it is not a competitor of Gaussian, Inc. and that
 it will not use this program in any manner prohibited above.
 ---------------------------------------------------------------
  

 Cite this work as:
 Gaussian 16, Revision C.01,
 M. J. Frisch, G. W. Trucks, H. B. Schlegel, G. E. Scuseria, 
 M. A. Robb, J. R. Cheeseman, G. Scalmani, V. Barone, 
 G. A. Petersson, H. Nakatsuji, X. Li, M. Caricato, A. V. Marenich, 
 J. Bloino, B. G. Janesko, R. Gomperts, B. Mennucci, H. P. Hratchian, 
 J. V. Ortiz, A. F. Izmaylov, J. L. Sonnenberg, D. Williams-Young, 
 F. Ding, F. Lipparini, F. Egidi, J. Goings, B. Peng, A. Petrone, 
 T. Henderson, D. Ranasinghe, V. G. Zakrzewski, J. Gao, N. Rega, 
 G. Zheng, W. Liang, M. Hada, M. Ehara, K. Toyota, R. Fukuda, 
 J. Hasegawa, M. Ishida, T. Nakajima, Y. Honda, O. Kitao, H. Nakai, 
 T. Vreven, K. Throssell, J. A. Montgomery, Jr., J. E. Peralta, 
 F. Ogliaro, M. J. Bearpark, J. J. Heyd, E. N. Brothers, K. N. Kudin, 
 V. N. Staroverov, T. A. Keith, R. Kobayashi, J. Normand, 
 K. Raghavachari, A. P. Rendell, J. C. Burant, S. S. Iyengar, 
 J. Tomasi, M. Cossi, J. M. Millam, M. Klene, C. Adamo, R. Cammi, 
 J. W. Ochterski, R. L. Martin, K. Morokuma, O. Farkas, 
 J. B. Foresman, and D. J. Fox, Gaussian, Inc., Wallingford CT, 2019.
 
 ******************************************
 Gaussian 16:  AS64L-G16RevC.01  3-Jul-2019
                21-Jun-2022 
 ******************************************
 %chk=DATS_13_exo_iv_TZVP.chk
 %mem=48GB
 %nprocshared=16
 Will use up to   16 processors via shared memory.
 ----------------
 # M062X/def2tzvp
 ----------------
 1/38=1,172=1/1;
 2/12=2,17=6,18=5,40=1/2;
 3/5=44,7=101,11=2,25=1,30=1,74=-55/1,2,3;
 4//1;
 5/5=2,38=5/2;
 6/7=2,8=2,9=2,10=2,28=1/1;
 99/5=1,9=1/99;
 ------------------------------------------
 DATS_13_exo_iv_TZVPcreated by GaussianPrep
 ------------------------------------------
 Symbolic Z-matrix:
 Charge =  0 Multiplicity = 1
 C                    -1.49001   1.35277   0.78971 
 C                    -0.04949   2.26888  -0.48841 
 C                     0.28556  -0.5188   -0.86852 
 C                    -1.39836  -0.0293    0.6831 
 H                    -1.12631   1.84527   1.68331 
 H                    -2.32131   1.85286   0.29621 
 H                    -0.87041  -0.61618   1.42733 
 C                     1.13095   1.63632  -0.15659 
 C                     1.2902    0.24448  -0.31622 
 H                    -0.16061   3.326    -0.2649 
 H                     0.30319  -1.60205  -0.87127 
 H                    -0.63613   1.92846  -1.33496 
 H                    -0.36041  -0.06661  -1.60895 
 C                    -2.36978  -0.75824  -0.14215 
 O                    -2.5472   -1.95626  -0.12355 
 H                    -2.95817  -0.10704  -0.83068 
 O                     2.3698   -0.27001   0.33924 
 C                     2.56658  -1.66412   0.25863 
 H                     3.51872  -1.8663    0.74904 
 H                     1.76974  -2.21198   0.77641 
 H                     2.61037  -1.99852  -0.78511 
 H                     1.85664   2.13432   0.48082 
 
                          Input orientation:                          
 ---------------------------------------------------------------------
 Center     Atomic      Atomic             Coordinates (Angstroms)
 Number     Number       Type             X           Y           Z
 ---------------------------------------------------------------------
      1          6           0       -1.490007    1.352767    0.789711
      2          6           0       -0.049489    2.268877   -0.488414
      3          6           0        0.285560   -0.518796   -0.868519
      4          6           0       -1.398362   -0.029297    0.683097
      5          1           0       -1.126310    1.845273    1.683311
      6          1           0       -2.321310    1.852859    0.296212
      7          1           0       -0.870406   -0.616183    1.427331
      8          6           0        1.130946    1.636316   -0.156594
      9          6           0        1.290201    0.244476   -0.316221
     10          1           0       -0.160608    3.326002   -0.264902
     11          1           0        0.303192   -1.602052   -0.871271
     12          1           0       -0.636133    1.928461   -1.334963
     13          1           0       -0.360412   -0.066611   -1.608945
     14          6           0       -2.369778   -0.758239   -0.142152
     15          8           0       -2.547198   -1.956258   -0.123550
     16          1           0       -2.958173   -0.107039   -0.830680
     17          8           0        2.369797   -0.270009    0.339237
     18          6           0        2.566580   -1.664118    0.258633
     19          1           0        3.518718   -1.866303    0.749042
     20          1           0        1.769739   -2.211983    0.776414
     21          1           0        2.610373   -1.998522   -0.785109
     22          1           0        1.856637    2.134320    0.480818
 ---------------------------------------------------------------------
                    Distance matrix (angstroms):
                    1          2          3          4          5
     1  C    0.000000
     2  C    2.132593   0.000000
     3  C    3.066776   2.833348   0.000000
     4  C    1.389196   2.910928   2.341520   0.000000
     5  H    1.083217   2.460767   3.754202   2.142067   0.000000
     6  H    1.088438   2.439238   3.711754   2.131672   1.830881
     7  H    2.160377   3.559151   2.572289   1.084923   2.487926
     8  C    2.800944   1.379734   2.421987   3.142729   2.919609
     9  C    3.190760   2.433643   1.377287   2.881312   3.521392
    10  H    2.602531   1.086194   3.917383   3.699834   2.630717
    11  H    3.834759   3.905772   1.083403   2.790144   4.522545
    12  H    2.361094   1.084749   2.656342   2.913138   3.058949
    13  H    3.007353   2.608978   1.081657   2.516384   3.883407
    14  C    2.469557   3.829761   2.763288   1.468346   3.414206
    15  O    3.591844   4.921732   3.262789   2.384047   4.442444
    16  H    2.629109   3.771282   3.269982   2.174989   3.672519
    17  O    4.211225   3.603317   2.421696   3.791465   4.301595
    18  C    5.083260   4.782295   2.790213   4.309707   5.289893
    19  H    5.954107   5.600278   3.858185   5.249440   6.018716
    20  H    4.830483   4.998749   2.788454   3.848336   5.066645
    21  H    5.524881   5.037220   2.757046   4.701429   5.901750
    22  H    3.450546   2.142623   3.365712   3.913716   3.229166
                    6          7          8          9         10
     6  H    0.000000
     7  H    3.079078   0.000000
     8  C    3.488552   3.404112   0.000000
     9  C    4.000623   2.906704   1.409986   0.000000
    10  H    2.674628   4.348366   2.129526   3.406359   0.000000
    11  H    4.493043   2.762760   3.418036   2.166087   4.986834
    12  H    2.346544   3.763026   2.143938   2.753980   1.823260
    13  H    3.340525   3.127474   2.689504   2.119536   3.654613
    14  C    2.648083   2.175218   4.241364   3.798840   4.645054
    15  O    3.838828   2.648144   5.141636   4.427864   5.798109
    16  H    2.348761   3.117148   4.496062   4.293823   4.464554
    17  O    5.149263   3.435506   2.326945   1.363762   4.438381
    18  C    6.021794   3.778478   3.623027   2.366924   5.710774
    19  H    6.938526   4.613815   4.334740   3.249071   6.444032
    20  H    5.787073   3.152877   4.010981   2.730934   5.956497
    21  H    6.350109   4.349894   3.974391   2.644570   6.024907
    22  H    4.191484   3.987219   1.086706   2.127823   2.458756
                   11         12         13         14         15
    11  H    0.000000
    12  H    3.682644   0.000000
    13  H    1.828144   2.032585   0.000000
    14  C    2.896274   3.412723   2.582128   0.000000
    15  O    2.968042   4.495635   3.249492   1.211228   0.000000
    16  H    3.587926   3.128807   2.712138   1.115500   2.022015
    17  O    2.740534   4.083115   3.360182   4.788912   5.218663
    18  C    2.530506   5.069866   3.821931   5.034767   5.136354
    19  H    3.610381   6.000508   4.883303   6.057757   6.129017
    20  H    2.288589   5.233489   3.850987   4.482492   4.417157
    21  H    2.342583   5.124777   3.638207   5.172388   5.199999
    22  H    4.266358   3.090848   3.758525   5.159222   6.040849
                   16         17         18         19         20
    16  H    0.000000
    17  O    5.457337   0.000000
    18  C    5.842430   1.410234   0.000000
    19  H    6.894973   2.009008   1.089930   0.000000
    20  H    5.419104   2.079052   1.096909   1.783023   0.000000
    21  H    5.881198   2.076003   1.096878   1.787790   1.786221
    22  H    5.470476   2.462555   3.870596   4.340443   4.357210
                   21         22
    21  H    0.000000
    22  H    4.387604   0.000000
 Stoichiometry    C8H12O2
 Framework group  C1[X(C8H12O2)]
 Deg. of freedom    60
 Full point group                 C1      NOp   1
 Largest Abelian subgroup         C1      NOp   1
 Largest concise Abelian subgroup C1      NOp   1
                         Standard orientation:                         
 ---------------------------------------------------------------------
 Center     Atomic      Atomic             Coordinates (Angstroms)
 Number     Number       Type             X           Y           Z
 ---------------------------------------------------------------------
      1          6           0       -1.490007    1.352767    0.789711
      2          6           0       -0.049489    2.268877   -0.488414
      3          6           0        0.285560   -0.518796   -0.868519
      4          6           0       -1.398362   -0.029297    0.683097
      5          1           0       -1.126310    1.845273    1.683311
      6          1           0       -2.321310    1.852859    0.296212
      7          1           0       -0.870406   -0.616183    1.427331
      8          6           0        1.130946    1.636316   -0.156594
      9          6           0        1.290201    0.244476   -0.316221
     10          1           0       -0.160608    3.326002   -0.264902
     11          1           0        0.303192   -1.602052   -0.871271
     12          1           0       -0.636133    1.928461   -1.334963
     13          1           0       -0.360412   -0.066611   -1.608945
     14          6           0       -2.369778   -0.758239   -0.142152
     15          8           0       -2.547198   -1.956258   -0.123550
     16          1           0       -2.958173   -0.107039   -0.830680
     17          8           0        2.369797   -0.270009    0.339237
     18          6           0        2.566580   -1.664118    0.258633
     19          1           0        3.518718   -1.866303    0.749042
     20          1           0        1.769739   -2.211983    0.776414
     21          1           0        2.610373   -1.998522   -0.785109
     22          1           0        1.856637    2.134320    0.480818
 ---------------------------------------------------------------------
 Rotational constants (GHZ):           1.6576148           0.9836761           0.6889790
 Standard basis: def2TZVP (5D, 7F)
 There are   432 symmetry adapted cartesian basis functions of A   symmetry.
 There are   382 symmetry adapted basis functions of A   symmetry.
   382 basis functions,   606 primitive gaussians,   432 cartesian basis functions
    38 alpha electrons       38 beta electrons
       nuclear repulsion energy       524.7330297383 Hartrees.
 NAtoms=   22 NActive=   22 NUniq=   22 SFac= 1.00D+00 NAtFMM=   60 NAOKFM=F Big=F
 Integral buffers will be    131072 words long.
 Raffenetti 2 integral format.
 Two-electron integral symmetry is turned on.
 One-electron integrals computed using PRISM.
   1 Symmetry operations used in ECPInt.
 ECPInt:  NShTT=   12561 NPrTT=   37384 LenC2=   12115 LenP2D=   28110.
 LDataN:  DoStor=T MaxTD1= 6 Len=  172
 NBasis=   382 RedAO= T EigKep=  5.41D-05  NBF=   382
 NBsUse=   382 1.00D-06 EigRej= -1.00D+00 NBFU=   382
 ExpMin= 9.52D-02 ExpMax= 2.70D+04 ExpMxC= 9.22D+02 IAcc=3 IRadAn=         5 AccDes= 0.00D+00
 Harris functional with IExCor= 1009 and IRadAn=       5 diagonalized for initial guess.
 HarFok:  IExCor= 1009 AccDes= 0.00D+00 IRadAn=         5 IDoV= 1 UseB2=F ITyADJ=14
 ICtDFT=  3500011 ScaDFX=  1.000000  1.000000  1.000000  1.000000
 FoFCou: FMM=F IPFlag=           0 FMFlag=      100000 FMFlg1=           0
         NFxFlg=           0 DoJE=T BraDBF=F KetDBF=T FulRan=T
         wScrn=  0.000000 ICntrl=       500 IOpCl=  0 I1Cent=   200000004 NGrid=           0
         NMat0=    1 NMatS0=      1 NMatT0=    0 NMatD0=    1 NMtDS0=    0 NMtDT0=    0
 Petite list used in FoFCou.
 Requested convergence on RMS density matrix=1.00D-08 within 128 cycles.
 Requested convergence on MAX density matrix=1.00D-06.
 Requested convergence on             energy=1.00D-06.
 No special actions if energy rises.
 Integral accuracy reduced to 1.0D-05 until final iterations.
 Initial convergence to 1.0D-05 achieved.  Increase integral accuracy.
 SCF Done:  E(RM062X) =  -462.367470878     A.U. after   16 cycles
            NFock= 16  Conv=0.47D-08     -V/T= 2.0051

 **********************************************************************

            Population analysis using the SCF Density.

 **********************************************************************

 Orbital symmetries:
       Occupied  (A) (A) (A) (A) (A) (A) (A) (A) (A) (A) (A) (A)
                 (A) (A) (A) (A) (A) (A) (A) (A) (A) (A) (A) (A)
                 (A) (A) (A) (A) (A) (A) (A) (A) (A) (A) (A) (A)
                 (A) (A)
       Virtual   (A) (A) (A) (A) (A) (A) (A) (A) (A) (A) (A) (A)
                 (A) (A) (A) (A) (A) (A) (A) (A) (A) (A) (A) (A)
                 (A) (A) (A) (A) (A) (A) (A) (A) (A) (A) (A) (A)
                 (A) (A) (A) (A) (A) (A) (A) (A) (A) (A) (A) (A)
                 (A) (A) (A) (A) (A) (A) (A) (A) (A) (A) (A) (A)
                 (A) (A) (A) (A) (A) (A) (A) (A) (A) (A) (A) (A)
                 (A) (A) (A) (A) (A) (A) (A) (A) (A) (A) (A) (A)
                 (A) (A) (A) (A) (A) (A) (A) (A) (A) (A) (A) (A)
                 (A) (A) (A) (A) (A) (A) (A) (A) (A) (A) (A) (A)
                 (A) (A) (A) (A) (A) (A) (A) (A) (A) (A) (A) (A)
                 (A) (A) (A) (A) (A) (A) (A) (A) (A) (A) (A) (A)
                 (A) (A) (A) (A) (A) (A) (A) (A) (A) (A) (A) (A)
                 (A) (A) (A) (A) (A) (A) (A) (A) (A) (A) (A) (A)
                 (A) (A) (A) (A) (A) (A) (A) (A) (A) (A) (A) (A)
                 (A) (A) (A) (A) (A) (A) (A) (A) (A) (A) (A) (A)
                 (A) (A) (A) (A) (A) (A) (A) (A) (A) (A) (A) (A)
                 (A) (A) (A) (A) (A) (A) (A) (A) (A) (A) (A) (A)
                 (A) (A) (A) (A) (A) (A) (A) (A) (A) (A) (A) (A)
                 (A) (A) (A) (A) (A) (A) (A) (A) (A) (A) (A) (A)
                 (A) (A) (A) (A) (A) (A) (A) (A) (A) (A) (A) (A)
                 (A) (A) (A) (A) (A) (A) (A) (A) (A) (A) (A) (A)
                 (A) (A) (A) (A) (A) (A) (A) (A) (A) (A) (A) (A)
                 (A) (A) (A) (A) (A) (A) (A) (A) (A) (A) (A) (A)
                 (A) (A) (A) (A) (A) (A) (A) (A) (A) (A) (A) (A)
                 (A) (A) (A) (A) (A) (A) (A) (A) (A) (A) (A) (A)
                 (A) (A) (A) (A) (A) (A) (A) (A) (A) (A) (A) (A)
                 (A) (A) (A) (A) (A) (A) (A) (A) (A) (A) (A) (A)
                 (A) (A) (A) (A) (A) (A) (A) (A) (A) (A) (A) (A)
                 (A) (A) (A) (A) (A) (A) (A) (A)
 The electronic state is 1-A.
 Alpha  occ. eigenvalues --  -19.66094 -19.61173 -10.62013 -10.60715 -10.59307
 Alpha  occ. eigenvalues --  -10.56530 -10.55962 -10.55468 -10.55311 -10.54929
 Alpha  occ. eigenvalues --   -1.19812  -1.15823  -0.93324  -0.88287  -0.83521
 Alpha  occ. eigenvalues --   -0.81056  -0.73097  -0.71080  -0.64876  -0.62746
 Alpha  occ. eigenvalues --   -0.59851  -0.57165  -0.55612  -0.54156  -0.53795
 Alpha  occ. eigenvalues --   -0.51471  -0.48279  -0.48047  -0.47474  -0.47100
 Alpha  occ. eigenvalues --   -0.44499  -0.44163  -0.43711  -0.41219  -0.38873
 Alpha  occ. eigenvalues --   -0.32567  -0.29424  -0.27978
 Alpha virt. eigenvalues --   -0.03086   0.01877   0.06267   0.06499   0.07156
 Alpha virt. eigenvalues --    0.09020   0.09768   0.11692   0.11730   0.13273
 Alpha virt. eigenvalues --    0.13338   0.13557   0.14159   0.15591   0.16014
 Alpha virt. eigenvalues --    0.17668   0.18465   0.20704   0.21031   0.21975
 Alpha virt. eigenvalues --    0.22891   0.23757   0.24510   0.26343   0.27053
 Alpha virt. eigenvalues --    0.27421   0.28440   0.29331   0.29908   0.31807
 Alpha virt. eigenvalues --    0.32561   0.33264   0.34809   0.35594   0.36297
 Alpha virt. eigenvalues --    0.37333   0.38309   0.40068   0.40965   0.41288
 Alpha virt. eigenvalues --    0.42385   0.42822   0.43799   0.44384   0.45359
 Alpha virt. eigenvalues --    0.46349   0.46805   0.47081   0.47475   0.48568
 Alpha virt. eigenvalues --    0.48999   0.49951   0.50546   0.52376   0.52842
 Alpha virt. eigenvalues --    0.53543   0.53822   0.55431   0.57376   0.58257
 Alpha virt. eigenvalues --    0.58854   0.60010   0.61284   0.62171   0.63934
 Alpha virt. eigenvalues --    0.64529   0.65760   0.66102   0.67866   0.68753
 Alpha virt. eigenvalues --    0.69444   0.70748   0.74082   0.74895   0.76897
 Alpha virt. eigenvalues --    0.78952   0.81248   0.82776   0.84190   0.84942
 Alpha virt. eigenvalues --    0.88105   0.89544   0.91572   0.92716   0.95161
 Alpha virt. eigenvalues --    0.95551   0.97199   0.98842   0.99601   1.00695
 Alpha virt. eigenvalues --    1.02089   1.02868   1.04737   1.05762   1.07027
 Alpha virt. eigenvalues --    1.07928   1.09685   1.10629   1.12159   1.15245
 Alpha virt. eigenvalues --    1.18388   1.18431   1.20968   1.21421   1.22075
 Alpha virt. eigenvalues --    1.24122   1.25717   1.26950   1.29667   1.31139
 Alpha virt. eigenvalues --    1.35459   1.35865   1.37061   1.41195   1.41703
 Alpha virt. eigenvalues --    1.44998   1.46961   1.49308   1.50258   1.51502
 Alpha virt. eigenvalues --    1.52199   1.52972   1.54424   1.55503   1.57244
 Alpha virt. eigenvalues --    1.57810   1.59297   1.59738   1.61858   1.62842
 Alpha virt. eigenvalues --    1.64335   1.66478   1.67084   1.67927   1.69615
 Alpha virt. eigenvalues --    1.71085   1.71413   1.72188   1.73311   1.74976
 Alpha virt. eigenvalues --    1.78745   1.80029   1.81977   1.82565   1.83678
 Alpha virt. eigenvalues --    1.84744   1.88470   1.91512   1.93351   1.95429
 Alpha virt. eigenvalues --    1.95729   1.97442   1.98529   2.01308   2.03334
 Alpha virt. eigenvalues --    2.03925   2.05969   2.08491   2.09824   2.10357
 Alpha virt. eigenvalues --    2.13952   2.14735   2.15552   2.18151   2.20874
 Alpha virt. eigenvalues --    2.24408   2.25655   2.27700   2.28703   2.29959
 Alpha virt. eigenvalues --    2.30572   2.31184   2.31770   2.34219   2.37483
 Alpha virt. eigenvalues --    2.38250   2.41681   2.41945   2.43022   2.44346
 Alpha virt. eigenvalues --    2.46787   2.47052   2.50106   2.51156   2.52562
 Alpha virt. eigenvalues --    2.54025   2.55561   2.58015   2.58561   2.59146
 Alpha virt. eigenvalues --    2.60566   2.61650   2.63059   2.64355   2.65020
 Alpha virt. eigenvalues --    2.68430   2.69374   2.70233   2.70461   2.71097
 Alpha virt. eigenvalues --    2.72157   2.75653   2.76711   2.78472   2.79882
 Alpha virt. eigenvalues --    2.80940   2.81443   2.83445   2.83834   2.86525
 Alpha virt. eigenvalues --    2.87230   2.90623   2.92969   2.93872   2.95928
 Alpha virt. eigenvalues --    2.97429   3.00051   3.01930   3.03851   3.04104
 Alpha virt. eigenvalues --    3.04971   3.06177   3.08391   3.09491   3.11249
 Alpha virt. eigenvalues --    3.12663   3.14368   3.14736   3.16496   3.17093
 Alpha virt. eigenvalues --    3.19860   3.20782   3.21846   3.22938   3.24244
 Alpha virt. eigenvalues --    3.25257   3.26599   3.27658   3.28344   3.28936
 Alpha virt. eigenvalues --    3.30893   3.32015   3.33931   3.34757   3.36109
 Alpha virt. eigenvalues --    3.37003   3.38132   3.40312   3.41131   3.41636
 Alpha virt. eigenvalues --    3.43876   3.44873   3.45961   3.47610   3.48611
 Alpha virt. eigenvalues --    3.50722   3.52532   3.54746   3.56156   3.56800
 Alpha virt. eigenvalues --    3.57827   3.59286   3.60507   3.63235   3.64768
 Alpha virt. eigenvalues --    3.65450   3.69432   3.70219   3.74810   3.78296
 Alpha virt. eigenvalues --    3.80542   3.83547   3.87826   3.89573   3.92989
 Alpha virt. eigenvalues --    3.93492   4.02582   4.02853   4.04261   4.07189
 Alpha virt. eigenvalues --    4.10413   4.12770   4.15534   4.16816   4.18533
 Alpha virt. eigenvalues --    4.19317   4.22982   4.24610   4.27008   4.28536
 Alpha virt. eigenvalues --    4.29239   4.34506   4.37446   4.39249   4.49927
 Alpha virt. eigenvalues --    4.51380   4.55378   4.56438   4.58197   4.64351
 Alpha virt. eigenvalues --    4.66005   4.66702   4.73724   4.78183   4.79865
 Alpha virt. eigenvalues --    4.82441   4.88758   4.94565   5.02484   5.08907
 Alpha virt. eigenvalues --    5.22510   5.24146   5.37410   5.51050   5.58063
 Alpha virt. eigenvalues --    5.67915   5.75716   5.89064   5.90342   6.09092
 Alpha virt. eigenvalues --    6.25188   6.32710   6.37508   6.40931   6.42539
 Alpha virt. eigenvalues --    6.47974   6.64637   6.74171   6.81331   6.84884
 Alpha virt. eigenvalues --    6.95000   7.06063   7.13519   7.33464  22.35789
 Alpha virt. eigenvalues --   22.44116  22.48749  22.58214  22.72288  22.82561
 Alpha virt. eigenvalues --   22.99521  23.15450  44.00147  44.34994
          Condensed to atoms (all electrons):
               1          2          3          4          5          6
     1  C    5.398488   0.024068  -0.039114   0.167636   0.422439   0.441662
     2  C    0.024068   5.238318  -0.046119   0.010037  -0.018396  -0.033953
     3  C   -0.039114  -0.046119   5.538879   0.059069   0.003440   0.007486
     4  C    0.167636   0.010037   0.059069   5.975819  -0.037631  -0.068383
     5  H    0.422439  -0.018396   0.003440  -0.037631   0.477670  -0.013310
     6  H    0.441662  -0.033953   0.007486  -0.068383  -0.013310   0.480877
     7  H   -0.012021  -0.000800  -0.025158   0.374531  -0.004096   0.001728
     8  C   -0.029639   0.415096  -0.079304  -0.074680  -0.008394   0.001161
     9  C   -0.031679  -0.056412   0.326857   0.024943   0.001334   0.001199
    10  H   -0.012769   0.425805   0.001210   0.003208  -0.002105   0.001093
    11  H    0.003165   0.000166   0.420370  -0.024885  -0.000038  -0.000125
    12  H   -0.038919   0.447504   0.001836  -0.019122   0.003307  -0.003775
    13  H   -0.009109   0.001312   0.413765  -0.022090  -0.000273   0.000563
    14  C    0.046010  -0.007836  -0.032883   0.077039   0.001922  -0.000168
    15  O    0.009346   0.000146  -0.009599  -0.116674  -0.000309   0.000207
    16  H    0.052679  -0.005809  -0.002745  -0.228727  -0.000549  -0.000552
    17  O    0.000645   0.003507  -0.075155   0.002314  -0.000047  -0.000017
    18  C    0.000275  -0.000969   0.003506   0.000150  -0.000005  -0.000015
    19  H   -0.000006   0.000065  -0.000147   0.000073  -0.000001  -0.000000
    20  H    0.000310  -0.000029   0.015819  -0.003331  -0.000003   0.000012
    21  H    0.000089  -0.000223  -0.007139   0.000840  -0.000001  -0.000003
    22  H    0.000481  -0.032532   0.006276  -0.000551   0.000833  -0.000238
               7          8          9         10         11         12
     1  C   -0.012021  -0.029639  -0.031679  -0.012769   0.003165  -0.038919
     2  C   -0.000800   0.415096  -0.056412   0.425805   0.000166   0.447504
     3  C   -0.025158  -0.079304   0.326857   0.001210   0.420370   0.001836
     4  C    0.374531  -0.074680   0.024943   0.003208  -0.024885  -0.019122
     5  H   -0.004096  -0.008394   0.001334  -0.002105  -0.000038   0.003307
     6  H    0.001728   0.001161   0.001199   0.001093  -0.000125  -0.003775
     7  H    0.481262   0.003062  -0.007996  -0.000118   0.001437   0.000123
     8  C    0.003062   5.182586   0.424958  -0.051651   0.007658  -0.061728
     9  C   -0.007996   0.424958   4.922536   0.008816  -0.053884   0.000871
    10  H   -0.000118  -0.051651   0.008816   0.488616  -0.000039  -0.017074
    11  H    0.001437   0.007658  -0.053884  -0.000039   0.442960   0.000233
    12  H    0.000123  -0.061728   0.000871  -0.017074   0.000233   0.502475
    13  H    0.002450   0.003928  -0.047741   0.000309  -0.006206   0.002130
    14  C   -0.001853   0.007265  -0.007287  -0.000200   0.007504   0.003682
    15  O    0.006252   0.000181   0.000698   0.000003   0.006943  -0.000004
    16  H    0.007199   0.001145  -0.002589   0.000009   0.002138   0.001445
    17  O    0.002809  -0.066930   0.328602  -0.000144  -0.002973   0.000014
    18  C   -0.000922   0.005130  -0.081295   0.000023   0.001061  -0.000009
    19  H    0.000008  -0.000419   0.005770  -0.000000   0.000165  -0.000003
    20  H   -0.000831  -0.001116  -0.014836   0.000002  -0.005416   0.000024
    21  H    0.000245   0.002768  -0.002226  -0.000003   0.000120  -0.000024
    22  H    0.000132   0.426612  -0.053313  -0.006435  -0.000013   0.002707
              13         14         15         16         17         18
     1  C   -0.009109   0.046010   0.009346   0.052679   0.000645   0.000275
     2  C    0.001312  -0.007836   0.000146  -0.005809   0.003507  -0.000969
     3  C    0.413765  -0.032883  -0.009599  -0.002745  -0.075155   0.003506
     4  C   -0.022090   0.077039  -0.116674  -0.228727   0.002314   0.000150
     5  H   -0.000273   0.001922  -0.000309  -0.000549  -0.000047  -0.000005
     6  H    0.000563  -0.000168   0.000207  -0.000552  -0.000017  -0.000015
     7  H    0.002450  -0.001853   0.006252   0.007199   0.002809  -0.000922
     8  C    0.003928   0.007265   0.000181   0.001145  -0.066930   0.005130
     9  C   -0.047741  -0.007287   0.000698  -0.002589   0.328602  -0.081295
    10  H    0.000309  -0.000200   0.000003   0.000009  -0.000144   0.000023
    11  H   -0.006206   0.007504   0.006943   0.002138  -0.002973   0.001061
    12  H    0.002130   0.003682  -0.000004   0.001445   0.000014  -0.000009
    13  H    0.484197  -0.003627   0.000562   0.002201   0.003398  -0.001449
    14  C   -0.003627   4.700553   0.638175   0.488732   0.000047  -0.000851
    15  O    0.000562   0.638175   7.837992  -0.065581  -0.000004  -0.000439
    16  H    0.002201   0.488732  -0.065581   0.663214   0.000002  -0.000093
    17  O    0.003398   0.000047  -0.000004   0.000002   7.965274   0.231410
    18  C   -0.001449  -0.000851  -0.000439  -0.000093   0.231410   4.905981
    19  H    0.000058  -0.000015  -0.000002  -0.000000  -0.031117   0.401640
    20  H   -0.000180   0.000033   0.000401   0.000037  -0.040807   0.411287
    21  H   -0.000031   0.000171  -0.000001   0.000003  -0.042598   0.421163
    22  H   -0.000212   0.000164   0.000000   0.000012   0.008296   0.000146
              19         20         21         22
     1  C   -0.000006   0.000310   0.000089   0.000481
     2  C    0.000065  -0.000029  -0.000223  -0.032532
     3  C   -0.000147   0.015819  -0.007139   0.006276
     4  C    0.000073  -0.003331   0.000840  -0.000551
     5  H   -0.000001  -0.000003  -0.000001   0.000833
     6  H   -0.000000   0.000012  -0.000003  -0.000238
     7  H    0.000008  -0.000831   0.000245   0.000132
     8  C   -0.000419  -0.001116   0.002768   0.426612
     9  C    0.005770  -0.014836  -0.002226  -0.053313
    10  H   -0.000000   0.000002  -0.000003  -0.006435
    11  H    0.000165  -0.005416   0.000120  -0.000013
    12  H   -0.000003   0.000024  -0.000024   0.002707
    13  H    0.000058  -0.000180  -0.000031  -0.000212
    14  C   -0.000015   0.000033   0.000171   0.000164
    15  O   -0.000002   0.000401  -0.000001   0.000000
    16  H   -0.000000   0.000037   0.000003   0.000012
    17  O   -0.031117  -0.040807  -0.042598   0.008296
    18  C    0.401640   0.411287   0.421163   0.000146
    19  H    0.513225  -0.022937  -0.018305  -0.000211
    20  H   -0.022937   0.566381  -0.056382   0.000020
    21  H   -0.018305  -0.056382   0.547377   0.000194
    22  H   -0.000211   0.000020   0.000194   0.496044
 Mulliken charges:
               1
     1  C   -0.394037
     2  C   -0.362947
     3  C   -0.481151
     4  C   -0.099587
     5  H    0.174214
     6  H    0.184552
     7  H    0.172555
     8  C   -0.107689
     9  C    0.312674
    10  H    0.161444
    11  H    0.199661
    12  H    0.174305
    13  H    0.176044
    14  C    0.083426
    15  O   -0.308293
    16  H    0.087830
    17  O   -0.286528
    18  C   -0.295726
    19  H    0.152159
    20  H    0.151541
    21  H    0.153967
    22  H    0.151584
 Sum of Mulliken charges =  -0.00000
 Mulliken charges with hydrogens summed into heavy atoms:
               1
     1  C   -0.035271
     2  C   -0.027197
     3  C   -0.105445
     4  C    0.072968
     8  C    0.043895
     9  C    0.312674
    14  C    0.171256
    15  O   -0.308293
    17  O   -0.286528
    18  C    0.161940
 Electronic spatial extent (au):  <R**2>=           1698.2543
 Charge=             -0.0000 electrons
 Dipole moment (field-independent basis, Debye):
    X=              1.5401    Y=              2.3737    Z=             -0.0371  Tot=              2.8298
 Quadrupole moment (field-independent basis, Debye-Ang):
   XX=            -66.5968   YY=            -61.3089   ZZ=            -61.0667
   XY=            -13.0257   XZ=              2.0407   YZ=              0.2589
 Traceless Quadrupole moment (field-independent basis, Debye-Ang):
   XX=             -3.6060   YY=              1.6819   ZZ=              1.9241
   XY=            -13.0257   XZ=              2.0407   YZ=              0.2589
 Octapole moment (field-independent basis, Debye-Ang**2):
  XXX=             20.1494  YYY=             12.2592  ZZZ=              3.2529  XYY=             25.7866
  XXY=              8.9810  XXZ=              0.1088  XZZ=             -1.5012  YZZ=             -3.8977
  YYZ=              5.8614  XYZ=              3.2441
 Hexadecapole moment (field-independent basis, Debye-Ang**3):
 XXXX=          -1270.9358 YYYY=           -781.2643 ZZZZ=           -199.2627 XXXY=            -84.4756
 XXXZ=             22.6768 YYYX=            -50.1583 YYYZ=              8.4454 ZZZX=             14.0026
 ZZZY=              2.8707 XXYY=           -364.9079 XXZZ=           -246.2460 YYZZ=           -164.7520
 XXYZ=             -7.7514 YYXZ=              7.8311 ZZXY=             -1.7001
 N-N= 5.247330297383D+02 E-N=-2.127134034070D+03  KE= 4.600403188785D+02
 Unable to Open any file for archive entry.
 1\1\GINC-NODE13\SP\RM062X\def2TZVP\C8H12O2\RPATON\21-Jun-2022\0\\# M06
 2X/def2tzvp\\DATS_13_exo_iv_TZVPcreated by GaussianPrep\\0,1\C,0,-1.49
 0007,1.352767,0.789711\C,0,-0.049489,2.268877,-0.488414\C,0,0.28556,-0
 .518796,-0.868519\C,0,-1.398362,-0.029297,0.683097\H,0,-1.12631,1.8452
 73,1.683311\H,0,-2.32131,1.852859,0.296212\H,0,-0.870406,-0.616183,1.4
 27331\C,0,1.130946,1.636316,-0.156594\C,0,1.290201,0.244476,-0.316221\
 H,0,-0.160608,3.326002,-0.264902\H,0,0.303192,-1.602052,-0.871271\H,0,
 -0.636133,1.928461,-1.334963\H,0,-0.360412,-0.066611,-1.608945\C,0,-2.
 369778,-0.758239,-0.142152\O,0,-2.547198,-1.956258,-0.12355\H,0,-2.958
 173,-0.107039,-0.83068\O,0,2.369797,-0.270009,0.339237\C,0,2.56658,-1.
 664118,0.258633\H,0,3.518718,-1.866303,0.749042\H,0,1.769739,-2.211983
 ,0.776414\H,0,2.610373,-1.998522,-0.785109\H,0,1.856637,2.13432,0.4808
 18\\Version=AS64L-G16RevC.01\State=1-A\HF=-462.3674709\RMSD=4.698e-09\
 Dipole=0.6059146,0.9338987,-0.0145967\Quadrupole=-2.6809715,1.250424,1
 .4305475,-9.6842803,1.5172093,0.192449\PG=C01 [X(C8H12O2)]\\@
 The archive entry for this job was punched.


 IF NO USE IS MADE OF THE LABOR OF PAST AGES,
 THE WORLD MUST REMAIN ALWAYS IN THE INFANCY OF KNOWLEDGE.

                          -- CICERO
 Job cpu time:       0 days  0 hours 15 minutes 26.5 seconds.
 Elapsed time:       0 days  0 hours  1 minutes  0.7 seconds.
 File lengths (MBytes):  RWF=     83 Int=      0 D2E=      0 Chk=     10 Scr=      1
 Normal termination of Gaussian 16 at Tue Jun 21 11:24:48 2022.
