Job Start Time: Tue Jun 21 11:24:49 MDT 2022
SLURM Job ID: 40896
SLURM Job Name: DATS_14_exo_i_TZVP
 Entering Gaussian System, Link 0=/opt/apps/Gaussian/G16C/g16/g16
 Initial command:
 /opt/apps/Gaussian/G16C/g16/l1.exe "/tmp/Gau-2334260.inp" -scrdir="/tmp/"
 Entering Link 1 = /opt/apps/Gaussian/G16C/g16/l1.exe PID=   2334261.
  
 Copyright (c) 1988-2019, Gaussian, Inc.  All Rights Reserved.
  
 This is part of the Gaussian(R) 16 program.  It is based on
 the Gaussian(R) 09 system (copyright 2009, Gaussian, Inc.),
 the Gaussian(R) 03 system (copyright 2003, Gaussian, Inc.),
 the Gaussian(R) 98 system (copyright 1998, Gaussian, Inc.),
 the Gaussian(R) 94 system (copyright 1995, Gaussian, Inc.),
 the Gaussian 92(TM) system (copyright 1992, Gaussian, Inc.),
 the Gaussian 90(TM) system (copyright 1990, Gaussian, Inc.),
 the Gaussian 88(TM) system (copyright 1988, Gaussian, Inc.),
 the Gaussian 86(TM) system (copyright 1986, Carnegie Mellon
 University), and the Gaussian 82(TM) system (copyright 1983,
 Carnegie Mellon University). Gaussian is a federally registered
 trademark of Gaussian, Inc.
  
 This software contains proprietary and confidential information,
 including trade secrets, belonging to Gaussian, Inc.
  
 This software is provided under written license and may be
 used, copied, transmitted, or stored only in accord with that
 written license.
  
 The following legend is applicable only to US Government
 contracts under FAR:
  
                    RESTRICTED RIGHTS LEGEND
  
 Use, reproduction and disclosure by the US Government is
 subject to restrictions as set forth in subparagraphs (a)
 and (c) of the Commercial Computer Software - Restricted
 Rights clause in FAR 52.227-19.
  
 Gaussian, Inc.
 340 Quinnipiac St., Bldg. 40, Wallingford CT 06492
  
  
 ---------------------------------------------------------------
 Warning -- This program may not be used in any manner that
 competes with the business of Gaussian, Inc. or will provide
 assistance to any competitor of Gaussian, Inc.  The licensee
 of this program is prohibited from giving any competitor of
 Gaussian, Inc. access to this program.  By using this program,
 the user acknowledges that Gaussian, Inc. is engaged in the
 business of creating and licensing software in the field of
 computational chemistry and represents and warrants to the
 licensee that it is not a competitor of Gaussian, Inc. and that
 it will not use this program in any manner prohibited above.
 ---------------------------------------------------------------
  

 Cite this work as:
 Gaussian 16, Revision C.01,
 M. J. Frisch, G. W. Trucks, H. B. Schlegel, G. E. Scuseria, 
 M. A. Robb, J. R. Cheeseman, G. Scalmani, V. Barone, 
 G. A. Petersson, H. Nakatsuji, X. Li, M. Caricato, A. V. Marenich, 
 J. Bloino, B. G. Janesko, R. Gomperts, B. Mennucci, H. P. Hratchian, 
 J. V. Ortiz, A. F. Izmaylov, J. L. Sonnenberg, D. Williams-Young, 
 F. Ding, F. Lipparini, F. Egidi, J. Goings, B. Peng, A. Petrone, 
 T. Henderson, D. Ranasinghe, V. G. Zakrzewski, J. Gao, N. Rega, 
 G. Zheng, W. Liang, M. Hada, M. Ehara, K. Toyota, R. Fukuda, 
 J. Hasegawa, M. Ishida, T. Nakajima, Y. Honda, O. Kitao, H. Nakai, 
 T. Vreven, K. Throssell, J. A. Montgomery, Jr., J. E. Peralta, 
 F. Ogliaro, M. J. Bearpark, J. J. Heyd, E. N. Brothers, K. N. Kudin, 
 V. N. Staroverov, T. A. Keith, R. Kobayashi, J. Normand, 
 K. Raghavachari, A. P. Rendell, J. C. Burant, S. S. Iyengar, 
 J. Tomasi, M. Cossi, J. M. Millam, M. Klene, C. Adamo, R. Cammi, 
 J. W. Ochterski, R. L. Martin, K. Morokuma, O. Farkas, 
 J. B. Foresman, and D. J. Fox, Gaussian, Inc., Wallingford CT, 2019.
 
 ******************************************
 Gaussian 16:  AS64L-G16RevC.01  3-Jul-2019
                21-Jun-2022 
 ******************************************
 %chk=DATS_14_exo_i_TZVP.chk
 %mem=48GB
 %nprocshared=16
 Will use up to   16 processors via shared memory.
 ----------------
 # M062X/def2tzvp
 ----------------
 1/38=1,172=1/1;
 2/12=2,17=6,18=5,40=1/2;
 3/5=44,7=101,11=2,25=1,30=1,74=-55/1,2,3;
 4//1;
 5/5=2,38=5/2;
 6/7=2,8=2,9=2,10=2,28=1/1;
 99/5=1,9=1/99;
 -----------------------------------------
 DATS_14_exo_i_TZVPcreated by GaussianPrep
 -----------------------------------------
 Symbolic Z-matrix:
 Charge =  0 Multiplicity = 1
 C                     0.95384  -1.27007   0.75812 
 C                    -0.24861  -1.00294  -0.91321 
 C                     0.3264    1.74853  -0.33782 
 C                     1.61451  -0.09991   1.09669 
 H                     0.2046   -1.68134   1.42738 
 H                     1.5139   -1.99654   0.17528 
 H                     1.3346    0.48876   1.96268 
 C                    -1.22092  -0.12617  -0.47318 
 C                    -0.91113   1.22648  -0.1385 
 H                    -0.56371  -2.0176   -1.13605 
 H                     0.56314   2.74345   0.02639 
 H                    -1.63604   1.80783   0.42177 
 H                     0.61169  -0.63662  -1.46236 
 H                     1.04716   1.30125  -1.0107 
 O                    -2.425    -0.68409  -0.18207 
 C                    -3.42274   0.11379   0.41944 
 H                    -3.66624   0.98506  -0.19924 
 H                    -4.30219  -0.52408   0.50459 
 H                    -3.12293   0.45018   1.41897 
 C                     2.78506   0.2844    0.33286 
 O                     3.09556  -0.22588  -0.73582 
 H                     3.39317   1.11476   0.74788 
 
                          Input orientation:                          
 ---------------------------------------------------------------------
 Center     Atomic      Atomic             Coordinates (Angstroms)
 Number     Number       Type             X           Y           Z
 ---------------------------------------------------------------------
      1          6           0        0.953839   -1.270069    0.758124
      2          6           0       -0.248610   -1.002944   -0.913206
      3          6           0        0.326401    1.748529   -0.337817
      4          6           0        1.614509   -0.099908    1.096694
      5          1           0        0.204599   -1.681339    1.427376
      6          1           0        1.513896   -1.996538    0.175278
      7          1           0        1.334597    0.488755    1.962683
      8          6           0       -1.220918   -0.126166   -0.473179
      9          6           0       -0.911128    1.226481   -0.138504
     10          1           0       -0.563708   -2.017603   -1.136051
     11          1           0        0.563144    2.743452    0.026394
     12          1           0       -1.636041    1.807834    0.421770
     13          1           0        0.611688   -0.636620   -1.462356
     14          1           0        1.047155    1.301254   -1.010696
     15          8           0       -2.425002   -0.684091   -0.182068
     16          6           0       -3.422744    0.113785    0.419443
     17          1           0       -3.666242    0.985064   -0.199239
     18          1           0       -4.302191   -0.524084    0.504588
     19          1           0       -3.122931    0.450183    1.418971
     20          6           0        2.785056    0.284398    0.332859
     21          8           0        3.095556   -0.225878   -0.735817
     22          1           0        3.393168    1.114764    0.747878
 ---------------------------------------------------------------------
                    Distance matrix (angstroms):
                    1          2          3          4          5
     1  C    0.000000
     2  C    2.076194   0.000000
     3  C    3.272109   2.869201   0.000000
     4  C    1.385782   2.885548   2.670911   0.000000
     5  H    1.085542   2.478698   3.859370   2.144323   0.000000
     6  H    1.086798   2.297489   3.962188   2.111004   1.838847
     7  H    2.165502   3.605891   2.809945   1.083887   2.504547
     8  C    2.748489   1.381212   2.434543   3.241117   2.839502
     9  C    3.242654   2.451414   1.357843   3.108676   3.486007
    10  H    2.539617   1.085578   3.951357   3.661603   2.697133
    11  H    4.098344   3.946806   1.085619   3.214904   4.655113
    12  H    4.036595   3.406993   2.105153   3.828979   4.071060
    13  H    2.334279   1.084376   2.652341   2.800437   3.099631
    14  H    3.122360   2.645343   1.082731   2.593499   3.943343
    15  O    3.555826   2.317954   3.675883   4.277166   3.240311
    16  C    4.602634   3.619139   4.159558   5.087067   4.170853
    17  H    5.229466   4.017727   4.067343   5.544631   4.973831
    18  H    5.314755   4.320991   5.224776   5.961363   4.743620
    19  H    4.473929   3.976474   4.082879   4.780146   3.951697
    20  C    2.439380   3.523217   2.939127   1.449591   3.423572
    21  O    2.812320   3.437840   3.424165   2.359548   3.892994
    22  H    3.411431   4.528403   3.314431   2.181909   4.294983
                    6          7          8          9         10
     6  H    0.000000
     7  H    3.066536   0.000000
     8  C    3.376092   3.583603   0.000000
     9  C    4.045621   3.162674   1.427456   0.000000
    10  H    2.456922   4.414470   2.109232   3.411727   0.000000
    11  H    4.836693   3.070507   3.415722   2.121761   5.028789
    12  H    4.945312   3.597092   2.171087   1.085070   4.267396
    13  H    2.311969   3.676950   2.144173   2.746397   1.842592
    14  H    3.535508   3.095765   2.733241   2.145037   3.691261
    15  O    4.167149   4.484430   1.358618   2.438032   2.480474
    16  C    5.374337   5.015425   2.387967   2.803143   3.890561
    17  H    5.988660   5.470706   2.699905   2.766338   4.418070
    18  H    6.008613   5.909760   3.257086   3.870059   4.347246
    19  H    5.388263   4.490731   2.744096   2.814328   4.378096
    20  C    2.615979   2.191328   4.106834   3.843368   4.321010
    21  O    2.543026   3.300542   4.325606   4.303446   4.093981
    22  H    3.679638   2.470901   4.931600   4.396034   5.386815
                   11         12         13         14         15
    11  H    0.000000
    12  H    2.422420   0.000000
    13  H    3.693727   3.818059   0.000000
    14  H    1.841129   3.083524   2.036905   0.000000
    15  O    4.551980   2.682680   3.295888   4.084617   0.000000
    16  C    4.791340   2.462136   4.514523   4.841010   1.412059
    17  H    4.585907   2.276910   4.746157   4.793177   2.080156
    18  H    5.880216   3.543029   5.294123   5.851790   2.005227
    19  H    4.559112   2.246880   4.840513   4.900737   2.082549
    20  C    3.328327   4.677057   2.965569   2.420627   5.324268
    21  O    3.976304   5.278636   2.620337   2.569754   5.567150
    22  H    3.343980   5.087203   3.960948   2.937880   6.160502
                   16         17         18         19         20
    16  C    0.000000
    17  H    1.095986   0.000000
    18  H    1.089749   1.782507   0.000000
    19  H    1.096407   1.788823   1.782119   0.000000
    20  C    6.210748   6.511014   7.135279   6.009279   0.000000
    21  O    6.628592   6.890298   7.506943   6.615871   1.224279
    22  H    6.896846   7.123842   7.871694   6.584192   1.109752
                   21         22
    21  O    0.000000
    22  H    2.021694   0.000000
 Stoichiometry    C8H12O2
 Framework group  C1[X(C8H12O2)]
 Deg. of freedom    60
 Full point group                 C1      NOp   1
 Largest Abelian subgroup         C1      NOp   1
 Largest concise Abelian subgroup C1      NOp   1
                         Standard orientation:                         
 ---------------------------------------------------------------------
 Center     Atomic      Atomic             Coordinates (Angstroms)
 Number     Number       Type             X           Y           Z
 ---------------------------------------------------------------------
      1          6           0        0.953839   -1.270069    0.758124
      2          6           0       -0.248610   -1.002944   -0.913206
      3          6           0        0.326401    1.748529   -0.337817
      4          6           0        1.614509   -0.099908    1.096694
      5          1           0        0.204599   -1.681339    1.427376
      6          1           0        1.513896   -1.996538    0.175278
      7          1           0        1.334597    0.488755    1.962683
      8          6           0       -1.220918   -0.126166   -0.473179
      9          6           0       -0.911128    1.226481   -0.138504
     10          1           0       -0.563708   -2.017603   -1.136051
     11          1           0        0.563144    2.743452    0.026394
     12          1           0       -1.636041    1.807834    0.421770
     13          1           0        0.611688   -0.636620   -1.462356
     14          1           0        1.047155    1.301254   -1.010696
     15          8           0       -2.425002   -0.684091   -0.182068
     16          6           0       -3.422744    0.113785    0.419443
     17          1           0       -3.666242    0.985064   -0.199239
     18          1           0       -4.302191   -0.524084    0.504588
     19          1           0       -3.122931    0.450183    1.418971
     20          6           0        2.785056    0.284398    0.332859
     21          8           0        3.095556   -0.225878   -0.735817
     22          1           0        3.393168    1.114764    0.747878
 ---------------------------------------------------------------------
 Rotational constants (GHZ):           2.7392033           0.7463175           0.6844487
 Standard basis: def2TZVP (5D, 7F)
 There are   432 symmetry adapted cartesian basis functions of A   symmetry.
 There are   382 symmetry adapted basis functions of A   symmetry.
   382 basis functions,   606 primitive gaussians,   432 cartesian basis functions
    38 alpha electrons       38 beta electrons
       nuclear repulsion energy       525.3437283782 Hartrees.
 NAtoms=   22 NActive=   22 NUniq=   22 SFac= 1.00D+00 NAtFMM=   60 NAOKFM=F Big=F
 Integral buffers will be    131072 words long.
 Raffenetti 2 integral format.
 Two-electron integral symmetry is turned on.
 One-electron integrals computed using PRISM.
   1 Symmetry operations used in ECPInt.
 ECPInt:  NShTT=   12561 NPrTT=   37384 LenC2=   12077 LenP2D=   28055.
 LDataN:  DoStor=T MaxTD1= 6 Len=  172
 NBasis=   382 RedAO= T EigKep=  6.62D-05  NBF=   382
 NBsUse=   382 1.00D-06 EigRej= -1.00D+00 NBFU=   382
 ExpMin= 9.52D-02 ExpMax= 2.70D+04 ExpMxC= 9.22D+02 IAcc=3 IRadAn=         5 AccDes= 0.00D+00
 Harris functional with IExCor= 1009 and IRadAn=       5 diagonalized for initial guess.
 HarFok:  IExCor= 1009 AccDes= 0.00D+00 IRadAn=         5 IDoV= 1 UseB2=F ITyADJ=14
 ICtDFT=  3500011 ScaDFX=  1.000000  1.000000  1.000000  1.000000
 FoFCou: FMM=F IPFlag=           0 FMFlag=      100000 FMFlg1=           0
         NFxFlg=           0 DoJE=T BraDBF=F KetDBF=T FulRan=T
         wScrn=  0.000000 ICntrl=       500 IOpCl=  0 I1Cent=   200000004 NGrid=           0
         NMat0=    1 NMatS0=      1 NMatT0=    0 NMatD0=    1 NMtDS0=    0 NMtDT0=    0
 Petite list used in FoFCou.
 Requested convergence on RMS density matrix=1.00D-08 within 128 cycles.
 Requested convergence on MAX density matrix=1.00D-06.
 Requested convergence on             energy=1.00D-06.
 No special actions if energy rises.
 Integral accuracy reduced to 1.0D-05 until final iterations.
 Initial convergence to 1.0D-05 achieved.  Increase integral accuracy.
 SCF Done:  E(RM062X) =  -462.371153203     A.U. after   17 cycles
            NFock= 17  Conv=0.19D-08     -V/T= 2.0051

 **********************************************************************

            Population analysis using the SCF Density.

 **********************************************************************

 Orbital symmetries:
       Occupied  (A) (A) (A) (A) (A) (A) (A) (A) (A) (A) (A) (A)
                 (A) (A) (A) (A) (A) (A) (A) (A) (A) (A) (A) (A)
                 (A) (A) (A) (A) (A) (A) (A) (A) (A) (A) (A) (A)
                 (A) (A)
       Virtual   (A) (A) (A) (A) (A) (A) (A) (A) (A) (A) (A) (A)
                 (A) (A) (A) (A) (A) (A) (A) (A) (A) (A) (A) (A)
                 (A) (A) (A) (A) (A) (A) (A) (A) (A) (A) (A) (A)
                 (A) (A) (A) (A) (A) (A) (A) (A) (A) (A) (A) (A)
                 (A) (A) (A) (A) (A) (A) (A) (A) (A) (A) (A) (A)
                 (A) (A) (A) (A) (A) (A) (A) (A) (A) (A) (A) (A)
                 (A) (A) (A) (A) (A) (A) (A) (A) (A) (A) (A) (A)
                 (A) (A) (A) (A) (A) (A) (A) (A) (A) (A) (A) (A)
                 (A) (A) (A) (A) (A) (A) (A) (A) (A) (A) (A) (A)
                 (A) (A) (A) (A) (A) (A) (A) (A) (A) (A) (A) (A)
                 (A) (A) (A) (A) (A) (A) (A) (A) (A) (A) (A) (A)
                 (A) (A) (A) (A) (A) (A) (A) (A) (A) (A) (A) (A)
                 (A) (A) (A) (A) (A) (A) (A) (A) (A) (A) (A) (A)
                 (A) (A) (A) (A) (A) (A) (A) (A) (A) (A) (A) (A)
                 (A) (A) (A) (A) (A) (A) (A) (A) (A) (A) (A) (A)
                 (A) (A) (A) (A) (A) (A) (A) (A) (A) (A) (A) (A)
                 (A) (A) (A) (A) (A) (A) (A) (A) (A) (A) (A) (A)
                 (A) (A) (A) (A) (A) (A) (A) (A) (A) (A) (A) (A)
                 (A) (A) (A) (A) (A) (A) (A) (A) (A) (A) (A) (A)
                 (A) (A) (A) (A) (A) (A) (A) (A) (A) (A) (A) (A)
                 (A) (A) (A) (A) (A) (A) (A) (A) (A) (A) (A) (A)
                 (A) (A) (A) (A) (A) (A) (A) (A) (A) (A) (A) (A)
                 (A) (A) (A) (A) (A) (A) (A) (A) (A) (A) (A) (A)
                 (A) (A) (A) (A) (A) (A) (A) (A) (A) (A) (A) (A)
                 (A) (A) (A) (A) (A) (A) (A) (A) (A) (A) (A) (A)
                 (A) (A) (A) (A) (A) (A) (A) (A) (A) (A) (A) (A)
                 (A) (A) (A) (A) (A) (A) (A) (A) (A) (A) (A) (A)
                 (A) (A) (A) (A) (A) (A) (A) (A) (A) (A) (A) (A)
                 (A) (A) (A) (A) (A) (A) (A) (A)
 The electronic state is 1-A.
 Alpha  occ. eigenvalues --  -19.67174 -19.59541 -10.61924 -10.60385 -10.60328
 Alpha  occ. eigenvalues --  -10.56225 -10.55905 -10.55604 -10.54914 -10.52963
 Alpha  occ. eigenvalues --   -1.20843  -1.13927  -0.93151  -0.87157  -0.85652
 Alpha  occ. eigenvalues --   -0.79093  -0.73353  -0.72745  -0.63239  -0.61512
 Alpha  occ. eigenvalues --   -0.59831  -0.58096  -0.56439  -0.56225  -0.50883
 Alpha  occ. eigenvalues --   -0.50200  -0.49167  -0.48366  -0.47197  -0.45738
 Alpha  occ. eigenvalues --   -0.45459  -0.43518  -0.43186  -0.40915  -0.38002
 Alpha  occ. eigenvalues --   -0.32612  -0.31388  -0.25401
 Alpha virt. eigenvalues --   -0.03426   0.00937   0.06047   0.08004   0.08902
 Alpha virt. eigenvalues --    0.09238   0.10830   0.11658   0.12171   0.12982
 Alpha virt. eigenvalues --    0.13546   0.13917   0.14862   0.15182   0.15778
 Alpha virt. eigenvalues --    0.16725   0.19791   0.21103   0.21609   0.22553
 Alpha virt. eigenvalues --    0.22971   0.23539   0.24552   0.25010   0.26832
 Alpha virt. eigenvalues --    0.27032   0.28017   0.29511   0.30669   0.30977
 Alpha virt. eigenvalues --    0.33104   0.33691   0.34859   0.36224   0.37656
 Alpha virt. eigenvalues --    0.38299   0.38509   0.39112   0.40562   0.40785
 Alpha virt. eigenvalues --    0.42097   0.42905   0.43742   0.45066   0.45565
 Alpha virt. eigenvalues --    0.45914   0.46372   0.46896   0.47701   0.48597
 Alpha virt. eigenvalues --    0.49314   0.50014   0.50307   0.51352   0.52326
 Alpha virt. eigenvalues --    0.53636   0.55316   0.55932   0.57020   0.57827
 Alpha virt. eigenvalues --    0.59470   0.60524   0.61425   0.62364   0.64517
 Alpha virt. eigenvalues --    0.65426   0.66474   0.67363   0.68342   0.70115
 Alpha virt. eigenvalues --    0.71028   0.72352   0.73881   0.75779   0.77568
 Alpha virt. eigenvalues --    0.77820   0.79938   0.82348   0.83819   0.86352
 Alpha virt. eigenvalues --    0.87434   0.89517   0.90242   0.92001   0.94551
 Alpha virt. eigenvalues --    0.95581   0.96361   0.97830   0.99872   1.01121
 Alpha virt. eigenvalues --    1.02186   1.03573   1.04846   1.06344   1.08087
 Alpha virt. eigenvalues --    1.08719   1.10974   1.12263   1.13667   1.16246
 Alpha virt. eigenvalues --    1.17776   1.19149   1.19407   1.20992   1.22824
 Alpha virt. eigenvalues --    1.25502   1.26138   1.29534   1.30747   1.31944
 Alpha virt. eigenvalues --    1.34165   1.34499   1.36349   1.40199   1.40542
 Alpha virt. eigenvalues --    1.44499   1.48647   1.49118   1.50085   1.51326
 Alpha virt. eigenvalues --    1.53250   1.53793   1.55358   1.55578   1.57320
 Alpha virt. eigenvalues --    1.58207   1.58927   1.60831   1.61993   1.62658
 Alpha virt. eigenvalues --    1.64792   1.65287   1.66489   1.67581   1.69726
 Alpha virt. eigenvalues --    1.71413   1.73020   1.74142   1.77198   1.77845
 Alpha virt. eigenvalues --    1.78952   1.79955   1.82730   1.82937   1.83995
 Alpha virt. eigenvalues --    1.84303   1.86728   1.89646   1.92306   1.93770
 Alpha virt. eigenvalues --    1.94371   1.95756   1.97000   2.00256   2.00737
 Alpha virt. eigenvalues --    2.02453   2.04444   2.05354   2.09514   2.10296
 Alpha virt. eigenvalues --    2.11646   2.14110   2.15299   2.16501   2.19099
 Alpha virt. eigenvalues --    2.22499   2.23385   2.26424   2.28018   2.29645
 Alpha virt. eigenvalues --    2.30330   2.33397   2.33949   2.35950   2.37306
 Alpha virt. eigenvalues --    2.39891   2.40728   2.41645   2.42655   2.46474
 Alpha virt. eigenvalues --    2.47202   2.48195   2.50153   2.51223   2.52364
 Alpha virt. eigenvalues --    2.54810   2.55140   2.57105   2.57971   2.58709
 Alpha virt. eigenvalues --    2.60472   2.61201   2.62642   2.64450   2.65717
 Alpha virt. eigenvalues --    2.67126   2.68037   2.69968   2.70647   2.71750
 Alpha virt. eigenvalues --    2.74329   2.76315   2.77348   2.78858   2.80634
 Alpha virt. eigenvalues --    2.81946   2.83428   2.84749   2.85908   2.86020
 Alpha virt. eigenvalues --    2.87963   2.89134   2.90525   2.94462   2.94614
 Alpha virt. eigenvalues --    2.96727   2.98588   3.01107   3.02221   3.04246
 Alpha virt. eigenvalues --    3.05429   3.07567   3.08759   3.09536   3.11840
 Alpha virt. eigenvalues --    3.12927   3.13535   3.15327   3.16602   3.18403
 Alpha virt. eigenvalues --    3.18802   3.20859   3.21698   3.23314   3.24029
 Alpha virt. eigenvalues --    3.24983   3.25538   3.26138   3.28298   3.29708
 Alpha virt. eigenvalues --    3.31243   3.32026   3.33166   3.33423   3.34685
 Alpha virt. eigenvalues --    3.36230   3.37156   3.38672   3.40308   3.42879
 Alpha virt. eigenvalues --    3.44718   3.45079   3.45970   3.46843   3.47617
 Alpha virt. eigenvalues --    3.49777   3.50885   3.52905   3.53934   3.54610
 Alpha virt. eigenvalues --    3.57128   3.57613   3.60788   3.63622   3.64739
 Alpha virt. eigenvalues --    3.67225   3.70086   3.71958   3.73166   3.75445
 Alpha virt. eigenvalues --    3.80935   3.81247   3.83597   3.88717   3.94828
 Alpha virt. eigenvalues --    3.98227   4.01838   4.02701   4.06183   4.08282
 Alpha virt. eigenvalues --    4.10958   4.12219   4.13099   4.14053   4.16536
 Alpha virt. eigenvalues --    4.20678   4.22311   4.24219   4.26658   4.29871
 Alpha virt. eigenvalues --    4.31246   4.32817   4.36252   4.42225   4.45676
 Alpha virt. eigenvalues --    4.47855   4.51308   4.55433   4.57250   4.67137
 Alpha virt. eigenvalues --    4.68183   4.73039   4.76812   4.81410   4.84071
 Alpha virt. eigenvalues --    4.86244   4.88870   4.91761   5.01392   5.11934
 Alpha virt. eigenvalues --    5.24067   5.25165   5.35229   5.46864   5.57883
 Alpha virt. eigenvalues --    5.68258   5.74204   5.88845   5.89636   6.06851
 Alpha virt. eigenvalues --    6.23577   6.29700   6.39766   6.40658   6.43158
 Alpha virt. eigenvalues --    6.50550   6.62776   6.74507   6.83379   6.84409
 Alpha virt. eigenvalues --    6.97908   7.07174   7.12704   7.32145  22.33930
 Alpha virt. eigenvalues --   22.46409  22.48435  22.60695  22.74121  22.78581
 Alpha virt. eigenvalues --   22.96265  23.11237  44.02893  44.34921
          Condensed to atoms (all electrons):
               1          2          3          4          5          6
     1  C    5.218494   0.024533   0.008832   0.236078   0.431051   0.435780
     2  C    0.024533   5.526989  -0.058738   0.012809  -0.043717  -0.050049
     3  C    0.008832  -0.058738   5.270201   0.047307   0.003964   0.006183
     4  C    0.236078   0.012809   0.047307   5.916778  -0.056946  -0.046338
     5  H    0.431051  -0.043717   0.003964  -0.056946   0.506197  -0.012012
     6  H    0.435780  -0.050049   0.006183  -0.046338  -0.012012   0.467810
     7  H   -0.037213  -0.000252   0.001474   0.403862  -0.003899   0.002921
     8  C    0.025737   0.294498  -0.006074  -0.020434  -0.006380   0.002726
     9  C   -0.037682  -0.015518   0.328987  -0.047458  -0.003984  -0.001205
    10  H   -0.016318   0.421705  -0.000966   0.001477   0.000046  -0.002031
    11  H    0.001062  -0.000868   0.425517  -0.001894   0.000049  -0.000043
    12  H   -0.000471   0.004108  -0.014837  -0.000926  -0.000072   0.000033
    13  H   -0.023664   0.427307  -0.006824  -0.032932   0.003875  -0.003459
    14  H   -0.017515   0.025312   0.394463  -0.035395  -0.000845  -0.000913
    15  O   -0.006397  -0.076444   0.006341   0.002615   0.006637   0.000262
    16  C   -0.000157   0.002188  -0.002880   0.000494   0.000187   0.000052
    17  H   -0.000140  -0.000543   0.000665   0.000291   0.000157   0.000008
    18  H    0.000041   0.000030   0.000197  -0.000015  -0.000025  -0.000001
    19  H    0.000686   0.001219  -0.002030  -0.000752  -0.000794  -0.000031
    20  C   -0.003612  -0.006130  -0.003196   0.170243   0.005337  -0.002474
    21  O    0.044624  -0.013110  -0.024926  -0.186367   0.000967   0.004309
    22  H    0.026535  -0.002595   0.004230  -0.199631   0.000128   0.000514
               7          8          9         10         11         12
     1  C   -0.037213   0.025737  -0.037682  -0.016318   0.001062  -0.000471
     2  C   -0.000252   0.294498  -0.015518   0.421705  -0.000868   0.004108
     3  C    0.001474  -0.006074   0.328987  -0.000966   0.425517  -0.014837
     4  C    0.403862  -0.020434  -0.047458   0.001477  -0.001894  -0.000926
     5  H   -0.003899  -0.006380  -0.003984   0.000046   0.000049  -0.000072
     6  H    0.002921   0.002726  -0.001205  -0.002031  -0.000043   0.000033
     7  H    0.502033   0.001971  -0.003275  -0.000112  -0.000705   0.000268
     8  C    0.001971   5.003998   0.273417  -0.052996   0.006216  -0.054295
     9  C   -0.003275   0.273417   5.349755   0.008290  -0.051244   0.421812
    10  H   -0.000112  -0.052996   0.008290   0.464345   0.000004  -0.000108
    11  H   -0.000705   0.006216  -0.051244   0.000004   0.489435  -0.004968
    12  H    0.000268  -0.054295   0.421812  -0.000108  -0.004968   0.499379
    13  H    0.000131  -0.062243   0.008470  -0.004173   0.000468   0.000166
    14  H    0.000672  -0.018227  -0.033386   0.000350  -0.015593   0.001850
    15  O   -0.000058   0.341413  -0.065617   0.006662  -0.000114  -0.004643
    16  C   -0.000013  -0.077438  -0.004791   0.000266  -0.000005   0.003945
    17  H   -0.000006  -0.005665  -0.004746   0.000048   0.000025  -0.004756
    18  H    0.000001   0.005482   0.000299  -0.000156  -0.000001   0.000182
    19  H    0.000036  -0.011679   0.006998   0.000116  -0.000009  -0.001136
    20  C   -0.026046  -0.002142   0.000234   0.000250   0.000955   0.000024
    21  O    0.004956  -0.000100   0.003979   0.000316  -0.000027  -0.000013
    22  H   -0.000020   0.000383  -0.000908   0.000008   0.000170  -0.000021
              13         14         15         16         17         18
     1  C   -0.023664  -0.017515  -0.006397  -0.000157  -0.000140   0.000041
     2  C    0.427307   0.025312  -0.076444   0.002188  -0.000543   0.000030
     3  C   -0.006824   0.394463   0.006341  -0.002880   0.000665   0.000197
     4  C   -0.032932  -0.035395   0.002615   0.000494   0.000291  -0.000015
     5  H    0.003875  -0.000845   0.006637   0.000187   0.000157  -0.000025
     6  H   -0.003459  -0.000913   0.000262   0.000052   0.000008  -0.000001
     7  H    0.000131   0.000672  -0.000058  -0.000013  -0.000006   0.000001
     8  C   -0.062243  -0.018227   0.341413  -0.077438  -0.005665   0.005482
     9  C    0.008470  -0.033386  -0.065617  -0.004791  -0.004746   0.000299
    10  H   -0.004173   0.000350   0.006662   0.000266   0.000048  -0.000156
    11  H    0.000468  -0.015593  -0.000114  -0.000005   0.000025  -0.000001
    12  H    0.000166   0.001850  -0.004643   0.003945  -0.004756   0.000182
    13  H    0.438515  -0.000592   0.001730  -0.000322   0.000100   0.000007
    14  H   -0.000592   0.490183  -0.000088   0.000086  -0.000180   0.000001
    15  O    0.001730  -0.000088   7.942483   0.228552  -0.038620  -0.031576
    16  C   -0.000322   0.000086   0.228552   4.920003   0.421192   0.401914
    17  H    0.000100  -0.000180  -0.038620   0.421192   0.552571  -0.019199
    18  H    0.000007   0.000001  -0.031576   0.401914  -0.019199   0.504299
    19  H   -0.000077   0.000130  -0.041626   0.412809  -0.058132  -0.019329
    20  C    0.004816   0.004389  -0.000022   0.000004  -0.000000   0.000000
    21  O    0.018539   0.018821  -0.000006  -0.000001  -0.000000  -0.000000
    22  H    0.001619  -0.002265   0.000001   0.000000   0.000000   0.000000
              19         20         21         22
     1  C    0.000686  -0.003612   0.044624   0.026535
     2  C    0.001219  -0.006130  -0.013110  -0.002595
     3  C   -0.002030  -0.003196  -0.024926   0.004230
     4  C   -0.000752   0.170243  -0.186367  -0.199631
     5  H   -0.000794   0.005337   0.000967   0.000128
     6  H   -0.000031  -0.002474   0.004309   0.000514
     7  H    0.000036  -0.026046   0.004956  -0.000020
     8  C   -0.011679  -0.002142  -0.000100   0.000383
     9  C    0.006998   0.000234   0.003979  -0.000908
    10  H    0.000116   0.000250   0.000316   0.000008
    11  H   -0.000009   0.000955  -0.000027   0.000170
    12  H   -0.001136   0.000024  -0.000013  -0.000021
    13  H   -0.000077   0.004816   0.018539   0.001619
    14  H    0.000130   0.004389   0.018821  -0.002265
    15  O   -0.041626  -0.000022  -0.000006   0.000001
    16  C    0.412809   0.000004  -0.000001   0.000000
    17  H   -0.058132  -0.000000  -0.000000   0.000000
    18  H   -0.019329   0.000000  -0.000000   0.000000
    19  H    0.563993   0.000000   0.000001  -0.000000
    20  C    0.000000   4.698265   0.603672   0.493672
    21  O    0.000001   0.603672   7.947734  -0.055101
    22  H   -0.000000   0.493672  -0.055101   0.636852
 Mulliken charges:
               1
     1  C   -0.310284
     2  C   -0.472732
     3  C   -0.377892
     4  C   -0.162863
     5  H    0.170077
     6  H    0.197957
     7  H    0.153275
     8  C    0.361834
     9  C   -0.132426
    10  H    0.172977
    11  H    0.151567
    12  H    0.154479
    13  H    0.228542
    14  H    0.188743
    15  O   -0.271485
    16  C   -0.306085
    17  H    0.156932
    18  H    0.157850
    19  H    0.149608
    20  C    0.061762
    21  O   -0.368265
    22  H    0.096430
 Sum of Mulliken charges =  -0.00000
 Mulliken charges with hydrogens summed into heavy atoms:
               1
     1  C    0.057750
     2  C   -0.071213
     3  C   -0.037582
     4  C   -0.009588
     8  C    0.361834
     9  C    0.022053
    15  O   -0.271485
    16  C    0.158304
    20  C    0.158192
    21  O   -0.368265
 Electronic spatial extent (au):  <R**2>=           1748.5628
 Charge=             -0.0000 electrons
 Dipole moment (field-independent basis, Debye):
    X=             -4.1065    Y=              1.5064    Z=              2.2265  Tot=              4.9082
 Quadrupole moment (field-independent basis, Debye-Ang):
   XX=            -65.4854   YY=            -57.5822   ZZ=            -63.1029
   XY=              0.8039   XZ=              1.8348   YZ=              1.3529
 Traceless Quadrupole moment (field-independent basis, Debye-Ang):
   XX=             -3.4286   YY=              4.4746   ZZ=             -1.0461
   XY=              0.8039   XZ=              1.8348   YZ=              1.3529
 Octapole moment (field-independent basis, Debye-Ang**2):
  XXX=            -72.4031  YYY=             -3.0295  ZZZ=              0.0164  XYY=              3.1667
  XXY=             15.0952  XXZ=             24.6834  XZZ=             -6.2442  YZZ=             -1.4161
  YYZ=              0.4156  XYZ=              0.4795
 Hexadecapole moment (field-independent basis, Debye-Ang**3):
 XXXX=          -1623.0398 YYYY=           -398.5468 ZZZZ=           -252.1843 XXXY=             26.8194
 XXXZ=             28.5916 YYYX=              6.7843 YYYZ=             13.8207 ZZZX=            -15.8061
 ZZZY=              7.2191 XXYY=           -338.4178 XXZZ=           -333.0401 YYZZ=           -114.5462
 XXYZ=              0.5916 YYXZ=             -6.4126 ZZXY=              7.2463
 N-N= 5.253437283782D+02 E-N=-2.128533315578D+03  KE= 4.600458783037D+02
 Unable to Open any file for archive entry.
 1\1\GINC-NODE13\SP\RM062X\def2TZVP\C8H12O2\RPATON\21-Jun-2022\0\\# M06
 2X/def2tzvp\\DATS_14_exo_i_TZVPcreated by GaussianPrep\\0,1\C,0,0.9538
 39,-1.270069,0.758124\C,0,-0.24861,-1.002944,-0.913206\C,0,0.326401,1.
 748529,-0.337817\C,0,1.614509,-0.099908,1.096694\H,0,0.204599,-1.68133
 9,1.427376\H,0,1.513896,-1.996538,0.175278\H,0,1.334597,0.488755,1.962
 683\C,0,-1.220918,-0.126166,-0.473179\C,0,-0.911128,1.226481,-0.138504
 \H,0,-0.563708,-2.017603,-1.136051\H,0,0.563144,2.743452,0.026394\H,0,
 -1.636041,1.807834,0.42177\H,0,0.611688,-0.63662,-1.462356\H,0,1.04715
 5,1.301254,-1.010696\O,0,-2.425002,-0.684091,-0.182068\C,0,-3.422744,0
 .113785,0.419443\H,0,-3.666242,0.985064,-0.199239\H,0,-4.302191,-0.524
 084,0.504588\H,0,-3.122931,0.450183,1.418971\C,0,2.785056,0.284398,0.3
 32859\O,0,3.095556,-0.225878,-0.735817\H,0,3.393168,1.114764,0.747878\
 \Version=AS64L-G16RevC.01\State=1-A\HF=-462.3711532\RMSD=1.865e-09\Dip
 ole=-1.6156326,0.5926699,0.8759748\Quadrupole=-2.5490491,3.3267886,-0.
 7777395,0.5976612,1.3641151,1.005854\PG=C01 [X(C8H12O2)]\\@
 The archive entry for this job was punched.


 A FOOL CAN ASK MORE QUESTIONS THAN
 A WISE MAN CAN ANSWER.
 Job cpu time:       0 days  0 hours 16 minutes 42.5 seconds.
 Elapsed time:       0 days  0 hours  1 minutes  5.6 seconds.
 File lengths (MBytes):  RWF=     83 Int=      0 D2E=      0 Chk=     10 Scr=      1
 Normal termination of Gaussian 16 at Tue Jun 21 11:25:55 2022.
