Job Start Time: Tue Jun 21 11:22:46 MDT 2022
SLURM Job ID: 40883
SLURM Job Name: DATS_13_endo_ii_TZVP
 Entering Gaussian System, Link 0=/opt/apps/Gaussian/G16C/g16/g16
 Initial command:
 /opt/apps/Gaussian/G16C/g16/l1.exe "/tmp/Gau-2603784.inp" -scrdir="/tmp/"
 Entering Link 1 = /opt/apps/Gaussian/G16C/g16/l1.exe PID=   2603787.
  
 Copyright (c) 1988-2019, Gaussian, Inc.  All Rights Reserved.
  
 This is part of the Gaussian(R) 16 program.  It is based on
 the Gaussian(R) 09 system (copyright 2009, Gaussian, Inc.),
 the Gaussian(R) 03 system (copyright 2003, Gaussian, Inc.),
 the Gaussian(R) 98 system (copyright 1998, Gaussian, Inc.),
 the Gaussian(R) 94 system (copyright 1995, Gaussian, Inc.),
 the Gaussian 92(TM) system (copyright 1992, Gaussian, Inc.),
 the Gaussian 90(TM) system (copyright 1990, Gaussian, Inc.),
 the Gaussian 88(TM) system (copyright 1988, Gaussian, Inc.),
 the Gaussian 86(TM) system (copyright 1986, Carnegie Mellon
 University), and the Gaussian 82(TM) system (copyright 1983,
 Carnegie Mellon University). Gaussian is a federally registered
 trademark of Gaussian, Inc.
  
 This software contains proprietary and confidential information,
 including trade secrets, belonging to Gaussian, Inc.
  
 This software is provided under written license and may be
 used, copied, transmitted, or stored only in accord with that
 written license.
  
 The following legend is applicable only to US Government
 contracts under FAR:
  
                    RESTRICTED RIGHTS LEGEND
  
 Use, reproduction and disclosure by the US Government is
 subject to restrictions as set forth in subparagraphs (a)
 and (c) of the Commercial Computer Software - Restricted
 Rights clause in FAR 52.227-19.
  
 Gaussian, Inc.
 340 Quinnipiac St., Bldg. 40, Wallingford CT 06492
  
  
 ---------------------------------------------------------------
 Warning -- This program may not be used in any manner that
 competes with the business of Gaussian, Inc. or will provide
 assistance to any competitor of Gaussian, Inc.  The licensee
 of this program is prohibited from giving any competitor of
 Gaussian, Inc. access to this program.  By using this program,
 the user acknowledges that Gaussian, Inc. is engaged in the
 business of creating and licensing software in the field of
 computational chemistry and represents and warrants to the
 licensee that it is not a competitor of Gaussian, Inc. and that
 it will not use this program in any manner prohibited above.
 ---------------------------------------------------------------
  

 Cite this work as:
 Gaussian 16, Revision C.01,
 M. J. Frisch, G. W. Trucks, H. B. Schlegel, G. E. Scuseria, 
 M. A. Robb, J. R. Cheeseman, G. Scalmani, V. Barone, 
 G. A. Petersson, H. Nakatsuji, X. Li, M. Caricato, A. V. Marenich, 
 J. Bloino, B. G. Janesko, R. Gomperts, B. Mennucci, H. P. Hratchian, 
 J. V. Ortiz, A. F. Izmaylov, J. L. Sonnenberg, D. Williams-Young, 
 F. Ding, F. Lipparini, F. Egidi, J. Goings, B. Peng, A. Petrone, 
 T. Henderson, D. Ranasinghe, V. G. Zakrzewski, J. Gao, N. Rega, 
 G. Zheng, W. Liang, M. Hada, M. Ehara, K. Toyota, R. Fukuda, 
 J. Hasegawa, M. Ishida, T. Nakajima, Y. Honda, O. Kitao, H. Nakai, 
 T. Vreven, K. Throssell, J. A. Montgomery, Jr., J. E. Peralta, 
 F. Ogliaro, M. J. Bearpark, J. J. Heyd, E. N. Brothers, K. N. Kudin, 
 V. N. Staroverov, T. A. Keith, R. Kobayashi, J. Normand, 
 K. Raghavachari, A. P. Rendell, J. C. Burant, S. S. Iyengar, 
 J. Tomasi, M. Cossi, J. M. Millam, M. Klene, C. Adamo, R. Cammi, 
 J. W. Ochterski, R. L. Martin, K. Morokuma, O. Farkas, 
 J. B. Foresman, and D. J. Fox, Gaussian, Inc., Wallingford CT, 2019.
 
 ******************************************
 Gaussian 16:  AS64L-G16RevC.01  3-Jul-2019
                21-Jun-2022 
 ******************************************
 %chk=DATS_13_endo_ii_TZVP.chk
 %mem=48GB
 %nprocshared=16
 Will use up to   16 processors via shared memory.
 ----------------
 # M062X/def2tzvp
 ----------------
 1/38=1,172=1/1;
 2/12=2,17=6,18=5,40=1/2;
 3/5=44,7=101,11=2,25=1,30=1,74=-55/1,2,3;
 4//1;
 5/5=2,38=5/2;
 6/7=2,8=2,9=2,10=2,28=1/1;
 99/5=1,9=1/99;
 -------------------------------------------
 DATS_13_endo_ii_TZVPcreated by GaussianPrep
 -------------------------------------------
 Symbolic Z-matrix:
 Charge =  0 Multiplicity = 1
 C                     2.32405  -0.19147  -0.07762 
 C                     1.53993   1.68307  -0.18386 
 C                    -0.42836   0.38008   1.4124 
 C                     1.49925  -1.01476   0.68083 
 H                     2.30529  -0.3522   -1.1505 
 H                     3.27677   0.12355   0.33855 
 H                     1.70539  -1.23732   1.72277 
 C                     0.23596   1.51907  -0.62121 
 C                    -0.73974   0.87438   0.16767 
 H                     2.24898   2.16125  -0.85364 
 H                    -1.119    -0.23026   1.98192 
 H                     1.73576   1.86767   0.86786 
 H                     0.38278   0.82116   1.97244 
 C                     0.45806  -1.7705   -0.00527 
 O                     0.16574  -1.59954  -1.17692 
 H                    -0.09131  -2.51214   0.61217 
 O                    -1.89313   0.60768  -0.49956 
 C                    -2.80076  -0.28315   0.1036 
 H                    -3.64273  -0.36951  -0.58276 
 H                    -2.34499  -1.27114   0.24275 
 H                    -3.15563   0.09704   1.07015 
 H                    -0.01255   1.65651  -1.66908 
 
                          Input orientation:                          
 ---------------------------------------------------------------------
 Center     Atomic      Atomic             Coordinates (Angstroms)
 Number     Number       Type             X           Y           Z
 ---------------------------------------------------------------------
      1          6           0        2.324050   -0.191466   -0.077619
      2          6           0        1.539927    1.683066   -0.183860
      3          6           0       -0.428355    0.380076    1.412398
      4          6           0        1.499250   -1.014764    0.680831
      5          1           0        2.305293   -0.352203   -1.150495
      6          1           0        3.276765    0.123548    0.338552
      7          1           0        1.705387   -1.237318    1.722774
      8          6           0        0.235956    1.519068   -0.621214
      9          6           0       -0.739738    0.874380    0.167668
     10          1           0        2.248984    2.161249   -0.853637
     11          1           0       -1.118996   -0.230256    1.981923
     12          1           0        1.735756    1.867674    0.867861
     13          1           0        0.382782    0.821161    1.972439
     14          6           0        0.458056   -1.770504   -0.005272
     15          8           0        0.165743   -1.599537   -1.176922
     16          1           0       -0.091309   -2.512135    0.612167
     17          8           0       -1.893129    0.607680   -0.499562
     18          6           0       -2.800760   -0.283150    0.103604
     19          1           0       -3.642731   -0.369509   -0.582755
     20          1           0       -2.344986   -1.271142    0.242749
     21          1           0       -3.155629    0.097036    1.070153
     22          1           0       -0.012549    1.656511   -1.669078
 ---------------------------------------------------------------------
                    Distance matrix (angstroms):
                    1          2          3          4          5
     1  C    0.000000
     2  C    2.034701   0.000000
     3  C    3.181595   2.849554   0.000000
     4  C    1.390454   2.833308   2.489263   0.000000
     5  H    1.085012   2.379598   3.818047   2.107711   0.000000
     6  H    1.086323   2.391990   3.866118   2.138333   1.840478
     7  H    2.172088   3.491600   2.695395   1.085204   3.065777
     8  C    2.753463   1.385104   2.423673   3.116334   2.839709
     9  C    3.253151   2.444262   1.375009   2.974100   3.537552
    10  H    2.478529   1.086288   3.933908   3.606072   2.531548
    11  H    4.012204   3.926995   1.083443   3.027128   4.642485
    12  H    2.340957   1.085609   2.681948   2.898166   3.053848
    13  H    2.999445   2.594512   1.079882   2.507065   3.850396
    14  C    2.445512   3.623463   2.724061   1.458069   2.595265
    15  O    2.801682   3.694596   3.313065   2.360391   2.476735
    16  H    3.419835   4.571028   3.019744   2.185569   3.676409
    17  O    4.312919   3.611370   2.419289   3.941305   4.355667
    18  C    5.128833   4.773909   2.789465   4.399834   5.258261
    19  H    5.990771   5.588571   3.856777   5.334133   5.975083
    20  H    4.802940   4.899172   2.787126   3.877602   4.940716
    21  H    5.606023   5.112366   2.763199   4.801622   5.912255
    22  H    3.377493   2.148665   3.361201   3.865659   3.110667
                    6          7          8          9         10
     6  H    0.000000
     7  H    2.497450   0.000000
     8  C    3.480682   3.905275   0.000000
     9  C    4.089651   3.585563   1.410651   0.000000
    10  H    2.574854   4.299261   2.125723   3.410507   0.000000
    11  H    4.706226   3.009729   3.416482   2.157679   5.010288
    12  H    2.386808   3.220679   2.142025   2.757712   1.820205
    13  H    3.395790   2.459462   2.689920   2.126048   3.642149
    14  C    3.413322   2.196876   3.354102   2.908613   4.402934
    15  O    3.865765   3.303020   3.168507   2.957716   4.311371
    16  H    4.285512   2.467128   4.228348   3.476568   5.428266
    17  O    5.259717   4.614338   2.319144   1.358910   4.438023
    18  C    6.095647   4.882367   3.604857   2.364697   5.691337
    19  H    6.997952   5.888202   4.314211   3.246192   6.417976
    20  H    5.792963   4.312440   3.897815   2.680620   5.838487
    21  H    6.473920   5.082902   4.047931   2.693561   6.096867
    22  H    4.147305   4.778097   1.085663   2.124657   2.456468
                   11         12         13         14         15
    11  H    0.000000
    12  H    3.713765   0.000000
    13  H    1.833277   2.036129   0.000000
    14  C    2.967895   3.953633   3.260941   0.000000
    15  O    3.674750   4.320605   3.978110   1.219607   0.000000
    16  H    2.852954   4.752502   3.631248   1.110428   2.024784
    17  O    2.731151   4.077528   3.366918   3.380555   3.093473
    18  C    2.521747   5.078396   3.853179   3.583847   3.488948
    19  H    3.600861   6.003116   4.914414   4.371811   4.046045
    20  H    2.368802   5.186076   3.848412   2.857958   2.902941
    21  H    2.255287   5.205932   3.722745   4.207489   4.354218
    22  H    4.256045   3.088239   3.756959   3.838509   3.297856
                   16         17         18         19         20
    16  H    0.000000
    17  O    3.770377   0.000000
    18  C    3.545157   1.407544   0.000000
    19  H    4.316397   2.005723   1.089707   0.000000
    20  H    2.599152   2.070066   1.096914   1.782846   0.000000
    21  H    4.050627   2.078141   1.097584   1.785228   1.792666
    22  H    4.752672   2.450387   3.831293   4.296868   4.203153
                   21         22
    21  H    0.000000
    22  H    4.451326   0.000000
 Stoichiometry    C8H12O2
 Framework group  C1[X(C8H12O2)]
 Deg. of freedom    60
 Full point group                 C1      NOp   1
 Largest Abelian subgroup         C1      NOp   1
 Largest concise Abelian subgroup C1      NOp   1
                         Standard orientation:                         
 ---------------------------------------------------------------------
 Center     Atomic      Atomic             Coordinates (Angstroms)
 Number     Number       Type             X           Y           Z
 ---------------------------------------------------------------------
      1          6           0       -2.324050    0.191466   -0.077619
      2          6           0       -1.539927   -1.683066   -0.183860
      3          6           0        0.428355   -0.380076    1.412398
      4          6           0       -1.499250    1.014764    0.680831
      5          1           0       -2.305293    0.352203   -1.150495
      6          1           0       -3.276765   -0.123549    0.338552
      7          1           0       -1.705387    1.237318    1.722774
      8          6           0       -0.235956   -1.519068   -0.621214
      9          6           0        0.739738   -0.874380    0.167668
     10          1           0       -2.248984   -2.161249   -0.853637
     11          1           0        1.118996    0.230256    1.981923
     12          1           0       -1.735756   -1.867674    0.867861
     13          1           0       -0.382782   -0.821161    1.972439
     14          6           0       -0.458056    1.770504   -0.005272
     15          8           0       -0.165743    1.599537   -1.176922
     16          1           0        0.091309    2.512135    0.612167
     17          8           0        1.893129   -0.607680   -0.499562
     18          6           0        2.800760    0.283150    0.103604
     19          1           0        3.642731    0.369510   -0.582755
     20          1           0        2.344986    1.271142    0.242749
     21          1           0        3.155629   -0.097036    1.070153
     22          1           0        0.012549   -1.656511   -1.669078
 ---------------------------------------------------------------------
 Rotational constants (GHZ):           1.8631881           1.1981438           0.9459182
 Standard basis: def2TZVP (5D, 7F)
 There are   432 symmetry adapted cartesian basis functions of A   symmetry.
 There are   382 symmetry adapted basis functions of A   symmetry.
   382 basis functions,   606 primitive gaussians,   432 cartesian basis functions
    38 alpha electrons       38 beta electrons
       nuclear repulsion energy       549.4440434104 Hartrees.
 NAtoms=   22 NActive=   22 NUniq=   22 SFac= 1.00D+00 NAtFMM=   60 NAOKFM=F Big=F
 Integral buffers will be    131072 words long.
 Raffenetti 2 integral format.
 Two-electron integral symmetry is turned on.
 One-electron integrals computed using PRISM.
   1 Symmetry operations used in ECPInt.
 ECPInt:  NShTT=   12561 NPrTT=   37384 LenC2=   12279 LenP2D=   28830.
 LDataN:  DoStor=T MaxTD1= 6 Len=  172
 NBasis=   382 RedAO= T EigKep=  5.84D-05  NBF=   382
 NBsUse=   382 1.00D-06 EigRej= -1.00D+00 NBFU=   382
 ExpMin= 9.52D-02 ExpMax= 2.70D+04 ExpMxC= 9.22D+02 IAcc=3 IRadAn=         5 AccDes= 0.00D+00
 Harris functional with IExCor= 1009 and IRadAn=       5 diagonalized for initial guess.
 HarFok:  IExCor= 1009 AccDes= 0.00D+00 IRadAn=         5 IDoV= 1 UseB2=F ITyADJ=14
 ICtDFT=  3500011 ScaDFX=  1.000000  1.000000  1.000000  1.000000
 FoFCou: FMM=F IPFlag=           0 FMFlag=      100000 FMFlg1=           0
         NFxFlg=           0 DoJE=T BraDBF=F KetDBF=T FulRan=T
         wScrn=  0.000000 ICntrl=       500 IOpCl=  0 I1Cent=   200000004 NGrid=           0
         NMat0=    1 NMatS0=      1 NMatT0=    0 NMatD0=    1 NMtDS0=    0 NMtDT0=    0
 Petite list used in FoFCou.
 Requested convergence on RMS density matrix=1.00D-08 within 128 cycles.
 Requested convergence on MAX density matrix=1.00D-06.
 Requested convergence on             energy=1.00D-06.
 No special actions if energy rises.
 Integral accuracy reduced to 1.0D-05 until final iterations.
 Initial convergence to 1.0D-05 achieved.  Increase integral accuracy.
 SCF Done:  E(RM062X) =  -462.371948158     A.U. after   16 cycles
            NFock= 16  Conv=0.36D-08     -V/T= 2.0051

 **********************************************************************

            Population analysis using the SCF Density.

 **********************************************************************

 Orbital symmetries:
       Occupied  (A) (A) (A) (A) (A) (A) (A) (A) (A) (A) (A) (A)
                 (A) (A) (A) (A) (A) (A) (A) (A) (A) (A) (A) (A)
                 (A) (A) (A) (A) (A) (A) (A) (A) (A) (A) (A) (A)
                 (A) (A)
       Virtual   (A) (A) (A) (A) (A) (A) (A) (A) (A) (A) (A) (A)
                 (A) (A) (A) (A) (A) (A) (A) (A) (A) (A) (A) (A)
                 (A) (A) (A) (A) (A) (A) (A) (A) (A) (A) (A) (A)
                 (A) (A) (A) (A) (A) (A) (A) (A) (A) (A) (A) (A)
                 (A) (A) (A) (A) (A) (A) (A) (A) (A) (A) (A) (A)
                 (A) (A) (A) (A) (A) (A) (A) (A) (A) (A) (A) (A)
                 (A) (A) (A) (A) (A) (A) (A) (A) (A) (A) (A) (A)
                 (A) (A) (A) (A) (A) (A) (A) (A) (A) (A) (A) (A)
                 (A) (A) (A) (A) (A) (A) (A) (A) (A) (A) (A) (A)
                 (A) (A) (A) (A) (A) (A) (A) (A) (A) (A) (A) (A)
                 (A) (A) (A) (A) (A) (A) (A) (A) (A) (A) (A) (A)
                 (A) (A) (A) (A) (A) (A) (A) (A) (A) (A) (A) (A)
                 (A) (A) (A) (A) (A) (A) (A) (A) (A) (A) (A) (A)
                 (A) (A) (A) (A) (A) (A) (A) (A) (A) (A) (A) (A)
                 (A) (A) (A) (A) (A) (A) (A) (A) (A) (A) (A) (A)
                 (A) (A) (A) (A) (A) (A) (A) (A) (A) (A) (A) (A)
                 (A) (A) (A) (A) (A) (A) (A) (A) (A) (A) (A) (A)
                 (A) (A) (A) (A) (A) (A) (A) (A) (A) (A) (A) (A)
                 (A) (A) (A) (A) (A) (A) (A) (A) (A) (A) (A) (A)
                 (A) (A) (A) (A) (A) (A) (A) (A) (A) (A) (A) (A)
                 (A) (A) (A) (A) (A) (A) (A) (A) (A) (A) (A) (A)
                 (A) (A) (A) (A) (A) (A) (A) (A) (A) (A) (A) (A)
                 (A) (A) (A) (A) (A) (A) (A) (A) (A) (A) (A) (A)
                 (A) (A) (A) (A) (A) (A) (A) (A) (A) (A) (A) (A)
                 (A) (A) (A) (A) (A) (A) (A) (A) (A) (A) (A) (A)
                 (A) (A) (A) (A) (A) (A) (A) (A) (A) (A) (A) (A)
                 (A) (A) (A) (A) (A) (A) (A) (A) (A) (A) (A) (A)
                 (A) (A) (A) (A) (A) (A) (A) (A) (A) (A) (A) (A)
                 (A) (A) (A) (A) (A) (A) (A) (A)
 The electronic state is 1-A.
 Alpha  occ. eigenvalues --  -19.65205 -19.59981 -10.60919 -10.60351 -10.58562
 Alpha  occ. eigenvalues --  -10.56321 -10.55458 -10.55106 -10.54680 -10.54679
 Alpha  occ. eigenvalues --   -1.19174  -1.14504  -0.92825  -0.87399  -0.83243
 Alpha  occ. eigenvalues --   -0.80508  -0.73834  -0.70575  -0.63134  -0.60630
 Alpha  occ. eigenvalues --   -0.59395  -0.58180  -0.55847  -0.55112  -0.51659
 Alpha  occ. eigenvalues --   -0.50301  -0.48336  -0.47538  -0.47003  -0.46452
 Alpha  occ. eigenvalues --   -0.44236  -0.42811  -0.42089  -0.40452  -0.38446
 Alpha  occ. eigenvalues --   -0.31868  -0.29163  -0.27390
 Alpha virt. eigenvalues --   -0.03345   0.02866   0.06445   0.07311   0.08345
 Alpha virt. eigenvalues --    0.09442   0.10590   0.11737   0.12302   0.12748
 Alpha virt. eigenvalues --    0.13545   0.14501   0.14955   0.15974   0.16525
 Alpha virt. eigenvalues --    0.19089   0.20135   0.20652   0.21444   0.22045
 Alpha virt. eigenvalues --    0.23426   0.24319   0.24578   0.25901   0.27112
 Alpha virt. eigenvalues --    0.28033   0.28885   0.29429   0.31688   0.32037
 Alpha virt. eigenvalues --    0.32797   0.33846   0.35837   0.36747   0.38110
 Alpha virt. eigenvalues --    0.38783   0.39874   0.40789   0.41184   0.41685
 Alpha virt. eigenvalues --    0.42868   0.43102   0.44056   0.45043   0.45372
 Alpha virt. eigenvalues --    0.45775   0.46224   0.47430   0.48637   0.48734
 Alpha virt. eigenvalues --    0.50396   0.50978   0.51747   0.52268   0.53411
 Alpha virt. eigenvalues --    0.53958   0.54787   0.56568   0.56841   0.58504
 Alpha virt. eigenvalues --    0.59527   0.60080   0.61967   0.62980   0.65508
 Alpha virt. eigenvalues --    0.65704   0.66801   0.68686   0.70644   0.71532
 Alpha virt. eigenvalues --    0.72054   0.75540   0.76019   0.77764   0.79123
 Alpha virt. eigenvalues --    0.81204   0.82832   0.85368   0.86113   0.87446
 Alpha virt. eigenvalues --    0.89142   0.91153   0.91905   0.93590   0.94817
 Alpha virt. eigenvalues --    0.97006   0.98390   0.99630   1.00477   1.01624
 Alpha virt. eigenvalues --    1.03611   1.05253   1.06050   1.08995   1.09316
 Alpha virt. eigenvalues --    1.11284   1.12990   1.14077   1.14867   1.16536
 Alpha virt. eigenvalues --    1.18835   1.20618   1.21072   1.22256   1.23851
 Alpha virt. eigenvalues --    1.24253   1.26502   1.29035   1.30655   1.31787
 Alpha virt. eigenvalues --    1.35960   1.36724   1.39900   1.40195   1.44109
 Alpha virt. eigenvalues --    1.45515   1.48188   1.50469   1.51598   1.52766
 Alpha virt. eigenvalues --    1.54049   1.55505   1.55952   1.57565   1.58380
 Alpha virt. eigenvalues --    1.59501   1.60425   1.61263   1.62669   1.63584
 Alpha virt. eigenvalues --    1.66368   1.67454   1.68729   1.70264   1.70735
 Alpha virt. eigenvalues --    1.72923   1.75053   1.76217   1.77340   1.77451
 Alpha virt. eigenvalues --    1.79145   1.80870   1.81631   1.85375   1.85684
 Alpha virt. eigenvalues --    1.88288   1.92151   1.92715   1.93927   1.96428
 Alpha virt. eigenvalues --    1.97411   1.98423   2.01002   2.02779   2.04115
 Alpha virt. eigenvalues --    2.06067   2.07118   2.09592   2.10741   2.12921
 Alpha virt. eigenvalues --    2.14880   2.17104   2.18565   2.19993   2.21812
 Alpha virt. eigenvalues --    2.23014   2.25889   2.29170   2.29991   2.31176
 Alpha virt. eigenvalues --    2.32201   2.32418   2.35766   2.36594   2.39160
 Alpha virt. eigenvalues --    2.40394   2.41584   2.42217   2.45662   2.47262
 Alpha virt. eigenvalues --    2.48203   2.50545   2.52389   2.53976   2.54630
 Alpha virt. eigenvalues --    2.55426   2.56159   2.58154   2.59076   2.61273
 Alpha virt. eigenvalues --    2.62444   2.63001   2.65009   2.65943   2.68052
 Alpha virt. eigenvalues --    2.69122   2.70349   2.71791   2.72040   2.73888
 Alpha virt. eigenvalues --    2.75183   2.76379   2.77378   2.78302   2.80755
 Alpha virt. eigenvalues --    2.82540   2.83423   2.84954   2.86398   2.87809
 Alpha virt. eigenvalues --    2.88977   2.91410   2.94769   2.96112   2.97493
 Alpha virt. eigenvalues --    2.98125   3.01831   3.03685   3.05773   3.06070
 Alpha virt. eigenvalues --    3.07566   3.10088   3.11074   3.12080   3.13047
 Alpha virt. eigenvalues --    3.14087   3.15387   3.16587   3.16768   3.19640
 Alpha virt. eigenvalues --    3.20647   3.22088   3.22728   3.23741   3.25851
 Alpha virt. eigenvalues --    3.27085   3.28192   3.28481   3.29666   3.31035
 Alpha virt. eigenvalues --    3.32702   3.33278   3.36544   3.37044   3.37494
 Alpha virt. eigenvalues --    3.38736   3.39660   3.40300   3.41500   3.43938
 Alpha virt. eigenvalues --    3.44432   3.46047   3.48438   3.50482   3.51538
 Alpha virt. eigenvalues --    3.53160   3.54280   3.55745   3.56444   3.57246
 Alpha virt. eigenvalues --    3.59563   3.62408   3.63811   3.64737   3.68196
 Alpha virt. eigenvalues --    3.68479   3.70365   3.71470   3.75014   3.79918
 Alpha virt. eigenvalues --    3.81198   3.83854   3.86995   3.92650   3.94424
 Alpha virt. eigenvalues --    3.98500   4.02194   4.02369   4.04493   4.07914
 Alpha virt. eigenvalues --    4.09953   4.13070   4.16106   4.16854   4.19661
 Alpha virt. eigenvalues --    4.20887   4.24057   4.24806   4.27947   4.29014
 Alpha virt. eigenvalues --    4.30452   4.36226   4.40537   4.41741   4.49768
 Alpha virt. eigenvalues --    4.51316   4.53629   4.56275   4.58661   4.63617
 Alpha virt. eigenvalues --    4.70051   4.72259   4.78203   4.80322   4.82765
 Alpha virt. eigenvalues --    4.86736   4.88333   4.95061   5.01512   5.10607
 Alpha virt. eigenvalues --    5.24586   5.25574   5.38661   5.51266   5.58481
 Alpha virt. eigenvalues --    5.69081   5.78045   5.91588   5.91806   6.08331
 Alpha virt. eigenvalues --    6.27594   6.31395   6.40894   6.43245   6.43564
 Alpha virt. eigenvalues --    6.52396   6.66136   6.76531   6.86528   6.87084
 Alpha virt. eigenvalues --    6.98576   7.08008   7.15355   7.35466  22.42928
 Alpha virt. eigenvalues --   22.48009  22.50011  22.58905  22.76334  22.81618
 Alpha virt. eigenvalues --   22.99948  23.17908  44.11236  44.41122
          Condensed to atoms (all electrons):
               1          2          3          4          5          6
     1  C    5.245486   0.066985  -0.026363   0.291500   0.441805   0.425395
     2  C    0.066985   5.247689  -0.033741   0.021650  -0.031855  -0.027710
     3  C   -0.026363  -0.033741   5.475056   0.020052   0.005279   0.004709
     4  C    0.291500   0.021650   0.020052   5.837194  -0.059125  -0.052226
     5  H    0.441805  -0.031855   0.005279  -0.059125   0.455760  -0.015753
     6  H    0.425395  -0.027710   0.004709  -0.052226  -0.015753   0.498023
     7  H   -0.035222   0.000193  -0.007486   0.394639   0.002741  -0.004742
     8  C   -0.008206   0.360423  -0.085630  -0.088162  -0.013590   0.002899
     9  C   -0.053679  -0.038457   0.344682   0.021934  -0.000781   0.001082
    10  H   -0.022382   0.425789   0.001384   0.003112  -0.001445  -0.000129
    11  H    0.001523  -0.000886   0.434146  -0.006052  -0.000025  -0.000075
    12  H   -0.045744   0.453144  -0.007534  -0.015243   0.002717  -0.003304
    13  H   -0.011291   0.011179   0.415322  -0.016263  -0.000232   0.000611
    14  C    0.016359  -0.021635  -0.002970   0.119335   0.003343   0.004557
    15  O    0.020930  -0.013414  -0.024106  -0.153698   0.010103   0.000524
    16  H    0.018604  -0.001934   0.006177  -0.197336   0.001285  -0.000097
    17  O    0.001904   0.006021  -0.071826   0.004083  -0.000005  -0.000032
    18  C    0.001175  -0.001167  -0.007862  -0.001174  -0.000075  -0.000011
    19  H    0.000001   0.000031   0.000068  -0.000072   0.000001  -0.000000
    20  H   -0.000218   0.000013   0.012434  -0.005738  -0.000026   0.000017
    21  H    0.000046   0.000041  -0.001522   0.001327  -0.000002  -0.000003
    22  H    0.002054  -0.027024   0.003886  -0.001312   0.000101  -0.000154
               7          8          9         10         11         12
     1  C   -0.035222  -0.008206  -0.053679  -0.022382   0.001523  -0.045744
     2  C    0.000193   0.360423  -0.038457   0.425789  -0.000886   0.453144
     3  C   -0.007486  -0.085630   0.344682   0.001384   0.434146  -0.007534
     4  C    0.394639  -0.088162   0.021934   0.003112  -0.006052  -0.015243
     5  H    0.002741  -0.013590  -0.000781  -0.001445  -0.000025   0.002717
     6  H   -0.004742   0.002899   0.001082  -0.000129  -0.000075  -0.003304
     7  H    0.500157   0.003388  -0.001924  -0.000142   0.000929   0.001076
     8  C    0.003388   5.188168   0.431802  -0.042622   0.008093  -0.068746
     9  C   -0.001924   0.431802   4.941583   0.005093  -0.063446   0.011737
    10  H   -0.000142  -0.042622   0.005093   0.488101  -0.000014  -0.015830
    11  H    0.000929   0.008093  -0.063446  -0.000014   0.462789  -0.000098
    12  H    0.001076  -0.068746   0.011737  -0.015830  -0.000098   0.496172
    13  H   -0.004509  -0.003971  -0.040665   0.000459  -0.011355   0.001412
    14  C   -0.020864  -0.000719  -0.013670   0.000326  -0.001488  -0.000067
    15  O    0.004949   0.043450  -0.011218   0.000190   0.000601   0.000178
    16  H    0.003573   0.003309  -0.012578   0.000028   0.001311  -0.000077
    17  O   -0.000150  -0.066539   0.307024  -0.000177  -0.002144  -0.000151
    18  C    0.000039   0.006016  -0.080893   0.000005  -0.000313  -0.000017
    19  H    0.000002   0.000040   0.004983  -0.000000   0.000142  -0.000001
    20  H    0.000101  -0.004237   0.007544   0.000006  -0.004504   0.000025
    21  H   -0.000031   0.002944  -0.017469  -0.000004  -0.001174  -0.000011
    22  H    0.000021   0.407325  -0.032606  -0.005987  -0.000117   0.002350
              13         14         15         16         17         18
     1  C   -0.011291   0.016359   0.020930   0.018604   0.001904   0.001175
     2  C    0.011179  -0.021635  -0.013414  -0.001934   0.006021  -0.001167
     3  C    0.415322  -0.002970  -0.024106   0.006177  -0.071826  -0.007862
     4  C   -0.016263   0.119335  -0.153698  -0.197336   0.004083  -0.001174
     5  H   -0.000232   0.003343   0.010103   0.001285  -0.000005  -0.000075
     6  H    0.000611   0.004557   0.000524  -0.000097  -0.000032  -0.000011
     7  H   -0.004509  -0.020864   0.004949   0.003573  -0.000150   0.000039
     8  C   -0.003971  -0.000719   0.043450   0.003309  -0.066539   0.006016
     9  C   -0.040665  -0.013670  -0.011218  -0.012578   0.307024  -0.080893
    10  H    0.000459   0.000326   0.000190   0.000028  -0.000177   0.000005
    11  H   -0.011355  -0.001488   0.000601   0.001311  -0.002144  -0.000313
    12  H    0.001412  -0.000067   0.000178  -0.000077  -0.000151  -0.000017
    13  H    0.504943  -0.001239   0.000312  -0.000166   0.003480  -0.000857
    14  C   -0.001239   4.754399   0.614586   0.501257   0.003316  -0.000320
    15  O    0.000312   0.614586   7.900199  -0.060348  -0.001850   0.001763
    16  H   -0.000166   0.501257  -0.060348   0.634071   0.000422  -0.000952
    17  O    0.003480   0.003316  -0.001850   0.000422   7.965226   0.235295
    18  C   -0.000857  -0.000320   0.001763  -0.000952   0.235295   4.899522
    19  H    0.000040   0.000320  -0.000196   0.000128  -0.030314   0.405058
    20  H   -0.000389   0.002606  -0.000761  -0.004626  -0.050453   0.399640
    21  H    0.000295  -0.000863   0.000353   0.000007  -0.038027   0.428289
    22  H   -0.000190  -0.000184   0.000775   0.000000   0.007667   0.000493
              19         20         21         22
     1  C    0.000001  -0.000218   0.000046   0.002054
     2  C    0.000031   0.000013   0.000041  -0.027024
     3  C    0.000068   0.012434  -0.001522   0.003886
     4  C   -0.000072  -0.005738   0.001327  -0.001312
     5  H    0.000001  -0.000026  -0.000002   0.000101
     6  H   -0.000000   0.000017  -0.000003  -0.000154
     7  H    0.000002   0.000101  -0.000031   0.000021
     8  C    0.000040  -0.004237   0.002944   0.407325
     9  C    0.004983   0.007544  -0.017469  -0.032606
    10  H   -0.000000   0.000006  -0.000004  -0.005987
    11  H    0.000142  -0.004504  -0.001174  -0.000117
    12  H   -0.000001   0.000025  -0.000011   0.002350
    13  H    0.000040  -0.000389   0.000295  -0.000190
    14  C    0.000320   0.002606  -0.000863  -0.000184
    15  O   -0.000196  -0.000761   0.000353   0.000775
    16  H    0.000128  -0.004626   0.000007   0.000000
    17  O   -0.030314  -0.050453  -0.038027   0.007667
    18  C    0.405058   0.399640   0.428289   0.000493
    19  H    0.507054  -0.017123  -0.022805  -0.000197
    20  H   -0.017123   0.581794  -0.062434  -0.000036
    21  H   -0.022805  -0.062434   0.565612   0.000202
    22  H   -0.000197  -0.000036   0.000202   0.482025
 Mulliken charges:
               1
     1  C   -0.330661
     2  C   -0.395337
     3  C   -0.454156
     4  C   -0.118425
     5  H    0.199780
     6  H    0.166419
     7  H    0.163260
     8  C   -0.075434
     9  C    0.289921
    10  H    0.164241
    11  H    0.182157
    12  H    0.188011
    13  H    0.153075
    14  C    0.043616
    15  O   -0.333321
    16  H    0.107941
    17  O   -0.272772
    18  C   -0.283655
    19  H    0.152840
    20  H    0.146365
    21  H    0.145229
    22  H    0.160906
 Sum of Mulliken charges =  -0.00000
 Mulliken charges with hydrogens summed into heavy atoms:
               1
     1  C    0.035537
     2  C   -0.043085
     3  C   -0.118924
     4  C    0.044836
     8  C    0.085472
     9  C    0.289921
    14  C    0.151557
    15  O   -0.333321
    17  O   -0.272772
    18  C    0.160779
 Electronic spatial extent (au):  <R**2>=           1400.9929
 Charge=             -0.0000 electrons
 Dipole moment (field-independent basis, Debye):
    X=             -0.8051    Y=             -0.8036    Z=              2.9987  Tot=              3.2072
 Quadrupole moment (field-independent basis, Debye-Ang):
   XX=            -53.6092   YY=            -63.9772   ZZ=            -61.5349
   XY=              5.1735   XZ=              1.0621   YZ=              5.0202
 Traceless Quadrupole moment (field-independent basis, Debye-Ang):
   XX=              6.0979   YY=             -4.2701   ZZ=             -1.8278
   XY=              5.1735   XZ=              1.0621   YZ=              5.0202
 Octapole moment (field-independent basis, Debye-Ang**2):
  XXX=             16.3292  YYY=              7.8522  ZZZ=             -1.3894  XYY=             -0.6827
  XXY=              0.3500  XXZ=             -0.4049  XZZ=             -1.1458  YZZ=             -5.4095
  YYZ=              3.0356  XYZ=             -0.6555
 Hexadecapole moment (field-independent basis, Debye-Ang**3):
 XXXX=           -930.0531 YYYY=           -600.9323 ZZZZ=           -284.2946 XXXY=             32.1689
 XXXZ=             -6.1483 YYYX=              8.2917 YYYZ=             12.1741 ZZZX=             -5.3970
 ZZZY=              9.6361 XXYY=           -269.6766 XXZZ=           -207.7896 YYZZ=           -149.4869
 XXYZ=             -3.2468 YYXZ=              0.2360 ZZXY=              3.9320
 N-N= 5.494440434104D+02 E-N=-2.177025062114D+03  KE= 4.600459013452D+02
 Unable to Open any file for archive entry.
 1\1\GINC-NODE09\SP\RM062X\def2TZVP\C8H12O2\RPATON\21-Jun-2022\0\\# M06
 2X/def2tzvp\\DATS_13_endo_ii_TZVPcreated by GaussianPrep\\0,1\C,0,2.32
 405,-0.191466,-0.077619\C,0,1.539927,1.683066,-0.18386\C,0,-0.428355,0
 .380076,1.412398\C,0,1.49925,-1.014764,0.680831\H,0,2.305293,-0.352203
 ,-1.150495\H,0,3.276765,0.123548,0.338552\H,0,1.705387,-1.237318,1.722
 774\C,0,0.235956,1.519068,-0.621214\C,0,-0.739738,0.87438,0.167668\H,0
 ,2.248984,2.161249,-0.853637\H,0,-1.118996,-0.230256,1.981923\H,0,1.73
 5756,1.867674,0.867861\H,0,0.382782,0.821161,1.972439\C,0,0.458056,-1.
 770504,-0.005272\O,0,0.165743,-1.599537,-1.176922\H,0,-0.091309,-2.512
 135,0.612167\O,0,-1.893129,0.60768,-0.499562\C,0,-2.80076,-0.28315,0.1
 03604\H,0,-3.642731,-0.369509,-0.582755\H,0,-2.344986,-1.271142,0.2427
 49\H,0,-3.155629,0.097036,1.070153\H,0,-0.012549,1.656511,-1.669078\\V
 ersion=AS64L-G16RevC.01\State=1-A\HF=-462.3719482\RMSD=3.558e-09\Dipol
 e=0.3167371,0.316154,1.179782\Quadrupole=4.5336472,-3.1747165,-1.35893
 07,3.8463665,-0.789654,-3.7324307\PG=C01 [X(C8H12O2)]\\@
 The archive entry for this job was punched.


 EDUCATION DOESN'T COST 
           ... IT PAYS!

 -- POSTMARK, UNIV. OF MISSISSIPPI, DEC 78
 Job cpu time:       0 days  0 hours 17 minutes 39.7 seconds.
 Elapsed time:       0 days  0 hours  1 minutes  9.2 seconds.
 File lengths (MBytes):  RWF=     83 Int=      0 D2E=      0 Chk=     10 Scr=      1
 Normal termination of Gaussian 16 at Tue Jun 21 11:23:55 2022.
