Job Start Time: Tue Jun 21 11:23:50 MDT 2022
SLURM Job ID: 40891
SLURM Job Name: DATS_14_endo_ii_TZVP
 Entering Gaussian System, Link 0=/opt/apps/Gaussian/G16C/g16/g16
 Initial command:
 /opt/apps/Gaussian/G16C/g16/l1.exe "/tmp/Gau-2604410.inp" -scrdir="/tmp/"
 Entering Link 1 = /opt/apps/Gaussian/G16C/g16/l1.exe PID=   2604411.
  
 Copyright (c) 1988-2019, Gaussian, Inc.  All Rights Reserved.
  
 This is part of the Gaussian(R) 16 program.  It is based on
 the Gaussian(R) 09 system (copyright 2009, Gaussian, Inc.),
 the Gaussian(R) 03 system (copyright 2003, Gaussian, Inc.),
 the Gaussian(R) 98 system (copyright 1998, Gaussian, Inc.),
 the Gaussian(R) 94 system (copyright 1995, Gaussian, Inc.),
 the Gaussian 92(TM) system (copyright 1992, Gaussian, Inc.),
 the Gaussian 90(TM) system (copyright 1990, Gaussian, Inc.),
 the Gaussian 88(TM) system (copyright 1988, Gaussian, Inc.),
 the Gaussian 86(TM) system (copyright 1986, Carnegie Mellon
 University), and the Gaussian 82(TM) system (copyright 1983,
 Carnegie Mellon University). Gaussian is a federally registered
 trademark of Gaussian, Inc.
  
 This software contains proprietary and confidential information,
 including trade secrets, belonging to Gaussian, Inc.
  
 This software is provided under written license and may be
 used, copied, transmitted, or stored only in accord with that
 written license.
  
 The following legend is applicable only to US Government
 contracts under FAR:
  
                    RESTRICTED RIGHTS LEGEND
  
 Use, reproduction and disclosure by the US Government is
 subject to restrictions as set forth in subparagraphs (a)
 and (c) of the Commercial Computer Software - Restricted
 Rights clause in FAR 52.227-19.
  
 Gaussian, Inc.
 340 Quinnipiac St., Bldg. 40, Wallingford CT 06492
  
  
 ---------------------------------------------------------------
 Warning -- This program may not be used in any manner that
 competes with the business of Gaussian, Inc. or will provide
 assistance to any competitor of Gaussian, Inc.  The licensee
 of this program is prohibited from giving any competitor of
 Gaussian, Inc. access to this program.  By using this program,
 the user acknowledges that Gaussian, Inc. is engaged in the
 business of creating and licensing software in the field of
 computational chemistry and represents and warrants to the
 licensee that it is not a competitor of Gaussian, Inc. and that
 it will not use this program in any manner prohibited above.
 ---------------------------------------------------------------
  

 Cite this work as:
 Gaussian 16, Revision C.01,
 M. J. Frisch, G. W. Trucks, H. B. Schlegel, G. E. Scuseria, 
 M. A. Robb, J. R. Cheeseman, G. Scalmani, V. Barone, 
 G. A. Petersson, H. Nakatsuji, X. Li, M. Caricato, A. V. Marenich, 
 J. Bloino, B. G. Janesko, R. Gomperts, B. Mennucci, H. P. Hratchian, 
 J. V. Ortiz, A. F. Izmaylov, J. L. Sonnenberg, D. Williams-Young, 
 F. Ding, F. Lipparini, F. Egidi, J. Goings, B. Peng, A. Petrone, 
 T. Henderson, D. Ranasinghe, V. G. Zakrzewski, J. Gao, N. Rega, 
 G. Zheng, W. Liang, M. Hada, M. Ehara, K. Toyota, R. Fukuda, 
 J. Hasegawa, M. Ishida, T. Nakajima, Y. Honda, O. Kitao, H. Nakai, 
 T. Vreven, K. Throssell, J. A. Montgomery, Jr., J. E. Peralta, 
 F. Ogliaro, M. J. Bearpark, J. J. Heyd, E. N. Brothers, K. N. Kudin, 
 V. N. Staroverov, T. A. Keith, R. Kobayashi, J. Normand, 
 K. Raghavachari, A. P. Rendell, J. C. Burant, S. S. Iyengar, 
 J. Tomasi, M. Cossi, J. M. Millam, M. Klene, C. Adamo, R. Cammi, 
 J. W. Ochterski, R. L. Martin, K. Morokuma, O. Farkas, 
 J. B. Foresman, and D. J. Fox, Gaussian, Inc., Wallingford CT, 2019.
 
 ******************************************
 Gaussian 16:  AS64L-G16RevC.01  3-Jul-2019
                21-Jun-2022 
 ******************************************
 %chk=DATS_14_endo_ii_TZVP.chk
 %mem=48GB
 %nprocshared=16
 Will use up to   16 processors via shared memory.
 ----------------
 # M062X/def2tzvp
 ----------------
 1/38=1,172=1/1;
 2/12=2,17=6,18=5,40=1/2;
 3/5=44,7=101,11=2,25=1,30=1,74=-55/1,2,3;
 4//1;
 5/5=2,38=5/2;
 6/7=2,8=2,9=2,10=2,28=1/1;
 99/5=1,9=1/99;
 -------------------------------------------
 DATS_14_endo_ii_TZVPcreated by GaussianPrep
 -------------------------------------------
 Symbolic Z-matrix:
 Charge =  0 Multiplicity = 1
 C                    -0.89227  -1.19755   1.22413 
 C                     0.5399    0.15155   1.45772 
 C                    -1.2708    1.94249   0.09122 
 C                    -1.9324   -0.75973   0.40045 
 H                    -0.22453  -1.92637   0.77553 
 H                    -1.0918   -1.35357   2.28151 
 H                    -2.8838   -0.40992   0.78487 
 C                     0.83956   0.72276   0.2176 
 C                    -0.06013   1.6312   -0.42068 
 H                     1.30065  -0.43975   1.95655 
 H                    -1.97655   2.5342   -0.48242 
 H                     0.20499   1.92002  -1.43329 
 H                    -0.03164   0.7798    2.13023 
 H                    -1.55331   1.71591   1.11135 
 O                     1.91147   0.41252  -0.52956 
 C                     2.67275  -0.71878  -0.1591 
 H                     2.03491  -1.60704  -0.12207 
 H                     3.42413  -0.84191  -0.93808 
 H                     3.17129  -0.56852   0.80606 
 C                    -1.67372  -0.79089  -1.01096 
 O                    -0.56233  -1.05866  -1.4681 
 H                    -2.50491  -0.52001  -1.69117 
 
                          Input orientation:                          
 ---------------------------------------------------------------------
 Center     Atomic      Atomic             Coordinates (Angstroms)
 Number     Number       Type             X           Y           Z
 ---------------------------------------------------------------------
      1          6           0       -0.892267   -1.197547    1.224135
      2          6           0        0.539899    0.151552    1.457718
      3          6           0       -1.270803    1.942485    0.091217
      4          6           0       -1.932399   -0.759725    0.400445
      5          1           0       -0.224527   -1.926373    0.775528
      6          1           0       -1.091801   -1.353571    2.281513
      7          1           0       -2.883796   -0.409916    0.784870
      8          6           0        0.839562    0.722757    0.217597
      9          6           0       -0.060126    1.631199   -0.420681
     10          1           0        1.300652   -0.439746    1.956554
     11          1           0       -1.976553    2.534195   -0.482423
     12          1           0        0.204994    1.920022   -1.433294
     13          1           0       -0.031637    0.779796    2.130228
     14          1           0       -1.553307    1.715907    1.111349
     15          8           0        1.911474    0.412518   -0.529557
     16          6           0        2.672754   -0.718780   -0.159097
     17          1           0        2.034907   -1.607039   -0.122071
     18          1           0        3.424132   -0.841909   -0.938084
     19          1           0        3.171291   -0.568521    0.806058
     20          6           0       -1.673717   -0.790886   -1.010963
     21          8           0       -0.562334   -1.058664   -1.468103
     22          1           0       -2.504908   -0.520009   -1.691167
 ---------------------------------------------------------------------
                    Distance matrix (angstroms):
                    1          2          3          4          5
     1  C    0.000000
     2  C    1.981345   0.000000
     3  C    3.359553   2.890226   0.000000
     4  C    1.397150   2.839104   2.799155   0.000000
     5  H    1.085501   2.316787   4.065838   2.102042   0.000000
     6  H    1.087293   2.367800   3.961493   2.144219   1.829824
     7  H    2.186208   3.534071   2.935420   1.084115   3.061281
     8  C    2.774873   1.397846   2.440768   3.148802   2.908859
     9  C    3.376342   2.465313   1.350806   3.145818   3.756895
    10  H    2.433022   1.084996   3.970754   3.602288   2.435375
    11  H    4.244280   3.971607   1.085019   3.410471   4.954665
    12  H    4.240890   3.405525   2.121937   3.887427   4.456247
    13  H    2.339140   1.083334   2.654231   2.995859   3.032453
    14  H    2.989634   2.636037   1.082504   2.603430   3.891611
    15  O    3.678139   2.428700   3.585115   4.124854   3.425808
    16  C    3.853819   2.814363   4.764098   4.639202   3.275064
    17  H    3.247815   2.797039   4.855134   4.090291   2.452081
    18  H    4.840761   3.878870   5.554703   5.521851   4.174355
    19  H    4.133154   2.804887   5.152509   5.123352   3.657359
    20  C    2.402436   3.447125   2.974636   1.435256   2.565352
    21  O    2.715933   3.352606   3.455474   2.336218   2.429179
    22  H    3.399802   4.431402   3.280821   2.181759   3.641783
                    6          7          8          9         10
     6  H    0.000000
     7  H    2.518267   0.000000
     8  C    3.507285   3.932956   0.000000
     9  C    4.156327   3.686817   1.429022   0.000000
    10  H    2.581570   4.345496   2.141959   3.433916   0.000000
    11  H    4.851479   3.331203   3.420795   2.119412   5.053020
    12  H    5.118386   4.459763   2.135781   1.085860   4.273177
    13  H    2.387067   3.370492   2.102474   2.689393   1.814508
    14  H    3.317223   2.529014   2.740613   2.141000   3.675091
    15  O    4.476700   5.039715   1.342938   2.320397   2.698186
    16  C    4.531160   5.644619   2.362312   3.613788   2.537026
    17  H    3.951932   5.142887   2.640487   3.868400   2.494471
    18  H    5.569673   6.553254   3.234777   4.303954   3.612455
    19  H    4.578998   6.057201   2.729587   4.097037   2.199890
    20  C    3.390522   2.198737   3.180730   2.969614   4.216198
    21  O    3.798279   3.299386   2.824953   2.929961   3.947411
    22  H    4.298126   2.507277   4.046397   3.495539   5.272058
                   11         12         13         14         15
    11  H    0.000000
    12  H    2.457745   0.000000
    13  H    3.699535   3.748973   0.000000
    14  H    1.840881   3.099757   2.056672   0.000000
    15  O    4.429502   2.449772   3.314367   4.049210   0.000000
    16  C    5.683524   3.831017   3.847138   5.039973   1.413019
    17  H    5.776806   4.184262   3.878200   5.043667   2.063950
    18  H    6.385382   4.270403   4.897633   5.959656   2.007141
    19  H    6.147140   4.472858   3.718889   5.256771   2.081693
    20  C    3.380418   3.325198   3.876925   3.286749   3.812286
    21  O    3.984999   3.076130   4.075483   3.915845   3.027370
    22  H    3.326918   3.655656   4.733880   3.709307   4.660834
                   16         17         18         19         20
    16  C    0.000000
    17  H    1.094177   0.000000
    18  H    1.089289   1.783605   0.000000
    19  H    1.096650   1.797585   1.783452   0.000000
    20  C    4.429750   3.900016   5.098625   5.179297   0.000000
    21  O    3.506396   2.976269   4.027383   4.399091   1.231200
    22  H    5.403233   4.924796   5.985338   6.201429   1.107669
                   21         22
    21  O    0.000000
    22  H    2.028177   0.000000
 Stoichiometry    C8H12O2
 Framework group  C1[X(C8H12O2)]
 Deg. of freedom    60
 Full point group                 C1      NOp   1
 Largest Abelian subgroup         C1      NOp   1
 Largest concise Abelian subgroup C1      NOp   1
                         Standard orientation:                         
 ---------------------------------------------------------------------
 Center     Atomic      Atomic             Coordinates (Angstroms)
 Number     Number       Type             X           Y           Z
 ---------------------------------------------------------------------
      1          6           0       -0.892267   -1.197547    1.224135
      2          6           0        0.539899    0.151552    1.457718
      3          6           0       -1.270803    1.942485    0.091217
      4          6           0       -1.932399   -0.759725    0.400445
      5          1           0       -0.224527   -1.926373    0.775528
      6          1           0       -1.091801   -1.353571    2.281513
      7          1           0       -2.883796   -0.409916    0.784870
      8          6           0        0.839562    0.722757    0.217597
      9          6           0       -0.060126    1.631199   -0.420681
     10          1           0        1.300652   -0.439746    1.956554
     11          1           0       -1.976553    2.534195   -0.482423
     12          1           0        0.204994    1.920022   -1.433294
     13          1           0       -0.031637    0.779796    2.130228
     14          1           0       -1.553307    1.715907    1.111349
     15          8           0        1.911474    0.412518   -0.529557
     16          6           0        2.672754   -0.718780   -0.159097
     17          1           0        2.034907   -1.607039   -0.122071
     18          1           0        3.424132   -0.841909   -0.938084
     19          1           0        3.171291   -0.568521    0.806058
     20          6           0       -1.673717   -0.790886   -1.010963
     21          8           0       -0.562334   -1.058664   -1.468103
     22          1           0       -2.504908   -0.520009   -1.691167
 ---------------------------------------------------------------------
 Rotational constants (GHZ):           1.7580481           1.1446035           1.0416499
 Standard basis: def2TZVP (5D, 7F)
 There are   432 symmetry adapted cartesian basis functions of A   symmetry.
 There are   382 symmetry adapted basis functions of A   symmetry.
   382 basis functions,   606 primitive gaussians,   432 cartesian basis functions
    38 alpha electrons       38 beta electrons
       nuclear repulsion energy       549.3472243438 Hartrees.
 NAtoms=   22 NActive=   22 NUniq=   22 SFac= 1.00D+00 NAtFMM=   60 NAOKFM=F Big=F
 Integral buffers will be    131072 words long.
 Raffenetti 2 integral format.
 Two-electron integral symmetry is turned on.
 One-electron integrals computed using PRISM.
   1 Symmetry operations used in ECPInt.
 ECPInt:  NShTT=   12561 NPrTT=   37384 LenC2=   12299 LenP2D=   28856.
 LDataN:  DoStor=T MaxTD1= 6 Len=  172
 NBasis=   382 RedAO= T EigKep=  6.09D-05  NBF=   382
 NBsUse=   382 1.00D-06 EigRej= -1.00D+00 NBFU=   382
 ExpMin= 9.52D-02 ExpMax= 2.70D+04 ExpMxC= 9.22D+02 IAcc=3 IRadAn=         5 AccDes= 0.00D+00
 Harris functional with IExCor= 1009 and IRadAn=       5 diagonalized for initial guess.
 HarFok:  IExCor= 1009 AccDes= 0.00D+00 IRadAn=         5 IDoV= 1 UseB2=F ITyADJ=14
 ICtDFT=  3500011 ScaDFX=  1.000000  1.000000  1.000000  1.000000
 FoFCou: FMM=F IPFlag=           0 FMFlag=      100000 FMFlg1=           0
         NFxFlg=           0 DoJE=T BraDBF=F KetDBF=T FulRan=T
         wScrn=  0.000000 ICntrl=       500 IOpCl=  0 I1Cent=   200000004 NGrid=           0
         NMat0=    1 NMatS0=      1 NMatT0=    0 NMatD0=    1 NMtDS0=    0 NMtDT0=    0
 Petite list used in FoFCou.
 Requested convergence on RMS density matrix=1.00D-08 within 128 cycles.
 Requested convergence on MAX density matrix=1.00D-06.
 Requested convergence on             energy=1.00D-06.
 No special actions if energy rises.
 Integral accuracy reduced to 1.0D-05 until final iterations.
 Initial convergence to 1.0D-05 achieved.  Increase integral accuracy.
 SCF Done:  E(RM062X) =  -462.373668087     A.U. after   17 cycles
            NFock= 17  Conv=0.23D-08     -V/T= 2.0051

 **********************************************************************

            Population analysis using the SCF Density.

 **********************************************************************

 Orbital symmetries:
       Occupied  (A) (A) (A) (A) (A) (A) (A) (A) (A) (A) (A) (A)
                 (A) (A) (A) (A) (A) (A) (A) (A) (A) (A) (A) (A)
                 (A) (A) (A) (A) (A) (A) (A) (A) (A) (A) (A) (A)
                 (A) (A)
       Virtual   (A) (A) (A) (A) (A) (A) (A) (A) (A) (A) (A) (A)
                 (A) (A) (A) (A) (A) (A) (A) (A) (A) (A) (A) (A)
                 (A) (A) (A) (A) (A) (A) (A) (A) (A) (A) (A) (A)
                 (A) (A) (A) (A) (A) (A) (A) (A) (A) (A) (A) (A)
                 (A) (A) (A) (A) (A) (A) (A) (A) (A) (A) (A) (A)
                 (A) (A) (A) (A) (A) (A) (A) (A) (A) (A) (A) (A)
                 (A) (A) (A) (A) (A) (A) (A) (A) (A) (A) (A) (A)
                 (A) (A) (A) (A) (A) (A) (A) (A) (A) (A) (A) (A)
                 (A) (A) (A) (A) (A) (A) (A) (A) (A) (A) (A) (A)
                 (A) (A) (A) (A) (A) (A) (A) (A) (A) (A) (A) (A)
                 (A) (A) (A) (A) (A) (A) (A) (A) (A) (A) (A) (A)
                 (A) (A) (A) (A) (A) (A) (A) (A) (A) (A) (A) (A)
                 (A) (A) (A) (A) (A) (A) (A) (A) (A) (A) (A) (A)
                 (A) (A) (A) (A) (A) (A) (A) (A) (A) (A) (A) (A)
                 (A) (A) (A) (A) (A) (A) (A) (A) (A) (A) (A) (A)
                 (A) (A) (A) (A) (A) (A) (A) (A) (A) (A) (A) (A)
                 (A) (A) (A) (A) (A) (A) (A) (A) (A) (A) (A) (A)
                 (A) (A) (A) (A) (A) (A) (A) (A) (A) (A) (A) (A)
                 (A) (A) (A) (A) (A) (A) (A) (A) (A) (A) (A) (A)
                 (A) (A) (A) (A) (A) (A) (A) (A) (A) (A) (A) (A)
                 (A) (A) (A) (A) (A) (A) (A) (A) (A) (A) (A) (A)
                 (A) (A) (A) (A) (A) (A) (A) (A) (A) (A) (A) (A)
                 (A) (A) (A) (A) (A) (A) (A) (A) (A) (A) (A) (A)
                 (A) (A) (A) (A) (A) (A) (A) (A) (A) (A) (A) (A)
                 (A) (A) (A) (A) (A) (A) (A) (A) (A) (A) (A) (A)
                 (A) (A) (A) (A) (A) (A) (A) (A) (A) (A) (A) (A)
                 (A) (A) (A) (A) (A) (A) (A) (A) (A) (A) (A) (A)
                 (A) (A) (A) (A) (A) (A) (A) (A) (A) (A) (A) (A)
                 (A) (A) (A) (A) (A) (A) (A) (A)
 The electronic state is 1-A.
 Alpha  occ. eigenvalues --  -19.66780 -19.58373 -10.62482 -10.59342 -10.58984
 Alpha  occ. eigenvalues --  -10.56063 -10.55569 -10.55540 -10.54742 -10.52211
 Alpha  occ. eigenvalues --   -1.20814  -1.12550  -0.92825  -0.87144  -0.83501
 Alpha  occ. eigenvalues --   -0.81488  -0.72784  -0.70837  -0.63338  -0.61273
 Alpha  occ. eigenvalues --   -0.58586  -0.58025  -0.55991  -0.55676  -0.51382
 Alpha  occ. eigenvalues --   -0.50020  -0.48304  -0.47454  -0.46931  -0.45982
 Alpha  occ. eigenvalues --   -0.43782  -0.42819  -0.42061  -0.40941  -0.37256
 Alpha  occ. eigenvalues --   -0.33143  -0.30571  -0.24493
 Alpha virt. eigenvalues --   -0.03610   0.02828   0.06267   0.07990   0.08973
 Alpha virt. eigenvalues --    0.09991   0.10825   0.11412   0.12001   0.12347
 Alpha virt. eigenvalues --    0.14020   0.14244   0.14991   0.15924   0.16441
 Alpha virt. eigenvalues --    0.19442   0.20266   0.21205   0.21857   0.23068
 Alpha virt. eigenvalues --    0.23621   0.24752   0.25143   0.26047   0.26707
 Alpha virt. eigenvalues --    0.27224   0.28252   0.30057   0.30851   0.31509
 Alpha virt. eigenvalues --    0.33299   0.35098   0.35909   0.36381   0.38393
 Alpha virt. eigenvalues --    0.39202   0.39837   0.40526   0.41283   0.42201
 Alpha virt. eigenvalues --    0.42921   0.43998   0.44163   0.44987   0.45183
 Alpha virt. eigenvalues --    0.46086   0.46655   0.47358   0.48015   0.48908
 Alpha virt. eigenvalues --    0.49409   0.50299   0.51340   0.51904   0.52828
 Alpha virt. eigenvalues --    0.53814   0.54050   0.56875   0.57055   0.58484
 Alpha virt. eigenvalues --    0.59492   0.60779   0.61709   0.62957   0.64326
 Alpha virt. eigenvalues --    0.65445   0.66951   0.67970   0.69698   0.71237
 Alpha virt. eigenvalues --    0.73364   0.74655   0.75878   0.76928   0.78625
 Alpha virt. eigenvalues --    0.80933   0.81931   0.85551   0.87386   0.88175
 Alpha virt. eigenvalues --    0.89494   0.91103   0.91661   0.93720   0.95524
 Alpha virt. eigenvalues --    0.96494   0.98671   0.99627   1.01845   1.02427
 Alpha virt. eigenvalues --    1.03310   1.04900   1.08810   1.09060   1.10006
 Alpha virt. eigenvalues --    1.10664   1.11338   1.12370   1.14881   1.18124
 Alpha virt. eigenvalues --    1.19424   1.19984   1.21641   1.22329   1.22939
 Alpha virt. eigenvalues --    1.25943   1.27341   1.29582   1.30764   1.32518
 Alpha virt. eigenvalues --    1.35051   1.38406   1.38919   1.39606   1.42860
 Alpha virt. eigenvalues --    1.45636   1.49152   1.50332   1.51517   1.53671
 Alpha virt. eigenvalues --    1.54137   1.56012   1.56817   1.58122   1.58957
 Alpha virt. eigenvalues --    1.59468   1.60840   1.61748   1.63813   1.64714
 Alpha virt. eigenvalues --    1.65770   1.66867   1.68508   1.69797   1.70895
 Alpha virt. eigenvalues --    1.73497   1.74005   1.76626   1.77601   1.79330
 Alpha virt. eigenvalues --    1.79580   1.81112   1.81841   1.83885   1.85547
 Alpha virt. eigenvalues --    1.88341   1.90481   1.91751   1.93727   1.94758
 Alpha virt. eigenvalues --    1.95549   1.97329   1.98771   2.01424   2.01834
 Alpha virt. eigenvalues --    2.04573   2.06508   2.07681   2.09792   2.10989
 Alpha virt. eigenvalues --    2.13747   2.15144   2.16317   2.17725   2.22421
 Alpha virt. eigenvalues --    2.23948   2.25468   2.26917   2.27386   2.30420
 Alpha virt. eigenvalues --    2.33210   2.35022   2.36129   2.37249   2.38271
 Alpha virt. eigenvalues --    2.39571   2.41721   2.43444   2.44959   2.46193
 Alpha virt. eigenvalues --    2.47836   2.49499   2.51668   2.53944   2.54399
 Alpha virt. eigenvalues --    2.55767   2.57408   2.58527   2.59121   2.59849
 Alpha virt. eigenvalues --    2.60906   2.63594   2.64269   2.65627   2.67043
 Alpha virt. eigenvalues --    2.67614   2.70426   2.70535   2.71449   2.73227
 Alpha virt. eigenvalues --    2.74942   2.76732   2.78527   2.80065   2.81037
 Alpha virt. eigenvalues --    2.82932   2.84159   2.84709   2.86379   2.87509
 Alpha virt. eigenvalues --    2.88746   2.91809   2.93031   2.96080   2.96803
 Alpha virt. eigenvalues --    2.98002   3.00436   3.00970   3.03430   3.06948
 Alpha virt. eigenvalues --    3.07527   3.09035   3.09659   3.10820   3.12343
 Alpha virt. eigenvalues --    3.14169   3.15120   3.16994   3.18432   3.19289
 Alpha virt. eigenvalues --    3.21721   3.22267   3.23362   3.24779   3.25316
 Alpha virt. eigenvalues --    3.26454   3.26751   3.27354   3.28308   3.30129
 Alpha virt. eigenvalues --    3.31893   3.33604   3.34499   3.37031   3.37455
 Alpha virt. eigenvalues --    3.38353   3.38850   3.39813   3.41788   3.43076
 Alpha virt. eigenvalues --    3.45160   3.46356   3.47591   3.49572   3.50597
 Alpha virt. eigenvalues --    3.50860   3.53181   3.55026   3.56071   3.57052
 Alpha virt. eigenvalues --    3.58613   3.60532   3.62466   3.63858   3.64694
 Alpha virt. eigenvalues --    3.68350   3.70103   3.73614   3.76134   3.77198
 Alpha virt. eigenvalues --    3.80744   3.82900   3.84436   3.88065   3.97659
 Alpha virt. eigenvalues --    4.01245   4.02441   4.03428   4.04702   4.08072
 Alpha virt. eigenvalues --    4.09978   4.12101   4.14406   4.15685   4.20667
 Alpha virt. eigenvalues --    4.21041   4.24429   4.26818   4.28904   4.30564
 Alpha virt. eigenvalues --    4.33809   4.36055   4.40175   4.42070   4.47068
 Alpha virt. eigenvalues --    4.48840   4.53642   4.54860   4.59414   4.62446
 Alpha virt. eigenvalues --    4.68783   4.71015   4.75576   4.80950   4.84983
 Alpha virt. eigenvalues --    4.86617   4.88586   4.91918   5.06100   5.09256
 Alpha virt. eigenvalues --    5.26108   5.27410   5.37710   5.49217   5.58751
 Alpha virt. eigenvalues --    5.69347   5.77728   5.90796   5.93381   6.06674
 Alpha virt. eigenvalues --    6.25823   6.29587   6.39841   6.43607   6.49880
 Alpha virt. eigenvalues --    6.53246   6.65454   6.75151   6.85688   6.87566
 Alpha virt. eigenvalues --    7.00570   7.09103   7.14194   7.34273  22.40282
 Alpha virt. eigenvalues --   22.46797  22.49916  22.66811  22.75734  22.79876
 Alpha virt. eigenvalues --   22.98830  23.17527  44.08899  44.39540
          Condensed to atoms (all electrons):
               1          2          3          4          5          6
     1  C    5.212248   0.005286  -0.003608   0.186609   0.446162   0.440692
     2  C    0.005286   5.671059  -0.016146  -0.005588  -0.052572  -0.037783
     3  C   -0.003608  -0.016146   5.109496   0.042694   0.002883   0.002042
     4  C    0.186609  -0.005588   0.042694   6.045055  -0.047164  -0.056943
     5  H    0.446162  -0.052572   0.002883  -0.047164   0.497989  -0.018643
     6  H    0.440692  -0.037783   0.002042  -0.056943  -0.018643   0.502529
     7  H   -0.045346   0.002352  -0.002921   0.409194   0.002439  -0.003362
     8  C    0.025961   0.229940  -0.074941  -0.107582  -0.018279   0.007563
     9  C   -0.041786  -0.032198   0.451374   0.035568   0.001216  -0.000603
    10  H   -0.029313   0.427410   0.000700   0.005025  -0.001410  -0.000577
    11  H    0.000992  -0.002155   0.430324  -0.004220  -0.000031  -0.000040
    12  H   -0.000757   0.007399  -0.027233   0.002640   0.000090   0.000022
    13  H   -0.028694   0.426037  -0.008723  -0.014246   0.002900  -0.004631
    14  H   -0.008536   0.013867   0.433103  -0.010782   0.000016   0.000766
    15  O    0.006391  -0.068993   0.005852   0.002752   0.001920  -0.000157
    16  C   -0.005567   0.002959  -0.000884   0.002346  -0.000979   0.000273
    17  H    0.000093   0.016921  -0.000090  -0.003696  -0.004761   0.000237
    18  H    0.000125  -0.000681   0.000036  -0.000040   0.000029  -0.000002
    19  H    0.001282  -0.008659   0.000177   0.000213   0.001350   0.000000
    20  C    0.022665  -0.030108  -0.008577   0.148157  -0.000744   0.006855
    21  O    0.051236  -0.027761  -0.015269  -0.209919  -0.000450   0.001648
    22  H    0.027476  -0.003003   0.006352  -0.204262   0.000373   0.000168
               7          8          9         10         11         12
     1  C   -0.045346   0.025961  -0.041786  -0.029313   0.000992  -0.000757
     2  C    0.002352   0.229940  -0.032198   0.427410  -0.002155   0.007399
     3  C   -0.002921  -0.074941   0.451374   0.000700   0.430324  -0.027233
     4  C    0.409194  -0.107582   0.035568   0.005025  -0.004220   0.002640
     5  H    0.002439  -0.018279   0.001216  -0.001410  -0.000031   0.000090
     6  H   -0.003362   0.007563  -0.000603  -0.000577  -0.000040   0.000022
     7  H    0.499656   0.000862  -0.000576  -0.000122   0.000263  -0.000117
     8  C    0.000862   5.041177   0.350420  -0.048549   0.010569  -0.051984
     9  C   -0.000576   0.350420   5.154633   0.007134  -0.055171   0.423197
    10  H   -0.000122  -0.048549   0.007134   0.476362  -0.000020  -0.000102
    11  H    0.000263   0.010569  -0.055171  -0.000020   0.492099  -0.006471
    12  H   -0.000117  -0.051984   0.423197  -0.000102  -0.006471   0.481855
    13  H    0.000610  -0.045235   0.004776  -0.010319   0.000451  -0.000197
    14  H   -0.002473  -0.010864  -0.055268   0.000436  -0.021617   0.003214
    15  O   -0.000033   0.311477  -0.056918  -0.002218  -0.000191   0.008460
    16  C   -0.000020  -0.077739   0.004720  -0.002440   0.000025   0.000246
    17  H    0.000004  -0.000557  -0.003724  -0.004409   0.000003  -0.000007
    18  H    0.000000   0.005660   0.000210   0.000225  -0.000000  -0.000190
    19  H   -0.000002  -0.013377   0.002281   0.000695  -0.000002   0.000148
    20  C   -0.023292   0.018585  -0.046578  -0.000466   0.000827  -0.001034
    21  O    0.005227   0.083361  -0.018724   0.000452   0.000316  -0.000778
    22  H   -0.000563   0.002502  -0.006629   0.000044   0.000289  -0.000511
              13         14         15         16         17         18
     1  C   -0.028694  -0.008536   0.006391  -0.005567   0.000093   0.000125
     2  C    0.426037   0.013867  -0.068993   0.002959   0.016921  -0.000681
     3  C   -0.008723   0.433103   0.005852  -0.000884  -0.000090   0.000036
     4  C   -0.014246  -0.010782   0.002752   0.002346  -0.003696  -0.000040
     5  H    0.002900   0.000016   0.001920  -0.000979  -0.004761   0.000029
     6  H   -0.004631   0.000766  -0.000157   0.000273   0.000237  -0.000002
     7  H    0.000610  -0.002473  -0.000033  -0.000020   0.000004   0.000000
     8  C   -0.045235  -0.010864   0.311477  -0.077739  -0.000557   0.005660
     9  C    0.004776  -0.055268  -0.056918   0.004720  -0.003724   0.000210
    10  H   -0.010319   0.000436  -0.002218  -0.002440  -0.004409   0.000225
    11  H    0.000451  -0.021617  -0.000191   0.000025   0.000003  -0.000000
    12  H   -0.000197   0.003214   0.008460   0.000246  -0.000007  -0.000190
    13  H    0.480571  -0.002656   0.002512  -0.000370  -0.000232   0.000027
    14  H   -0.002656   0.519688   0.000041  -0.000007  -0.000021   0.000000
    15  O    0.002512   0.000041   7.930091   0.226997  -0.042184  -0.030491
    16  C   -0.000370  -0.000007   0.226997   4.905089   0.405524   0.403596
    17  H   -0.000232  -0.000021  -0.042184   0.405524   0.542232  -0.015857
    18  H    0.000027   0.000000  -0.030491   0.403596  -0.015857   0.502918
    19  H    0.000081   0.000003  -0.037803   0.420904  -0.055972  -0.022316
    20  C    0.000771  -0.001403   0.003190   0.000323   0.000094  -0.000034
    21  O    0.000456   0.000220  -0.012304  -0.004531   0.005106   0.000072
    22  H   -0.000062  -0.000005   0.000009  -0.000058   0.000091   0.000002
              19         20         21         22
     1  C    0.001282   0.022665   0.051236   0.027476
     2  C   -0.008659  -0.030108  -0.027761  -0.003003
     3  C    0.000177  -0.008577  -0.015269   0.006352
     4  C    0.000213   0.148157  -0.209919  -0.204262
     5  H    0.001350  -0.000744  -0.000450   0.000373
     6  H    0.000000   0.006855   0.001648   0.000168
     7  H   -0.000002  -0.023292   0.005227  -0.000563
     8  C   -0.013377   0.018585   0.083361   0.002502
     9  C    0.002281  -0.046578  -0.018724  -0.006629
    10  H    0.000695  -0.000466   0.000452   0.000044
    11  H   -0.000002   0.000827   0.000316   0.000289
    12  H    0.000148  -0.001034  -0.000778  -0.000511
    13  H    0.000081   0.000771   0.000456  -0.000062
    14  H    0.000003  -0.001403   0.000220  -0.000005
    15  O   -0.037803   0.003190  -0.012304   0.000009
    16  C    0.420904   0.000323  -0.004531  -0.000058
    17  H   -0.055972   0.000094   0.005106   0.000091
    18  H   -0.022316  -0.000034   0.000072   0.000002
    19  H    0.568478   0.000231   0.000190   0.000007
    20  C    0.000231   4.707766   0.596083   0.505190
    21  O    0.000190   0.596083   7.986751  -0.053420
    22  H    0.000007   0.505190  -0.053420   0.632385
 Mulliken charges:
               1
     1  C   -0.263609
     2  C   -0.517584
     3  C   -0.326643
     4  C   -0.215812
     5  H    0.187667
     6  H    0.159945
     7  H    0.158222
     8  C    0.361028
     9  C   -0.117353
    10  H    0.181461
    11  H    0.153761
    12  H    0.162107
    13  H    0.196173
    14  H    0.142279
    15  O   -0.248401
    16  C   -0.280405
    17  H    0.161202
    18  H    0.156712
    19  H    0.142093
    20  C    0.101497
    21  O   -0.387964
    22  H    0.093625
 Sum of Mulliken charges =  -0.00000
 Mulliken charges with hydrogens summed into heavy atoms:
               1
     1  C    0.084003
     2  C   -0.139950
     3  C   -0.030603
     4  C   -0.057590
     8  C    0.361028
     9  C    0.044753
    15  O   -0.248401
    16  C    0.179602
    20  C    0.195123
    21  O   -0.387964
 Electronic spatial extent (au):  <R**2>=           1387.1563
 Charge=             -0.0000 electrons
 Dipole moment (field-independent basis, Debye):
    X=              0.4393    Y=              0.7656    Z=              3.0161  Tot=              3.1426
 Quadrupole moment (field-independent basis, Debye-Ang):
   XX=            -54.2822   YY=            -62.8504   ZZ=            -61.4169
   XY=             -6.3470   XZ=              0.4938   YZ=             -3.9404
 Traceless Quadrupole moment (field-independent basis, Debye-Ang):
   XX=              5.2343   YY=             -3.3339   ZZ=             -1.9004
   XY=             -6.3470   XZ=              0.4938   YZ=             -3.9404
 Octapole moment (field-independent basis, Debye-Ang**2):
  XXX=             18.2056  YYY=             -2.9209  ZZZ=              5.0288  XYY=              3.4094
  XXY=             -4.8374  XXZ=             -5.5118  XZZ=              0.6104  YZZ=              4.3374
  YYZ=             -3.3572  XYZ=              0.6331
 Hexadecapole moment (field-independent basis, Debye-Ang**3):
 XXXX=           -875.0115 YYYY=           -551.6402 ZZZZ=           -398.1029 XXXY=            -36.5185
 XXXZ=             -2.0965 YYYX=            -20.0507 YYYZ=            -10.6862 ZZZX=             -8.1816
 ZZZY=            -11.2830 XXYY=           -244.7615 XXZZ=           -209.3810 YYZZ=           -155.2737
 XXYZ=              7.6624 YYXZ=              0.8548 ZZXY=             -4.4920
 N-N= 5.493472243438D+02 E-N=-2.176902123534D+03  KE= 4.600490654153D+02
 Unable to Open any file for archive entry.
 1\1\GINC-NODE09\SP\RM062X\def2TZVP\C8H12O2\RPATON\21-Jun-2022\0\\# M06
 2X/def2tzvp\\DATS_14_endo_ii_TZVPcreated by GaussianPrep\\0,1\C,0,-0.8
 92267,-1.197547,1.224135\C,0,0.539899,0.151552,1.457718\C,0,-1.270803,
 1.942485,0.091217\C,0,-1.932399,-0.759725,0.400445\H,0,-0.224527,-1.92
 6373,0.775528\H,0,-1.091801,-1.353571,2.281513\H,0,-2.883796,-0.409916
 ,0.78487\C,0,0.839562,0.722757,0.217597\C,0,-0.060126,1.631199,-0.4206
 81\H,0,1.300652,-0.439746,1.956554\H,0,-1.976553,2.534195,-0.482423\H,
 0,0.204994,1.920022,-1.433294\H,0,-0.031637,0.779796,2.130228\H,0,-1.5
 53307,1.715907,1.111349\O,0,1.911474,0.412518,-0.529557\C,0,2.672754,-
 0.71878,-0.159097\H,0,2.034907,-1.607039,-0.122071\H,0,3.424132,-0.841
 909,-0.938084\H,0,3.171291,-0.568521,0.806058\C,0,-1.673717,-0.790886,
 -1.010963\O,0,-0.562334,-1.058664,-1.468103\H,0,-2.504908,-0.520009,-1
 .691167\\Version=AS64L-G16RevC.01\State=1-A\HF=-462.3736681\RMSD=2.319
 e-09\Dipole=0.1728197,0.3012174,1.1866338\Quadrupole=3.8915574,-2.4786
 868,-1.4128705,-4.7188749,0.3670931,-2.9295827\PG=C01 [X(C8H12O2)]\\@
 The archive entry for this job was punched.


 SUPPORT THE RIGHT TO ARM BEARS!
 (ADD A CLAWS TO THE BILL OF RIGHTS)
 Job cpu time:       0 days  0 hours 18 minutes 15.6 seconds.
 Elapsed time:       0 days  0 hours  1 minutes 11.5 seconds.
 File lengths (MBytes):  RWF=     83 Int=      0 D2E=      0 Chk=     10 Scr=      1
 Normal termination of Gaussian 16 at Tue Jun 21 11:25:02 2022.
