Job Start Time: Tue Jun 21 11:23:51 MDT 2022
SLURM Job ID: 40892
SLURM Job Name: DATS_14_endo_i_TZVP
 Entering Gaussian System, Link 0=/opt/apps/Gaussian/G16C/g16/g16
 Initial command:
 /opt/apps/Gaussian/G16C/g16/l1.exe "/tmp/Gau-3376701.inp" -scrdir="/tmp/"
 Entering Link 1 = /opt/apps/Gaussian/G16C/g16/l1.exe PID=   3376702.
  
 Copyright (c) 1988-2019, Gaussian, Inc.  All Rights Reserved.
  
 This is part of the Gaussian(R) 16 program.  It is based on
 the Gaussian(R) 09 system (copyright 2009, Gaussian, Inc.),
 the Gaussian(R) 03 system (copyright 2003, Gaussian, Inc.),
 the Gaussian(R) 98 system (copyright 1998, Gaussian, Inc.),
 the Gaussian(R) 94 system (copyright 1995, Gaussian, Inc.),
 the Gaussian 92(TM) system (copyright 1992, Gaussian, Inc.),
 the Gaussian 90(TM) system (copyright 1990, Gaussian, Inc.),
 the Gaussian 88(TM) system (copyright 1988, Gaussian, Inc.),
 the Gaussian 86(TM) system (copyright 1986, Carnegie Mellon
 University), and the Gaussian 82(TM) system (copyright 1983,
 Carnegie Mellon University). Gaussian is a federally registered
 trademark of Gaussian, Inc.
  
 This software contains proprietary and confidential information,
 including trade secrets, belonging to Gaussian, Inc.
  
 This software is provided under written license and may be
 used, copied, transmitted, or stored only in accord with that
 written license.
  
 The following legend is applicable only to US Government
 contracts under FAR:
  
                    RESTRICTED RIGHTS LEGEND
  
 Use, reproduction and disclosure by the US Government is
 subject to restrictions as set forth in subparagraphs (a)
 and (c) of the Commercial Computer Software - Restricted
 Rights clause in FAR 52.227-19.
  
 Gaussian, Inc.
 340 Quinnipiac St., Bldg. 40, Wallingford CT 06492
  
  
 ---------------------------------------------------------------
 Warning -- This program may not be used in any manner that
 competes with the business of Gaussian, Inc. or will provide
 assistance to any competitor of Gaussian, Inc.  The licensee
 of this program is prohibited from giving any competitor of
 Gaussian, Inc. access to this program.  By using this program,
 the user acknowledges that Gaussian, Inc. is engaged in the
 business of creating and licensing software in the field of
 computational chemistry and represents and warrants to the
 licensee that it is not a competitor of Gaussian, Inc. and that
 it will not use this program in any manner prohibited above.
 ---------------------------------------------------------------
  

 Cite this work as:
 Gaussian 16, Revision C.01,
 M. J. Frisch, G. W. Trucks, H. B. Schlegel, G. E. Scuseria, 
 M. A. Robb, J. R. Cheeseman, G. Scalmani, V. Barone, 
 G. A. Petersson, H. Nakatsuji, X. Li, M. Caricato, A. V. Marenich, 
 J. Bloino, B. G. Janesko, R. Gomperts, B. Mennucci, H. P. Hratchian, 
 J. V. Ortiz, A. F. Izmaylov, J. L. Sonnenberg, D. Williams-Young, 
 F. Ding, F. Lipparini, F. Egidi, J. Goings, B. Peng, A. Petrone, 
 T. Henderson, D. Ranasinghe, V. G. Zakrzewski, J. Gao, N. Rega, 
 G. Zheng, W. Liang, M. Hada, M. Ehara, K. Toyota, R. Fukuda, 
 J. Hasegawa, M. Ishida, T. Nakajima, Y. Honda, O. Kitao, H. Nakai, 
 T. Vreven, K. Throssell, J. A. Montgomery, Jr., J. E. Peralta, 
 F. Ogliaro, M. J. Bearpark, J. J. Heyd, E. N. Brothers, K. N. Kudin, 
 V. N. Staroverov, T. A. Keith, R. Kobayashi, J. Normand, 
 K. Raghavachari, A. P. Rendell, J. C. Burant, S. S. Iyengar, 
 J. Tomasi, M. Cossi, J. M. Millam, M. Klene, C. Adamo, R. Cammi, 
 J. W. Ochterski, R. L. Martin, K. Morokuma, O. Farkas, 
 J. B. Foresman, and D. J. Fox, Gaussian, Inc., Wallingford CT, 2019.
 
 ******************************************
 Gaussian 16:  AS64L-G16RevC.01  3-Jul-2019
                21-Jun-2022 
 ******************************************
 %chk=DATS_14_endo_i_TZVP.chk
 %mem=48GB
 %nprocshared=16
 Will use up to   16 processors via shared memory.
 ----------------
 # M062X/def2tzvp
 ----------------
 1/38=1,172=1/1;
 2/12=2,17=6,18=5,40=1/2;
 3/5=44,7=101,11=2,25=1,30=1,74=-55/1,2,3;
 4//1;
 5/5=2,38=5/2;
 6/7=2,8=2,9=2,10=2,28=1/1;
 99/5=1,9=1/99;
 ------------------------------------------
 DATS_14_endo_i_TZVPcreated by GaussianPrep
 ------------------------------------------
 Symbolic Z-matrix:
 Charge =  0 Multiplicity = 1
 C                    -1.46442  -0.56807  -1.32635 
 C                     0.09333  -1.72764  -0.63331 
 C                    -0.6618   -0.69789   1.96113 
 C                    -2.10543   0.14941  -0.32654 
 H                    -0.79352  -0.00613  -1.97025 
 H                    -1.97319  -1.40925  -1.78957 
 H                    -3.02228  -0.19298   0.14161 
 C                     0.87261  -0.81866   0.0633 
 C                     0.5031   -0.35359   1.37092 
 H                     0.48015  -2.07894  -1.58449 
 H                    -0.94845  -0.2551    2.90938 
 H                     1.11468   0.41255   1.83475 
 H                    -0.51082  -2.43206  -0.07673 
 H                    -1.30902  -1.4761    1.57811 
 O                     1.91672  -0.30717  -0.61036 
 C                     2.5086    0.90066  -0.1528 
 H                     3.06613   0.73688   0.77628 
 H                     3.20547   1.19806  -0.9361 
 H                     1.74024   1.66695  -0.01562 
 C                    -1.52803   1.4075    0.06487 
 O                    -0.44963   1.81659  -0.36431 
 H                    -2.09387   2.01039   0.80269 
 
                          Input orientation:                          
 ---------------------------------------------------------------------
 Center     Atomic      Atomic             Coordinates (Angstroms)
 Number     Number       Type             X           Y           Z
 ---------------------------------------------------------------------
      1          6           0       -1.464415   -0.568069   -1.326353
      2          6           0        0.093334   -1.727641   -0.633314
      3          6           0       -0.661802   -0.697890    1.961129
      4          6           0       -2.105435    0.149406   -0.326537
      5          1           0       -0.793518   -0.006127   -1.970248
      6          1           0       -1.973191   -1.409247   -1.789571
      7          1           0       -3.022283   -0.192977    0.141608
      8          6           0        0.872608   -0.818663    0.063303
      9          6           0        0.503101   -0.353587    1.370921
     10          1           0        0.480154   -2.078938   -1.584489
     11          1           0       -0.948452   -0.255096    2.909377
     12          1           0        1.114683    0.412547    1.834752
     13          1           0       -0.510818   -2.432057   -0.076729
     14          1           0       -1.309017   -1.476100    1.578107
     15          8           0        1.916719   -0.307165   -0.610363
     16          6           0        2.508600    0.900663   -0.152804
     17          1           0        3.066130    0.736876    0.776283
     18          1           0        3.205472    1.198063   -0.936099
     19          1           0        1.740240    1.666946   -0.015622
     20          6           0       -1.528032    1.407502    0.064869
     21          8           0       -0.449631    1.816589   -0.364307
     22          1           0       -2.093868    2.010391    0.802692
 ---------------------------------------------------------------------
                    Distance matrix (angstroms):
                    1          2          3          4          5
     1  C    0.000000
     2  C    2.061915   0.000000
     3  C    3.386529   2.891669   0.000000
     4  C    1.387555   2.907233   2.834679   0.000000
     5  H    1.086500   2.353191   3.993947   2.108815   0.000000
     6  H    1.086740   2.389316   4.036523   2.141811   1.842015
     7  H    2.173144   3.558478   3.022824   1.084895   3.076076
     8  C    2.730498   1.385202   2.443511   3.155610   2.751640
     9  C    3.345506   2.464324   1.350514   3.152590   3.600744
    10  H    2.476027   1.085253   3.972753   3.637751   2.463249
    11  H    4.278502   3.975471   1.085085   3.460256   4.888428
    12  H    4.195943   3.422705   2.098795   3.887103   4.277212
    13  H    2.438311   1.082122   2.680111   3.044529   3.090383
    14  H    3.047057   2.630636   1.082222   2.627588   3.875227
    15  O    3.465946   2.311496   3.662514   4.057923   3.047178
    16  C    4.395366   3.601719   4.132255   4.678022   3.876771
    17  H    5.162344   4.110757   4.166520   5.320378   4.795036
    18  H    5.007930   4.282152   5.190797   5.447658   4.302494
    19  H    4.121058   3.823227   3.907659   4.145939   3.611048
    20  C    2.417111   3.597973   2.962909   1.438540   2.584484
    21  O    2.764401   3.595656   3.431512   2.350024   2.453487
    22  H    3.402573   4.562768   3.275298   2.176823   3.666940
                    6          7          8          9         10
     6  H    0.000000
     7  H    2.511844   0.000000
     8  C    3.446811   3.945604   0.000000
     9  C    4.151524   3.737023   1.436209   0.000000
    10  H    2.551362   4.336280   2.111287   3.422252   0.000000
    11  H    4.945934   3.459072   3.425493   2.117440   5.055902
    12  H    5.098001   4.510863   2.170832   1.084497   4.278006
    13  H    2.473561   3.371736   2.129910   2.728325   1.838494
    14  H    3.433198   2.577831   2.736118   2.141666   3.683281
    15  O    4.211474   4.997223   1.343735   2.434329   2.480286
    16  C    5.301051   5.645653   2.383119   2.813700   3.878445
    17  H    6.048488   6.191624   2.782010   2.848126   4.493253
    18  H    5.860463   6.471582   3.241642   3.877211   4.311207
    19  H    5.138037   5.115238   2.633869   2.745099   4.252153
    20  C    3.401645   2.190938   3.273971   2.988764   4.348386
    21  O    3.841696   3.303459   2.979215   2.937410   4.186702
    22  H    4.292821   2.480689   4.165360   3.557460   5.389511
                   11         12         13         14         15
    11  H    0.000000
    12  H    2.420143   0.000000
    13  H    3.721224   3.793123   0.000000
    14  H    1.842047   3.083371   2.071101   0.000000
    15  O    4.538776   2.672047   3.269995   4.069543   0.000000
    16  C    4.760666   2.476215   4.497743   4.818636   1.420750
    17  H    4.653060   2.243589   4.854310   4.968108   2.081815
    18  H    5.844180   3.558939   5.265653   5.818332   2.008158
    19  H    4.413494   2.321362   4.676839   4.660116   2.069294
    20  C    3.345351   3.332621   3.974542   3.263896   3.906703
    21  O    3.906112   3.042084   4.258807   3.918331   3.189120
    22  H    3.298868   3.730020   4.797371   3.656895   4.842788
                   16         17         18         19         20
    16  C    0.000000
    17  H    1.095841   0.000000
    18  H    1.089784   1.778865   0.000000
    19  H    1.093794   1.802811   1.792773   0.000000
    20  C    4.074146   4.697039   4.842712   3.279541   0.000000
    21  O    3.103995   3.850623   3.750906   2.222501   1.230647
    22  H    4.829822   5.314896   5.636158   3.935477   1.108164
                   21         22
    21  O    0.000000
    22  H    2.025577   0.000000
 Stoichiometry    C8H12O2
 Framework group  C1[X(C8H12O2)]
 Deg. of freedom    60
 Full point group                 C1      NOp   1
 Largest Abelian subgroup         C1      NOp   1
 Largest concise Abelian subgroup C1      NOp   1
                         Standard orientation:                         
 ---------------------------------------------------------------------
 Center     Atomic      Atomic             Coordinates (Angstroms)
 Number     Number       Type             X           Y           Z
 ---------------------------------------------------------------------
      1          6           0       -1.464415   -0.568069   -1.326353
      2          6           0        0.093334   -1.727641   -0.633314
      3          6           0       -0.661802   -0.697890    1.961129
      4          6           0       -2.105435    0.149406   -0.326537
      5          1           0       -0.793518   -0.006127   -1.970248
      6          1           0       -1.973191   -1.409247   -1.789571
      7          1           0       -3.022283   -0.192977    0.141608
      8          6           0        0.872608   -0.818663    0.063303
      9          6           0        0.503101   -0.353587    1.370921
     10          1           0        0.480154   -2.078938   -1.584489
     11          1           0       -0.948452   -0.255096    2.909377
     12          1           0        1.114683    0.412547    1.834752
     13          1           0       -0.510817   -2.432057   -0.076729
     14          1           0       -1.309017   -1.476100    1.578107
     15          8           0        1.916719   -0.307165   -0.610363
     16          6           0        2.508600    0.900663   -0.152804
     17          1           0        3.066130    0.736877    0.776283
     18          1           0        3.205472    1.198064   -0.936099
     19          1           0        1.740240    1.666946   -0.015622
     20          6           0       -1.528032    1.407502    0.064869
     21          8           0       -0.449631    1.816589   -0.364307
     22          1           0       -2.093868    2.010391    0.802692
 ---------------------------------------------------------------------
 Rotational constants (GHZ):           1.7042824           1.1529766           1.0644047
 Standard basis: def2TZVP (5D, 7F)
 There are   432 symmetry adapted cartesian basis functions of A   symmetry.
 There are   382 symmetry adapted basis functions of A   symmetry.
   382 basis functions,   606 primitive gaussians,   432 cartesian basis functions
    38 alpha electrons       38 beta electrons
       nuclear repulsion energy       548.5288563022 Hartrees.
 NAtoms=   22 NActive=   22 NUniq=   22 SFac= 1.00D+00 NAtFMM=   60 NAOKFM=F Big=F
 Integral buffers will be    131072 words long.
 Raffenetti 2 integral format.
 Two-electron integral symmetry is turned on.
 One-electron integrals computed using PRISM.
   1 Symmetry operations used in ECPInt.
 ECPInt:  NShTT=   12561 NPrTT=   37384 LenC2=   12308 LenP2D=   28883.
 LDataN:  DoStor=T MaxTD1= 6 Len=  172
 NBasis=   382 RedAO= T EigKep=  7.28D-05  NBF=   382
 NBsUse=   382 1.00D-06 EigRej= -1.00D+00 NBFU=   382
 ExpMin= 9.52D-02 ExpMax= 2.70D+04 ExpMxC= 9.22D+02 IAcc=3 IRadAn=         5 AccDes= 0.00D+00
 Harris functional with IExCor= 1009 and IRadAn=       5 diagonalized for initial guess.
 HarFok:  IExCor= 1009 AccDes= 0.00D+00 IRadAn=         5 IDoV= 1 UseB2=F ITyADJ=14
 ICtDFT=  3500011 ScaDFX=  1.000000  1.000000  1.000000  1.000000
 FoFCou: FMM=F IPFlag=           0 FMFlag=      100000 FMFlg1=           0
         NFxFlg=           0 DoJE=T BraDBF=F KetDBF=T FulRan=T
         wScrn=  0.000000 ICntrl=       500 IOpCl=  0 I1Cent=   200000004 NGrid=           0
         NMat0=    1 NMatS0=      1 NMatT0=    0 NMatD0=    1 NMtDS0=    0 NMtDT0=    0
 Petite list used in FoFCou.
 Requested convergence on RMS density matrix=1.00D-08 within 128 cycles.
 Requested convergence on MAX density matrix=1.00D-06.
 Requested convergence on             energy=1.00D-06.
 No special actions if energy rises.
 Integral accuracy reduced to 1.0D-05 until final iterations.
 Initial convergence to 1.0D-05 achieved.  Increase integral accuracy.
 SCF Done:  E(RM062X) =  -462.378002978     A.U. after   17 cycles
            NFock= 17  Conv=0.15D-08     -V/T= 2.0051

 **********************************************************************

            Population analysis using the SCF Density.

 **********************************************************************

 Orbital symmetries:
       Occupied  (A) (A) (A) (A) (A) (A) (A) (A) (A) (A) (A) (A)
                 (A) (A) (A) (A) (A) (A) (A) (A) (A) (A) (A) (A)
                 (A) (A) (A) (A) (A) (A) (A) (A) (A) (A) (A) (A)
                 (A) (A)
       Virtual   (A) (A) (A) (A) (A) (A) (A) (A) (A) (A) (A) (A)
                 (A) (A) (A) (A) (A) (A) (A) (A) (A) (A) (A) (A)
                 (A) (A) (A) (A) (A) (A) (A) (A) (A) (A) (A) (A)
                 (A) (A) (A) (A) (A) (A) (A) (A) (A) (A) (A) (A)
                 (A) (A) (A) (A) (A) (A) (A) (A) (A) (A) (A) (A)
                 (A) (A) (A) (A) (A) (A) (A) (A) (A) (A) (A) (A)
                 (A) (A) (A) (A) (A) (A) (A) (A) (A) (A) (A) (A)
                 (A) (A) (A) (A) (A) (A) (A) (A) (A) (A) (A) (A)
                 (A) (A) (A) (A) (A) (A) (A) (A) (A) (A) (A) (A)
                 (A) (A) (A) (A) (A) (A) (A) (A) (A) (A) (A) (A)
                 (A) (A) (A) (A) (A) (A) (A) (A) (A) (A) (A) (A)
                 (A) (A) (A) (A) (A) (A) (A) (A) (A) (A) (A) (A)
                 (A) (A) (A) (A) (A) (A) (A) (A) (A) (A) (A) (A)
                 (A) (A) (A) (A) (A) (A) (A) (A) (A) (A) (A) (A)
                 (A) (A) (A) (A) (A) (A) (A) (A) (A) (A) (A) (A)
                 (A) (A) (A) (A) (A) (A) (A) (A) (A) (A) (A) (A)
                 (A) (A) (A) (A) (A) (A) (A) (A) (A) (A) (A) (A)
                 (A) (A) (A) (A) (A) (A) (A) (A) (A) (A) (A) (A)
                 (A) (A) (A) (A) (A) (A) (A) (A) (A) (A) (A) (A)
                 (A) (A) (A) (A) (A) (A) (A) (A) (A) (A) (A) (A)
                 (A) (A) (A) (A) (A) (A) (A) (A) (A) (A) (A) (A)
                 (A) (A) (A) (A) (A) (A) (A) (A) (A) (A) (A) (A)
                 (A) (A) (A) (A) (A) (A) (A) (A) (A) (A) (A) (A)
                 (A) (A) (A) (A) (A) (A) (A) (A) (A) (A) (A) (A)
                 (A) (A) (A) (A) (A) (A) (A) (A) (A) (A) (A) (A)
                 (A) (A) (A) (A) (A) (A) (A) (A) (A) (A) (A) (A)
                 (A) (A) (A) (A) (A) (A) (A) (A) (A) (A) (A) (A)
                 (A) (A) (A) (A) (A) (A) (A) (A) (A) (A) (A) (A)
                 (A) (A) (A) (A) (A) (A) (A) (A)
 The electronic state is 1-A.
 Alpha  occ. eigenvalues --  -19.66596 -19.58906 -10.62154 -10.59643 -10.58261
 Alpha  occ. eigenvalues --  -10.56013 -10.55687 -10.55350 -10.55080 -10.52495
 Alpha  occ. eigenvalues --   -1.20320  -1.13114  -0.92699  -0.87087  -0.85055
 Alpha  occ. eigenvalues --   -0.78449  -0.73057  -0.72263  -0.62687  -0.61082
 Alpha  occ. eigenvalues --   -0.59246  -0.57769  -0.55762  -0.55609  -0.50357
 Alpha  occ. eigenvalues --   -0.50118  -0.48487  -0.47872  -0.46488  -0.46382
 Alpha  occ. eigenvalues --   -0.44723  -0.43422  -0.42271  -0.39821  -0.36306
 Alpha  occ. eigenvalues --   -0.33382  -0.31111  -0.25004
 Alpha virt. eigenvalues --   -0.03408   0.01682   0.06882   0.08042   0.08921
 Alpha virt. eigenvalues --    0.10123   0.11238   0.11603   0.12559   0.12808
 Alpha virt. eigenvalues --    0.13766   0.14619   0.14986   0.16353   0.16773
 Alpha virt. eigenvalues --    0.18326   0.19992   0.21173   0.21424   0.22477
 Alpha virt. eigenvalues --    0.23646   0.24171   0.24379   0.25768   0.26524
 Alpha virt. eigenvalues --    0.28074   0.29038   0.30296   0.31061   0.31447
 Alpha virt. eigenvalues --    0.34098   0.34299   0.35086   0.35656   0.37309
 Alpha virt. eigenvalues --    0.39171   0.39907   0.40115   0.41069   0.41782
 Alpha virt. eigenvalues --    0.43212   0.43841   0.44383   0.44977   0.45361
 Alpha virt. eigenvalues --    0.46031   0.46893   0.47288   0.48166   0.49006
 Alpha virt. eigenvalues --    0.49680   0.50325   0.50596   0.52530   0.53724
 Alpha virt. eigenvalues --    0.54316   0.54908   0.55632   0.57056   0.58489
 Alpha virt. eigenvalues --    0.60617   0.61233   0.61481   0.63423   0.64519
 Alpha virt. eigenvalues --    0.65038   0.65950   0.67848   0.71092   0.72824
 Alpha virt. eigenvalues --    0.73467   0.74512   0.75946   0.77211   0.78960
 Alpha virt. eigenvalues --    0.80922   0.83676   0.85518   0.86813   0.88361
 Alpha virt. eigenvalues --    0.89034   0.89909   0.91226   0.94010   0.95364
 Alpha virt. eigenvalues --    0.96105   0.96372   0.99703   1.00894   1.01906
 Alpha virt. eigenvalues --    1.02484   1.05021   1.05429   1.08390   1.10006
 Alpha virt. eigenvalues --    1.11272   1.11977   1.13706   1.14767   1.16369
 Alpha virt. eigenvalues --    1.18111   1.19910   1.21503   1.22160   1.24984
 Alpha virt. eigenvalues --    1.25619   1.28621   1.29978   1.31033   1.32128
 Alpha virt. eigenvalues --    1.33800   1.36658   1.37841   1.38690   1.42582
 Alpha virt. eigenvalues --    1.45338   1.49738   1.51901   1.52430   1.52663
 Alpha virt. eigenvalues --    1.53612   1.54762   1.56262   1.58259   1.59094
 Alpha virt. eigenvalues --    1.59723   1.60454   1.61485   1.61927   1.65103
 Alpha virt. eigenvalues --    1.65647   1.66040   1.67460   1.70408   1.71110
 Alpha virt. eigenvalues --    1.73014   1.73806   1.75326   1.77543   1.78041
 Alpha virt. eigenvalues --    1.79241   1.80493   1.83357   1.84110   1.86594
 Alpha virt. eigenvalues --    1.86741   1.89899   1.91315   1.92684   1.94538
 Alpha virt. eigenvalues --    1.95285   1.96179   1.98250   2.01255   2.02760
 Alpha virt. eigenvalues --    2.03461   2.06347   2.08191   2.10081   2.11733
 Alpha virt. eigenvalues --    2.13022   2.15072   2.16485   2.17320   2.22276
 Alpha virt. eigenvalues --    2.24366   2.25792   2.26693   2.27982   2.30044
 Alpha virt. eigenvalues --    2.34076   2.34467   2.35705   2.37911   2.38442
 Alpha virt. eigenvalues --    2.40197   2.40766   2.43761   2.45464   2.46846
 Alpha virt. eigenvalues --    2.47203   2.48908   2.50778   2.51988   2.53952
 Alpha virt. eigenvalues --    2.54318   2.55910   2.58091   2.58789   2.59956
 Alpha virt. eigenvalues --    2.60994   2.62408   2.63835   2.65237   2.66387
 Alpha virt. eigenvalues --    2.67335   2.69114   2.70169   2.71487   2.72983
 Alpha virt. eigenvalues --    2.74486   2.76660   2.77366   2.79130   2.81231
 Alpha virt. eigenvalues --    2.83045   2.84255   2.86609   2.87309   2.87908
 Alpha virt. eigenvalues --    2.89837   2.90520   2.92576   2.94618   2.95510
 Alpha virt. eigenvalues --    2.98334   2.99794   3.01238   3.04933   3.05757
 Alpha virt. eigenvalues --    3.06130   3.07782   3.10677   3.11744   3.12650
 Alpha virt. eigenvalues --    3.14923   3.15956   3.16492   3.18166   3.19358
 Alpha virt. eigenvalues --    3.20567   3.20709   3.22396   3.23799   3.24812
 Alpha virt. eigenvalues --    3.26473   3.26771   3.28276   3.29401   3.29786
 Alpha virt. eigenvalues --    3.31640   3.32612   3.33756   3.36029   3.36316
 Alpha virt. eigenvalues --    3.37010   3.38100   3.38535   3.42110   3.42841
 Alpha virt. eigenvalues --    3.44746   3.46892   3.48152   3.48610   3.49677
 Alpha virt. eigenvalues --    3.51032   3.51933   3.55221   3.55741   3.56460
 Alpha virt. eigenvalues --    3.57477   3.60067   3.60874   3.62725   3.65330
 Alpha virt. eigenvalues --    3.67999   3.69761   3.70856   3.74657   3.76447
 Alpha virt. eigenvalues --    3.80532   3.81360   3.83678   3.87653   3.94570
 Alpha virt. eigenvalues --    3.99841   4.02498   4.02676   4.06246   4.08742
 Alpha virt. eigenvalues --    4.10756   4.11381   4.14567   4.16680   4.17269
 Alpha virt. eigenvalues --    4.22284   4.24001   4.24837   4.28569   4.30422
 Alpha virt. eigenvalues --    4.31162   4.33820   4.40842   4.42282   4.47620
 Alpha virt. eigenvalues --    4.49465   4.53585   4.55358   4.60469   4.66437
 Alpha virt. eigenvalues --    4.69471   4.71255   4.77182   4.81795   4.83749
 Alpha virt. eigenvalues --    4.86395   4.89134   4.91617   5.02703   5.10631
 Alpha virt. eigenvalues --    5.25659   5.26187   5.37233   5.46649   5.58215
 Alpha virt. eigenvalues --    5.68632   5.77771   5.90013   5.93208   6.07393
 Alpha virt. eigenvalues --    6.23574   6.29043   6.39801   6.44793   6.48347
 Alpha virt. eigenvalues --    6.52230   6.65475   6.76349   6.85277   6.87669
 Alpha virt. eigenvalues --    6.99151   7.10881   7.13962   7.34333  22.39110
 Alpha virt. eigenvalues --   22.45921  22.47495  22.63523  22.76248  22.80134
 Alpha virt. eigenvalues --   22.98660  23.15593  44.07896  44.35902
          Condensed to atoms (all electrons):
               1          2          3          4          5          6
     1  C    5.130484   0.091537  -0.001877   0.294713   0.434864   0.431144
     2  C    0.091537   5.428538  -0.022666  -0.022005  -0.060370  -0.034749
     3  C   -0.001877  -0.022666   5.157794   0.046409   0.002670   0.002115
     4  C    0.294713  -0.022005   0.046409   5.851717  -0.056683  -0.050896
     5  H    0.434864  -0.060370   0.002670  -0.056683   0.481019  -0.012668
     6  H    0.431144  -0.034749   0.002115  -0.050896  -0.012668   0.499589
     7  H   -0.039233   0.002287  -0.004880   0.404017   0.002272  -0.004164
     8  C    0.014990   0.319927  -0.047085  -0.075229  -0.017945   0.003970
     9  C   -0.033731  -0.017435   0.392933   0.003003  -0.002837  -0.000483
    10  H   -0.016684   0.423800  -0.000504   0.002242  -0.001498  -0.001807
    11  H    0.000352  -0.000584   0.421535  -0.003102  -0.000012  -0.000037
    12  H   -0.000252   0.004236  -0.019424   0.002116   0.000098   0.000022
    13  H   -0.031332   0.436528  -0.012304  -0.006910   0.003943  -0.001985
    14  H   -0.005550   0.013563   0.442861  -0.011161  -0.000211   0.000472
    15  O   -0.010003  -0.069631   0.008807   0.003750   0.010969   0.000220
    16  C    0.000406  -0.001890  -0.001248  -0.000265   0.002162   0.000056
    17  H   -0.000195  -0.000394   0.001192   0.000195   0.000244   0.000004
    18  H    0.000210  -0.000058   0.000104  -0.000094  -0.000262  -0.000001
    19  H   -0.000582   0.003417  -0.004445   0.002713  -0.002157  -0.000051
    20  C   -0.006608  -0.021780  -0.007753   0.202429   0.005439   0.004293
    21  O    0.013903  -0.010005  -0.020164  -0.168276   0.009074   0.000380
    22  H    0.019963  -0.001437   0.002464  -0.189343   0.001118  -0.000032
               7          8          9         10         11         12
     1  C   -0.039233   0.014990  -0.033731  -0.016684   0.000352  -0.000252
     2  C    0.002287   0.319927  -0.017435   0.423800  -0.000584   0.004236
     3  C   -0.004880  -0.047085   0.392933  -0.000504   0.421535  -0.019424
     4  C    0.404017  -0.075229   0.003003   0.002242  -0.003102   0.002116
     5  H    0.002272  -0.017945  -0.002837  -0.001498  -0.000012   0.000098
     6  H   -0.004164   0.003970  -0.000483  -0.001807  -0.000037   0.000022
     7  H    0.498853   0.000188   0.000612  -0.000062   0.000323  -0.000078
     8  C    0.000188   4.977102   0.290200  -0.045866   0.007027  -0.062246
     9  C    0.000612   0.290200   5.293054   0.005316  -0.045749   0.436036
    10  H   -0.000062  -0.045866   0.005316   0.460302   0.000007  -0.000125
    11  H    0.000323   0.007027  -0.045749   0.000007   0.491544  -0.005653
    12  H   -0.000078  -0.062246   0.436036  -0.000125  -0.005653   0.487955
    13  H    0.000385  -0.065618   0.013703  -0.009819   0.000243   0.000265
    14  H   -0.001838  -0.009254  -0.064118   0.000177  -0.020983   0.003342
    15  O   -0.000050   0.345531  -0.065257   0.005386  -0.000167  -0.002961
    16  C    0.000067  -0.067144  -0.014160   0.000528   0.000030   0.000774
    17  H   -0.000003  -0.015371  -0.004204   0.000055  -0.000009  -0.001475
    18  H   -0.000001   0.004504   0.001496  -0.000156  -0.000002   0.000291
    19  H   -0.000032   0.002843   0.010931   0.000067   0.000075  -0.004156
    20  C   -0.022103   0.015040  -0.046294  -0.000141   0.000348  -0.002020
    21  O    0.004954   0.061122  -0.010211   0.000284   0.000371  -0.002012
    22  H    0.001106   0.003139  -0.004617   0.000030   0.000282  -0.000479
              13         14         15         16         17         18
     1  C   -0.031332  -0.005550  -0.010003   0.000406  -0.000195   0.000210
     2  C    0.436528   0.013563  -0.069631  -0.001890  -0.000394  -0.000058
     3  C   -0.012304   0.442861   0.008807  -0.001248   0.001192   0.000104
     4  C   -0.006910  -0.011161   0.003750  -0.000265   0.000195  -0.000094
     5  H    0.003943  -0.000211   0.010969   0.002162   0.000244  -0.000262
     6  H   -0.001985   0.000472   0.000220   0.000056   0.000004  -0.000001
     7  H    0.000385  -0.001838  -0.000050   0.000067  -0.000003  -0.000001
     8  C   -0.065618  -0.009254   0.345531  -0.067144  -0.015371   0.004504
     9  C    0.013703  -0.064118  -0.065257  -0.014160  -0.004204   0.001496
    10  H   -0.009819   0.000177   0.005386   0.000528   0.000055  -0.000156
    11  H    0.000243  -0.020983  -0.000167   0.000030  -0.000009  -0.000002
    12  H    0.000265   0.003342  -0.002961   0.000774  -0.001475   0.000291
    13  H    0.479293  -0.003515   0.002774  -0.000434   0.000115   0.000006
    14  H   -0.003515   0.515148  -0.000030  -0.000027  -0.000032   0.000005
    15  O    0.002774  -0.000030   7.931662   0.210491  -0.034413  -0.030054
    16  C   -0.000434  -0.000027   0.210491   4.974208   0.420506   0.396807
    17  H    0.000115  -0.000032  -0.034413   0.420506   0.570275  -0.026859
    18  H    0.000006   0.000005  -0.030054   0.396807  -0.026859   0.516780
    19  H   -0.000131   0.000013  -0.043270   0.395292  -0.053390  -0.010706
    20  C    0.000561  -0.001200   0.003438   0.000257   0.000697  -0.000027
    21  O    0.000005   0.000332  -0.005925  -0.019079   0.000278   0.000308
    22  H   -0.000057   0.000076  -0.000057   0.000716   0.000014  -0.000010
              19         20         21         22
     1  C   -0.000582  -0.006608   0.013903   0.019963
     2  C    0.003417  -0.021780  -0.010005  -0.001437
     3  C   -0.004445  -0.007753  -0.020164   0.002464
     4  C    0.002713   0.202429  -0.168276  -0.189343
     5  H   -0.002157   0.005439   0.009074   0.001118
     6  H   -0.000051   0.004293   0.000380  -0.000032
     7  H   -0.000032  -0.022103   0.004954   0.001106
     8  C    0.002843   0.015040   0.061122   0.003139
     9  C    0.010931  -0.046294  -0.010211  -0.004617
    10  H    0.000067  -0.000141   0.000284   0.000030
    11  H    0.000075   0.000348   0.000371   0.000282
    12  H   -0.004156  -0.002020  -0.002012  -0.000479
    13  H   -0.000131   0.000561   0.000005  -0.000057
    14  H    0.000013  -0.001200   0.000332   0.000076
    15  O   -0.043270   0.003438  -0.005925  -0.000057
    16  C    0.395292   0.000257  -0.019079   0.000716
    17  H   -0.053390   0.000697   0.000278   0.000014
    18  H   -0.010706  -0.000027   0.000308  -0.000010
    19  H    0.515027  -0.008822   0.011505  -0.001191
    20  C   -0.008822   4.682661   0.575582   0.496268
    21  O    0.011505   0.575582   8.023013  -0.057627
    22  H   -0.001191   0.496268  -0.057627   0.635969
 Mulliken charges:
               1
     1  C   -0.286518
     2  C   -0.460829
     3  C   -0.336535
     4  C   -0.229343
     5  H    0.200771
     6  H    0.164606
     7  H    0.157378
     8  C    0.360174
     9  C   -0.138187
    10  H    0.178468
    11  H    0.154161
    12  H    0.165744
    13  H    0.194284
    14  H    0.141931
    15  O   -0.261212
    16  C   -0.298053
    17  H    0.142770
    18  H    0.147719
    19  H    0.187048
    20  C    0.129733
    21  O   -0.407814
    22  H    0.093705
 Sum of Mulliken charges =  -0.00000
 Mulliken charges with hydrogens summed into heavy atoms:
               1
     1  C    0.078859
     2  C   -0.088077
     3  C   -0.040443
     4  C   -0.071965
     8  C    0.360174
     9  C    0.027557
    15  O   -0.261212
    16  C    0.179484
    20  C    0.223438
    21  O   -0.407814
 Electronic spatial extent (au):  <R**2>=           1381.0496
 Charge=             -0.0000 electrons
 Dipole moment (field-independent basis, Debye):
    X=             -0.2201    Y=             -1.9358    Z=              1.3359  Tot=              2.3623
 Quadrupole moment (field-independent basis, Debye-Ang):
   XX=            -56.7469   YY=            -63.7587   ZZ=            -58.7867
   XY=              5.3389   XZ=             -0.9345   YZ=              3.9100
 Traceless Quadrupole moment (field-independent basis, Debye-Ang):
   XX=              3.0172   YY=             -3.9946   ZZ=              0.9774
   XY=              5.3389   XZ=             -0.9345   YZ=              3.9100
 Octapole moment (field-independent basis, Debye-Ang**2):
  XXX=             15.8469  YYY=             -7.1627  ZZZ=             -2.7638  XYY=             -0.9489
  XXY=             10.5391  XXZ=              4.5481  XZZ=              0.8718  YZZ=              2.3287
  YYZ=             -2.4914  XYZ=             -2.6872
 Hexadecapole moment (field-independent basis, Debye-Ang**3):
 XXXX=           -876.0814 YYYY=           -530.5930 ZZZZ=           -426.9753 XXXY=             30.2314
 XXXZ=            -19.1256 YYYX=              9.2319 YYYZ=             14.9511 ZZZX=            -16.1255
 ZZZY=             16.4633 XXYY=           -222.6921 XXZZ=           -223.1221 YYZZ=           -159.6595
 XXYZ=              1.3975 YYXZ=             -8.0064 ZZXY=              8.1632
 N-N= 5.485288563022D+02 E-N=-2.175280136736D+03  KE= 4.600535041449D+02
 Unable to Open any file for archive entry.
 1\1\GINC-NODE11\SP\RM062X\def2TZVP\C8H12O2\RPATON\21-Jun-2022\0\\# M06
 2X/def2tzvp\\DATS_14_endo_i_TZVPcreated by GaussianPrep\\0,1\C,0,-1.46
 4415,-0.568069,-1.326353\C,0,0.093334,-1.727641,-0.633314\C,0,-0.66180
 2,-0.69789,1.961129\C,0,-2.105435,0.149406,-0.326537\H,0,-0.793518,-0.
 006127,-1.970248\H,0,-1.973191,-1.409247,-1.789571\H,0,-3.022283,-0.19
 2977,0.141608\C,0,0.872608,-0.818663,0.063303\C,0,0.503101,-0.353587,1
 .370921\H,0,0.480154,-2.078938,-1.584489\H,0,-0.948452,-0.255096,2.909
 377\H,0,1.114683,0.412547,1.834752\H,0,-0.510818,-2.432057,-0.076729\H
 ,0,-1.309017,-1.4761,1.578107\O,0,1.916719,-0.307165,-0.610363\C,0,2.5
 086,0.900663,-0.152804\H,0,3.06613,0.736876,0.776283\H,0,3.205472,1.19
 8063,-0.936099\H,0,1.74024,1.666946,-0.015622\C,0,-1.528032,1.407502,0
 .064869\O,0,-0.449631,1.816589,-0.364307\H,0,-2.093868,2.010391,0.8026
 92\\Version=AS64L-G16RevC.01\State=1-A\HF=-462.378003\RMSD=1.548e-09\D
 ipole=-0.086587,-0.7616179,0.5255653\Quadrupole=2.2432122,-2.969894,0.
 7266818,3.9693757,-0.6947435,2.9069918\PG=C01 [X(C8H12O2)]\\@
 The archive entry for this job was punched.


 YOU ARE IN A MAZE OF TWISTY LITTLE PASSAGES.
 Job cpu time:       0 days  0 hours 18 minutes 14.8 seconds.
 Elapsed time:       0 days  0 hours  1 minutes 11.5 seconds.
 File lengths (MBytes):  RWF=     83 Int=      0 D2E=      0 Chk=     10 Scr=      1
 Normal termination of Gaussian 16 at Tue Jun 21 11:25:03 2022.
