Job Start Time: Tue Jun 21 11:24:56 MDT 2022
SLURM Job ID: 40897
SLURM Job Name: DATS_14_exo_iv_TZVP
 Entering Gaussian System, Link 0=/opt/apps/Gaussian/G16C/g16/g16
 Initial command:
 /opt/apps/Gaussian/G16C/g16/l1.exe "/tmp/Gau-3377192.inp" -scrdir="/tmp/"
 Entering Link 1 = /opt/apps/Gaussian/G16C/g16/l1.exe PID=   3377193.
  
 Copyright (c) 1988-2019, Gaussian, Inc.  All Rights Reserved.
  
 This is part of the Gaussian(R) 16 program.  It is based on
 the Gaussian(R) 09 system (copyright 2009, Gaussian, Inc.),
 the Gaussian(R) 03 system (copyright 2003, Gaussian, Inc.),
 the Gaussian(R) 98 system (copyright 1998, Gaussian, Inc.),
 the Gaussian(R) 94 system (copyright 1995, Gaussian, Inc.),
 the Gaussian 92(TM) system (copyright 1992, Gaussian, Inc.),
 the Gaussian 90(TM) system (copyright 1990, Gaussian, Inc.),
 the Gaussian 88(TM) system (copyright 1988, Gaussian, Inc.),
 the Gaussian 86(TM) system (copyright 1986, Carnegie Mellon
 University), and the Gaussian 82(TM) system (copyright 1983,
 Carnegie Mellon University). Gaussian is a federally registered
 trademark of Gaussian, Inc.
  
 This software contains proprietary and confidential information,
 including trade secrets, belonging to Gaussian, Inc.
  
 This software is provided under written license and may be
 used, copied, transmitted, or stored only in accord with that
 written license.
  
 The following legend is applicable only to US Government
 contracts under FAR:
  
                    RESTRICTED RIGHTS LEGEND
  
 Use, reproduction and disclosure by the US Government is
 subject to restrictions as set forth in subparagraphs (a)
 and (c) of the Commercial Computer Software - Restricted
 Rights clause in FAR 52.227-19.
  
 Gaussian, Inc.
 340 Quinnipiac St., Bldg. 40, Wallingford CT 06492
  
  
 ---------------------------------------------------------------
 Warning -- This program may not be used in any manner that
 competes with the business of Gaussian, Inc. or will provide
 assistance to any competitor of Gaussian, Inc.  The licensee
 of this program is prohibited from giving any competitor of
 Gaussian, Inc. access to this program.  By using this program,
 the user acknowledges that Gaussian, Inc. is engaged in the
 business of creating and licensing software in the field of
 computational chemistry and represents and warrants to the
 licensee that it is not a competitor of Gaussian, Inc. and that
 it will not use this program in any manner prohibited above.
 ---------------------------------------------------------------
  

 Cite this work as:
 Gaussian 16, Revision C.01,
 M. J. Frisch, G. W. Trucks, H. B. Schlegel, G. E. Scuseria, 
 M. A. Robb, J. R. Cheeseman, G. Scalmani, V. Barone, 
 G. A. Petersson, H. Nakatsuji, X. Li, M. Caricato, A. V. Marenich, 
 J. Bloino, B. G. Janesko, R. Gomperts, B. Mennucci, H. P. Hratchian, 
 J. V. Ortiz, A. F. Izmaylov, J. L. Sonnenberg, D. Williams-Young, 
 F. Ding, F. Lipparini, F. Egidi, J. Goings, B. Peng, A. Petrone, 
 T. Henderson, D. Ranasinghe, V. G. Zakrzewski, J. Gao, N. Rega, 
 G. Zheng, W. Liang, M. Hada, M. Ehara, K. Toyota, R. Fukuda, 
 J. Hasegawa, M. Ishida, T. Nakajima, Y. Honda, O. Kitao, H. Nakai, 
 T. Vreven, K. Throssell, J. A. Montgomery, Jr., J. E. Peralta, 
 F. Ogliaro, M. J. Bearpark, J. J. Heyd, E. N. Brothers, K. N. Kudin, 
 V. N. Staroverov, T. A. Keith, R. Kobayashi, J. Normand, 
 K. Raghavachari, A. P. Rendell, J. C. Burant, S. S. Iyengar, 
 J. Tomasi, M. Cossi, J. M. Millam, M. Klene, C. Adamo, R. Cammi, 
 J. W. Ochterski, R. L. Martin, K. Morokuma, O. Farkas, 
 J. B. Foresman, and D. J. Fox, Gaussian, Inc., Wallingford CT, 2019.
 
 ******************************************
 Gaussian 16:  AS64L-G16RevC.01  3-Jul-2019
                21-Jun-2022 
 ******************************************
 %chk=DATS_14_exo_iv_TZVP.chk
 %mem=48GB
 %nprocshared=16
 Will use up to   16 processors via shared memory.
 ----------------
 # M062X/def2tzvp
 ----------------
 1/38=1,172=1/1;
 2/12=2,17=6,18=5,40=1/2;
 3/5=44,7=101,11=2,25=1,30=1,74=-55/1,2,3;
 4//1;
 5/5=2,38=5/2;
 6/7=2,8=2,9=2,10=2,28=1/1;
 99/5=1,9=1/99;
 ------------------------------------------
 DATS_14_exo_iv_TZVPcreated by GaussianPrep
 ------------------------------------------
 Symbolic Z-matrix:
 Charge =  0 Multiplicity = 1
 C                    -0.55011  -1.46263  -0.28026 
 C                     0.92432  -0.64324   0.9763 
 C                    -0.79943   1.53281   0.37547 
 C                    -1.52191  -0.52855  -0.62626 
 H                     0.15354  -1.79909  -1.03409 
 H                    -0.80833  -2.2161    0.46192 
 H                    -1.50437  -0.02427  -1.58561 
 C                     1.37154   0.45728   0.25726 
 C                     0.49714   1.52398  -0.05277 
 H                     1.58517  -1.48023   1.17233 
 H                    -1.50989   2.25892  -0.00646 
 H                     0.82407   2.20247  -0.83583 
 H                     0.19083  -0.46643   1.75205 
 H                    -1.10011   1.03415   1.28935 
 O                     2.53789   0.48311  -0.43826 
 C                     3.46255  -0.55828  -0.21197 
 H                     3.07454  -1.52194  -0.56344 
 H                     4.35425  -0.30115  -0.78315 
 H                     3.71618  -0.63866   0.85172 
 C                    -2.77998  -0.48695   0.11467 
 O                    -3.76615   0.14751  -0.19703 
 H                    -2.77441  -1.09918   1.04876 
 
                          Input orientation:                          
 ---------------------------------------------------------------------
 Center     Atomic      Atomic             Coordinates (Angstroms)
 Number     Number       Type             X           Y           Z
 ---------------------------------------------------------------------
      1          6           0       -0.550114   -1.462630   -0.280255
      2          6           0        0.924316   -0.643239    0.976302
      3          6           0       -0.799432    1.532811    0.375473
      4          6           0       -1.521912   -0.528551   -0.626264
      5          1           0        0.153542   -1.799091   -1.034087
      6          1           0       -0.808327   -2.216096    0.461924
      7          1           0       -1.504371   -0.024268   -1.585608
      8          6           0        1.371535    0.457279    0.257259
      9          6           0        0.497136    1.523978   -0.052766
     10          1           0        1.585169   -1.480232    1.172328
     11          1           0       -1.509892    2.258919   -0.006455
     12          1           0        0.824066    2.202470   -0.835828
     13          1           0        0.190830   -0.466432    1.752045
     14          1           0       -1.100105    1.034154    1.289354
     15          8           0        2.537886    0.483114   -0.438258
     16          6           0        3.462554   -0.558275   -0.211973
     17          1           0        3.074543   -1.521942   -0.563440
     18          1           0        4.354252   -0.301154   -0.783151
     19          1           0        3.716180   -0.638663    0.851718
     20          6           0       -2.779975   -0.486953    0.114674
     21          8           0       -3.766151    0.147509   -0.197025
     22          1           0       -2.774411   -1.099175    1.048765
 ---------------------------------------------------------------------
                    Distance matrix (angstroms):
                    1          2          3          4          5
     1  C    0.000000
     2  C    2.103397   0.000000
     3  C    3.076492   2.840334   0.000000
     4  C    1.391624   2.926671   2.403054   0.000000
     5  H    1.084712   2.443717   3.741202   2.141900   0.000000
     6  H    1.088676   2.395937   3.749914   2.131001   1.826782
     7  H    2.164125   3.583996   2.601398   1.083951   2.490552
     8  C    2.769062   1.388585   2.425663   3.181903   2.870938
     9  C    3.173060   2.436861   1.365487   2.935699   3.481930
    10  H    2.582584   1.084302   3.924249   3.714106   2.649433
    11  H    3.853059   3.913272   1.085290   2.855573   4.504496
    12  H    3.953478   3.375193   2.133410   3.606384   4.062191
    13  H    2.381523   1.082146   2.621553   2.931501   3.088673
    14  H    3.000015   2.647627   1.083624   2.507900   3.872633
    15  O    3.653304   2.423481   3.591896   4.188170   3.353889
    16  C    4.113882   2.803902   4.783540   5.001742   3.628368
    17  H    3.636186   2.786826   5.022027   4.702996   2.971627
    18  H    5.065051   3.870033   5.591627   5.882655   4.466850
    19  H    4.490161   2.794646   5.033176   5.443727   4.194668
    20  C    2.465805   3.806389   2.840777   1.460631   3.412753
    21  O    3.597550   4.899230   3.323889   2.382837   4.455774
    22  H    2.616465   3.727427   3.358752   2.167969   3.660746
                    6          7          8          9         10
     6  H    0.000000
     7  H    3.079119   0.000000
     8  C    3.455520   3.449476   0.000000
     9  C    3.994658   2.958496   1.413696   0.000000
    10  H    2.602882   4.389909   2.153355   3.421980   0.000000
    11  H    4.553826   2.776094   3.408529   2.137860   4.995016
    12  H    4.885959   3.307892   2.130787   1.086472   4.263128
    13  H    2.392499   3.769502   2.117001   2.704237   1.818803
    14  H    3.366586   3.090161   2.739892   2.142987   3.680561
    15  O    4.392403   4.232457   1.358229   2.323072   2.712266
    16  C    4.630651   5.180963   2.371474   3.626959   2.508160
    17  H    4.075525   4.924866   2.736987   4.022616   2.287546
    18  H    5.645302   5.919803   3.248734   4.329193   3.589142
    19  H    4.807432   5.794152   2.655528   3.982129   2.313490
    20  C    2.645357   2.175362   4.259923   3.848550   4.599969
    21  O    3.843119   2.659571   5.167025   4.482309   5.758584
    22  H    2.336104   3.115822   4.498655   4.335588   4.377946
                   11         12         13         14         15
    11  H    0.000000
    12  H    2.477581   0.000000
    13  H    3.662283   3.771089   0.000000
    14  H    1.829507   3.095770   2.032819   0.000000
    15  O    4.441221   2.459965   3.347796   4.064882   0.000000
    16  C    5.718745   3.869435   3.817064   5.060402   1.410924
    17  H    5.968432   4.360056   3.845955   5.233943   2.079404
    18  H    6.445573   4.328178   4.877358   5.985677   2.008286
    19  H    6.036909   4.391375   3.642574   5.117269   2.076246
    20  C    3.027804   4.596255   3.392210   2.552568   5.433821
    21  O    3.095977   5.069618   4.453481   3.178563   6.317571
    22  H    3.740226   5.234653   3.112494   2.722550   5.738935
                   16         17         18         19         20
    16  C    0.000000
    17  H    1.096693   0.000000
    18  H    1.089716   1.782204   0.000000
    19  H    1.096461   1.787331   1.787133   0.000000
    20  C    6.251476   5.983847   7.192900   6.539593   0.000000
    21  O    7.263094   7.050987   8.153882   7.596263   1.213360
    22  H    6.386060   6.081792   7.403417   6.509890   1.116858
                   21         22
    21  O    0.000000
    22  H    2.022316   0.000000
 Stoichiometry    C8H12O2
 Framework group  C1[X(C8H12O2)]
 Deg. of freedom    60
 Full point group                 C1      NOp   1
 Largest Abelian subgroup         C1      NOp   1
 Largest concise Abelian subgroup C1      NOp   1
                         Standard orientation:                         
 ---------------------------------------------------------------------
 Center     Atomic      Atomic             Coordinates (Angstroms)
 Number     Number       Type             X           Y           Z
 ---------------------------------------------------------------------
      1          6           0       -0.550114   -1.462630   -0.280255
      2          6           0        0.924316   -0.643239    0.976302
      3          6           0       -0.799432    1.532811    0.375473
      4          6           0       -1.521912   -0.528551   -0.626264
      5          1           0        0.153542   -1.799091   -1.034087
      6          1           0       -0.808327   -2.216096    0.461924
      7          1           0       -1.504371   -0.024268   -1.585608
      8          6           0        1.371535    0.457279    0.257259
      9          6           0        0.497136    1.523978   -0.052766
     10          1           0        1.585169   -1.480232    1.172328
     11          1           0       -1.509892    2.258919   -0.006455
     12          1           0        0.824066    2.202470   -0.835828
     13          1           0        0.190830   -0.466432    1.752045
     14          1           0       -1.100105    1.034154    1.289354
     15          8           0        2.537886    0.483114   -0.438258
     16          6           0        3.462554   -0.558275   -0.211973
     17          1           0        3.074543   -1.521942   -0.563440
     18          1           0        4.354252   -0.301154   -0.783151
     19          1           0        3.716180   -0.638663    0.851718
     20          6           0       -2.779975   -0.486953    0.114674
     21          8           0       -3.766151    0.147509   -0.197025
     22          1           0       -2.774411   -1.099175    1.048765
 ---------------------------------------------------------------------
 Rotational constants (GHZ):           3.0407978           0.6841858           0.6087599
 Standard basis: def2TZVP (5D, 7F)
 There are   432 symmetry adapted cartesian basis functions of A   symmetry.
 There are   382 symmetry adapted basis functions of A   symmetry.
   382 basis functions,   606 primitive gaussians,   432 cartesian basis functions
    38 alpha electrons       38 beta electrons
       nuclear repulsion energy       520.1001054510 Hartrees.
 NAtoms=   22 NActive=   22 NUniq=   22 SFac= 1.00D+00 NAtFMM=   60 NAOKFM=F Big=F
 Integral buffers will be    131072 words long.
 Raffenetti 2 integral format.
 Two-electron integral symmetry is turned on.
 One-electron integrals computed using PRISM.
   1 Symmetry operations used in ECPInt.
 ECPInt:  NShTT=   12561 NPrTT=   37384 LenC2=   12004 LenP2D=   27887.
 LDataN:  DoStor=T MaxTD1= 6 Len=  172
 NBasis=   382 RedAO= T EigKep=  5.40D-05  NBF=   382
 NBsUse=   382 1.00D-06 EigRej= -1.00D+00 NBFU=   382
 ExpMin= 9.52D-02 ExpMax= 2.70D+04 ExpMxC= 9.22D+02 IAcc=3 IRadAn=         5 AccDes= 0.00D+00
 Harris functional with IExCor= 1009 and IRadAn=       5 diagonalized for initial guess.
 HarFok:  IExCor= 1009 AccDes= 0.00D+00 IRadAn=         5 IDoV= 1 UseB2=F ITyADJ=14
 ICtDFT=  3500011 ScaDFX=  1.000000  1.000000  1.000000  1.000000
 FoFCou: FMM=F IPFlag=           0 FMFlag=      100000 FMFlg1=           0
         NFxFlg=           0 DoJE=T BraDBF=F KetDBF=T FulRan=T
         wScrn=  0.000000 ICntrl=       500 IOpCl=  0 I1Cent=   200000004 NGrid=           0
         NMat0=    1 NMatS0=      1 NMatT0=    0 NMatD0=    1 NMtDS0=    0 NMtDT0=    0
 Petite list used in FoFCou.
 Requested convergence on RMS density matrix=1.00D-08 within 128 cycles.
 Requested convergence on MAX density matrix=1.00D-06.
 Requested convergence on             energy=1.00D-06.
 No special actions if energy rises.
 Integral accuracy reduced to 1.0D-05 until final iterations.
 Initial convergence to 1.0D-05 achieved.  Increase integral accuracy.
 SCF Done:  E(RM062X) =  -462.369142144     A.U. after   17 cycles
            NFock= 17  Conv=0.14D-08     -V/T= 2.0051

 **********************************************************************

            Population analysis using the SCF Density.

 **********************************************************************

 Orbital symmetries:
       Occupied  (A) (A) (A) (A) (A) (A) (A) (A) (A) (A) (A) (A)
                 (A) (A) (A) (A) (A) (A) (A) (A) (A) (A) (A) (A)
                 (A) (A) (A) (A) (A) (A) (A) (A) (A) (A) (A) (A)
                 (A) (A)
       Virtual   (A) (A) (A) (A) (A) (A) (A) (A) (A) (A) (A) (A)
                 (A) (A) (A) (A) (A) (A) (A) (A) (A) (A) (A) (A)
                 (A) (A) (A) (A) (A) (A) (A) (A) (A) (A) (A) (A)
                 (A) (A) (A) (A) (A) (A) (A) (A) (A) (A) (A) (A)
                 (A) (A) (A) (A) (A) (A) (A) (A) (A) (A) (A) (A)
                 (A) (A) (A) (A) (A) (A) (A) (A) (A) (A) (A) (A)
                 (A) (A) (A) (A) (A) (A) (A) (A) (A) (A) (A) (A)
                 (A) (A) (A) (A) (A) (A) (A) (A) (A) (A) (A) (A)
                 (A) (A) (A) (A) (A) (A) (A) (A) (A) (A) (A) (A)
                 (A) (A) (A) (A) (A) (A) (A) (A) (A) (A) (A) (A)
                 (A) (A) (A) (A) (A) (A) (A) (A) (A) (A) (A) (A)
                 (A) (A) (A) (A) (A) (A) (A) (A) (A) (A) (A) (A)
                 (A) (A) (A) (A) (A) (A) (A) (A) (A) (A) (A) (A)
                 (A) (A) (A) (A) (A) (A) (A) (A) (A) (A) (A) (A)
                 (A) (A) (A) (A) (A) (A) (A) (A) (A) (A) (A) (A)
                 (A) (A) (A) (A) (A) (A) (A) (A) (A) (A) (A) (A)
                 (A) (A) (A) (A) (A) (A) (A) (A) (A) (A) (A) (A)
                 (A) (A) (A) (A) (A) (A) (A) (A) (A) (A) (A) (A)
                 (A) (A) (A) (A) (A) (A) (A) (A) (A) (A) (A) (A)
                 (A) (A) (A) (A) (A) (A) (A) (A) (A) (A) (A) (A)
                 (A) (A) (A) (A) (A) (A) (A) (A) (A) (A) (A) (A)
                 (A) (A) (A) (A) (A) (A) (A) (A) (A) (A) (A) (A)
                 (A) (A) (A) (A) (A) (A) (A) (A) (A) (A) (A) (A)
                 (A) (A) (A) (A) (A) (A) (A) (A) (A) (A) (A) (A)
                 (A) (A) (A) (A) (A) (A) (A) (A) (A) (A) (A) (A)
                 (A) (A) (A) (A) (A) (A) (A) (A) (A) (A) (A) (A)
                 (A) (A) (A) (A) (A) (A) (A) (A) (A) (A) (A) (A)
                 (A) (A) (A) (A) (A) (A) (A) (A) (A) (A) (A) (A)
                 (A) (A) (A) (A) (A) (A) (A) (A)
 The electronic state is 1-A.
 Alpha  occ. eigenvalues --  -19.67260 -19.60148 -10.61818 -10.61120 -10.60352
 Alpha  occ. eigenvalues --  -10.56609 -10.56382 -10.55987 -10.54692 -10.54032
 Alpha  occ. eigenvalues --   -1.20980  -1.14764  -0.93539  -0.88105  -0.83847
 Alpha  occ. eigenvalues --   -0.82074  -0.72502  -0.71549  -0.64515  -0.63224
 Alpha  occ. eigenvalues --   -0.60211  -0.57823  -0.56604  -0.53676  -0.53234
 Alpha  occ. eigenvalues --   -0.51643  -0.48828  -0.48418  -0.46891  -0.46459
 Alpha  occ. eigenvalues --   -0.44899  -0.44506  -0.43961  -0.41666  -0.38668
 Alpha  occ. eigenvalues --   -0.31828  -0.31463  -0.26549
 Alpha virt. eigenvalues --   -0.02347   0.00994   0.05251   0.06700   0.07865
 Alpha virt. eigenvalues --    0.08919   0.09511   0.10613   0.11840   0.12746
 Alpha virt. eigenvalues --    0.13266   0.13677   0.14731   0.15293   0.16205
 Alpha virt. eigenvalues --    0.17443   0.18337   0.20781   0.21444   0.21697
 Alpha virt. eigenvalues --    0.22849   0.23279   0.23936   0.25793   0.26539
 Alpha virt. eigenvalues --    0.27510   0.28641   0.28992   0.30717   0.31558
 Alpha virt. eigenvalues --    0.32946   0.33450   0.34339   0.35876   0.36126
 Alpha virt. eigenvalues --    0.36547   0.38359   0.39985   0.40981   0.41530
 Alpha virt. eigenvalues --    0.42019   0.42404   0.43500   0.43883   0.44722
 Alpha virt. eigenvalues --    0.46058   0.46330   0.46736   0.48039   0.48350
 Alpha virt. eigenvalues --    0.48956   0.49508   0.50196   0.51835   0.52224
 Alpha virt. eigenvalues --    0.53432   0.54540   0.55733   0.57130   0.57882
 Alpha virt. eigenvalues --    0.58725   0.60008   0.60460   0.61230   0.63433
 Alpha virt. eigenvalues --    0.64671   0.65941   0.66613   0.68260   0.68793
 Alpha virt. eigenvalues --    0.70911   0.71492   0.73935   0.74701   0.76950
 Alpha virt. eigenvalues --    0.77552   0.81299   0.82112   0.83384   0.84289
 Alpha virt. eigenvalues --    0.87270   0.90261   0.90759   0.92987   0.94212
 Alpha virt. eigenvalues --    0.96284   0.96325   0.99988   1.00194   1.01210
 Alpha virt. eigenvalues --    1.01557   1.02222   1.02806   1.06666   1.07794
 Alpha virt. eigenvalues --    1.08258   1.10018   1.10812   1.11697   1.14161
 Alpha virt. eigenvalues --    1.17879   1.18924   1.20055   1.21044   1.22974
 Alpha virt. eigenvalues --    1.23277   1.26483   1.26637   1.29302   1.31503
 Alpha virt. eigenvalues --    1.36210   1.36388   1.37987   1.40215   1.42298
 Alpha virt. eigenvalues --    1.43671   1.47056   1.48429   1.50005   1.50812
 Alpha virt. eigenvalues --    1.53005   1.53623   1.54454   1.55365   1.56984
 Alpha virt. eigenvalues --    1.57763   1.59185   1.59463   1.61882   1.62592
 Alpha virt. eigenvalues --    1.64245   1.65360   1.66594   1.69198   1.69462
 Alpha virt. eigenvalues --    1.69646   1.70987   1.72352   1.73950   1.74829
 Alpha virt. eigenvalues --    1.77610   1.80027   1.80354   1.83784   1.84609
 Alpha virt. eigenvalues --    1.85874   1.88174   1.90274   1.91502   1.94117
 Alpha virt. eigenvalues --    1.96093   1.97256   1.99500   2.01160   2.02844
 Alpha virt. eigenvalues --    2.03753   2.05192   2.07924   2.09867   2.10540
 Alpha virt. eigenvalues --    2.12406   2.13159   2.16415   2.19381   2.20900
 Alpha virt. eigenvalues --    2.23993   2.25731   2.26902   2.28107   2.28897
 Alpha virt. eigenvalues --    2.30298   2.30741   2.32115   2.35027   2.36068
 Alpha virt. eigenvalues --    2.37550   2.39581   2.41606   2.42887   2.45029
 Alpha virt. eigenvalues --    2.46186   2.46859   2.48215   2.50120   2.52534
 Alpha virt. eigenvalues --    2.53928   2.55262   2.56089   2.56408   2.58515
 Alpha virt. eigenvalues --    2.60221   2.61364   2.62921   2.64024   2.65973
 Alpha virt. eigenvalues --    2.67588   2.68758   2.70099   2.70987   2.72200
 Alpha virt. eigenvalues --    2.72377   2.76586   2.76917   2.77526   2.80485
 Alpha virt. eigenvalues --    2.81981   2.82380   2.83049   2.84981   2.85213
 Alpha virt. eigenvalues --    2.88875   2.91539   2.92514   2.94564   2.95011
 Alpha virt. eigenvalues --    2.96678   3.00820   3.01801   3.02485   3.04866
 Alpha virt. eigenvalues --    3.06281   3.07299   3.08237   3.10053   3.11079
 Alpha virt. eigenvalues --    3.13206   3.13810   3.14358   3.16810   3.17100
 Alpha virt. eigenvalues --    3.18466   3.19284   3.20355   3.22022   3.24066
 Alpha virt. eigenvalues --    3.25059   3.26360   3.27524   3.28567   3.29207
 Alpha virt. eigenvalues --    3.31201   3.31515   3.33482   3.34455   3.35843
 Alpha virt. eigenvalues --    3.36054   3.38269   3.39354   3.40023   3.40643
 Alpha virt. eigenvalues --    3.42492   3.43940   3.45253   3.46113   3.49470
 Alpha virt. eigenvalues --    3.50275   3.52139   3.52843   3.55224   3.56131
 Alpha virt. eigenvalues --    3.57180   3.59824   3.61015   3.61833   3.65331
 Alpha virt. eigenvalues --    3.65788   3.67745   3.72341   3.74205   3.77823
 Alpha virt. eigenvalues --    3.78333   3.84804   3.85936   3.88246   3.92827
 Alpha virt. eigenvalues --    3.95627   4.01535   4.02791   4.05494   4.08153
 Alpha virt. eigenvalues --    4.10961   4.12835   4.14138   4.14665   4.19198
 Alpha virt. eigenvalues --    4.21201   4.23625   4.25367   4.26562   4.28771
 Alpha virt. eigenvalues --    4.29678   4.33634   4.36223   4.39634   4.50805
 Alpha virt. eigenvalues --    4.52897   4.53107   4.55279   4.56589   4.64049
 Alpha virt. eigenvalues --    4.65448   4.66996   4.73579   4.78379   4.80316
 Alpha virt. eigenvalues --    4.83634   4.88319   4.94293   5.02978   5.08356
 Alpha virt. eigenvalues --    5.23382   5.25097   5.36147   5.49491   5.58790
 Alpha virt. eigenvalues --    5.68368   5.74945   5.88944   5.90403   6.09673
 Alpha virt. eigenvalues --    6.24688   6.33225   6.38249   6.40624   6.43358
 Alpha virt. eigenvalues --    6.48733   6.64003   6.72604   6.81747   6.84341
 Alpha virt. eigenvalues --    6.95745   7.06762   7.12428   7.32593  22.34839
 Alpha virt. eigenvalues --   22.44939  22.47738  22.60646  22.73199  22.80452
 Alpha virt. eigenvalues --   23.01450  23.13975  44.00721  44.34042
          Condensed to atoms (all electrons):
               1          2          3          4          5          6
     1  C    5.371408  -0.033881  -0.024555   0.121310   0.421914   0.441950
     2  C   -0.033881   5.682138  -0.052558  -0.028868  -0.040449  -0.043694
     3  C   -0.024555  -0.052558   5.159593   0.079985   0.002861   0.005385
     4  C    0.121310  -0.028868   0.079985   6.136089  -0.032671  -0.058224
     5  H    0.421914  -0.040449   0.002861  -0.032671   0.498809  -0.013159
     6  H    0.441950  -0.043694   0.005385  -0.058224  -0.013159   0.481549
     7  H   -0.013770  -0.000935  -0.008639   0.371679  -0.003174   0.001996
     8  C    0.009557   0.271191  -0.057638  -0.043820  -0.006290   0.002991
     9  C   -0.035726  -0.047085   0.414505  -0.028683   0.001230   0.001385
    10  H   -0.012686   0.415299   0.002448   0.003044  -0.000503   0.000522
    11  H    0.003847  -0.001474   0.429674  -0.017352  -0.000051  -0.000121
    12  H   -0.000267   0.005985  -0.026379   0.000087   0.000010   0.000061
    13  H   -0.025581   0.428014  -0.006068  -0.021376   0.002906  -0.003426
    14  H   -0.010012   0.009436   0.439954  -0.022577  -0.000326   0.000726
    15  O    0.005063  -0.071462   0.002777   0.000559   0.002729  -0.000048
    16  C   -0.002694  -0.002532  -0.000695   0.001191  -0.000024   0.000275
    17  H   -0.005328   0.030543  -0.000372  -0.000084  -0.001735  -0.000060
    18  H    0.000113  -0.000756   0.000070   0.000011   0.000041   0.000001
    19  H    0.001920  -0.018288   0.000186   0.000150   0.000344  -0.000006
    20  C    0.055569  -0.004512  -0.017776   0.058399   0.000849  -0.001090
    21  O    0.010123   0.000316  -0.006681  -0.120223  -0.000318   0.000225
    22  H    0.064593  -0.007309  -0.000871  -0.251877  -0.000500  -0.001110
               7          8          9         10         11         12
     1  C   -0.013770   0.009557  -0.035726  -0.012686   0.003847  -0.000267
     2  C   -0.000935   0.271191  -0.047085   0.415299  -0.001474   0.005985
     3  C   -0.008639  -0.057638   0.414505   0.002448   0.429674  -0.026379
     4  C    0.371679  -0.043820  -0.028683   0.003044  -0.017352   0.000087
     5  H   -0.003174  -0.006290   0.001230  -0.000503  -0.000051   0.000010
     6  H    0.001996   0.002991   0.001385   0.000522  -0.000121   0.000061
     7  H    0.466836   0.001128  -0.006434  -0.000073  -0.000319   0.000718
     8  C    0.001128   4.952783   0.422733  -0.043442   0.010402  -0.053060
     9  C   -0.006434   0.422733   5.160153   0.002863  -0.054023   0.422639
    10  H   -0.000073  -0.043442   0.002863   0.468048  -0.000023  -0.000110
    11  H   -0.000319   0.010402  -0.054023  -0.000023   0.463317  -0.005443
    12  H    0.000718  -0.053060   0.422639  -0.000110  -0.005443   0.492337
    13  H    0.000354  -0.050128   0.006091  -0.009517   0.000658  -0.000166
    14  H    0.002085  -0.001480  -0.064170  -0.000009  -0.014212   0.002388
    15  O    0.000116   0.323027  -0.063702  -0.003213  -0.000103   0.007650
    16  C   -0.000014  -0.075252   0.004977   0.002753   0.000017   0.000190
    17  H   -0.000010  -0.023897  -0.001486  -0.008154   0.000000   0.000048
    18  H   -0.000001   0.006422   0.000076   0.000481  -0.000001  -0.000170
    19  H    0.000001   0.005210   0.002593   0.000990  -0.000002   0.000140
    20  C    0.000533   0.001119   0.000571  -0.000067   0.003483   0.000106
    21  O    0.006054  -0.000047   0.001529   0.000002   0.004319  -0.000007
    22  H    0.007135   0.000156  -0.000555   0.000090   0.001331   0.000003
              13         14         15         16         17         18
     1  C   -0.025581  -0.010012   0.005063  -0.002694  -0.005328   0.000113
     2  C    0.428014   0.009436  -0.071462  -0.002532   0.030543  -0.000756
     3  C   -0.006068   0.439954   0.002777  -0.000695  -0.000372   0.000070
     4  C   -0.021376  -0.022577   0.000559   0.001191  -0.000084   0.000011
     5  H    0.002906  -0.000326   0.002729  -0.000024  -0.001735   0.000041
     6  H   -0.003426   0.000726  -0.000048   0.000275  -0.000060   0.000001
     7  H    0.000354   0.002085   0.000116  -0.000014  -0.000010  -0.000001
     8  C   -0.050128  -0.001480   0.323027  -0.075252  -0.023897   0.006422
     9  C    0.006091  -0.064170  -0.063702   0.004977  -0.001486   0.000076
    10  H   -0.009517  -0.000009  -0.003213   0.002753  -0.008154   0.000481
    11  H    0.000658  -0.014212  -0.000103   0.000017   0.000000  -0.000001
    12  H   -0.000166   0.002388   0.007650   0.000190   0.000048  -0.000170
    13  H    0.486840   0.000739   0.003222  -0.001373  -0.000087   0.000040
    14  H    0.000739   0.494438   0.000035   0.000030   0.000013  -0.000001
    15  O    0.003222   0.000035   7.949292   0.230466  -0.040040  -0.031475
    16  C   -0.001373   0.000030   0.230466   4.904408   0.406537   0.403331
    17  H   -0.000087   0.000013  -0.040040   0.406537   0.580380  -0.023184
    18  H    0.000040  -0.000001  -0.031475   0.403331  -0.023184   0.505046
    19  H   -0.000144  -0.000020  -0.041785   0.423894  -0.057787  -0.016705
    20  C    0.003702  -0.004719  -0.000032   0.000003   0.000026  -0.000001
    21  O   -0.000041   0.000322  -0.000000  -0.000000  -0.000000  -0.000000
    22  H    0.002065   0.000313   0.000002  -0.000000  -0.000001  -0.000000
              19         20         21         22
     1  C    0.001920   0.055569   0.010123   0.064593
     2  C   -0.018288  -0.004512   0.000316  -0.007309
     3  C    0.000186  -0.017776  -0.006681  -0.000871
     4  C    0.000150   0.058399  -0.120223  -0.251877
     5  H    0.000344   0.000849  -0.000318  -0.000500
     6  H   -0.000006  -0.001090   0.000225  -0.001110
     7  H    0.000001   0.000533   0.006054   0.007135
     8  C    0.005210   0.001119  -0.000047   0.000156
     9  C    0.002593   0.000571   0.001529  -0.000555
    10  H    0.000990  -0.000067   0.000002   0.000090
    11  H   -0.000002   0.003483   0.004319   0.001331
    12  H    0.000140   0.000106  -0.000007   0.000003
    13  H   -0.000144   0.003702  -0.000041   0.002065
    14  H   -0.000020  -0.004719   0.000322   0.000313
    15  O   -0.041785  -0.000032  -0.000000   0.000002
    16  C    0.423894   0.000003  -0.000000  -0.000000
    17  H   -0.057787   0.000026  -0.000000  -0.000001
    18  H   -0.016705  -0.000001  -0.000000  -0.000000
    19  H    0.542335  -0.000005  -0.000000   0.000000
    20  C   -0.000005   4.701827   0.639522   0.496018
    21  O   -0.000000   0.639522   7.850920  -0.067393
    22  H    0.000000   0.496018  -0.067393   0.677432
 Mulliken charges:
               1
     1  C   -0.342867
     2  C   -0.489118
     3  C   -0.335205
     4  C   -0.146750
     5  H    0.167507
     6  H    0.183871
     7  H    0.174732
     8  C    0.348333
     9  C   -0.139483
    10  H    0.181258
    11  H    0.176075
    12  H    0.153240
    13  H    0.183278
    14  H    0.167047
    15  O   -0.273078
    16  C   -0.295488
    17  H    0.144678
    18  H    0.156662
    19  H    0.156978
    20  C    0.066474
    21  O   -0.318624
    22  H    0.080481
 Sum of Mulliken charges =  -0.00000
 Mulliken charges with hydrogens summed into heavy atoms:
               1
     1  C    0.008510
     2  C   -0.124582
     3  C    0.007916
     4  C    0.027983
     8  C    0.348333
     9  C    0.013758
    15  O   -0.273078
    16  C    0.162830
    20  C    0.146955
    21  O   -0.318624
 Electronic spatial extent (au):  <R**2>=           1868.6599
 Charge=             -0.0000 electrons
 Dipole moment (field-independent basis, Debye):
    X=              4.9789    Y=             -1.9721    Z=              0.9872  Tot=              5.4455
 Quadrupole moment (field-independent basis, Debye-Ang):
   XX=            -74.7665   YY=            -58.8119   ZZ=            -60.3662
   XY=             -2.7548   XZ=             -3.0002   YZ=             -2.0251
 Traceless Quadrupole moment (field-independent basis, Debye-Ang):
   XX=            -10.1183   YY=              5.8363   ZZ=              4.2820
   XY=             -2.7548   XZ=             -3.0002   YZ=             -2.0251
 Octapole moment (field-independent basis, Debye-Ang**2):
  XXX=            117.9759  YYY=              1.3053  ZZZ=             -3.0873  XYY=             -2.0310
  XXY=            -18.8820  XXZ=              6.5914  XZZ=             -1.4419  YZZ=             -1.0701
  YYZ=             -3.1743  XYZ=              1.4199
 Hexadecapole moment (field-independent basis, Debye-Ang**3):
 XXXX=          -2042.1428 YYYY=           -437.7887 ZZZZ=           -182.6455 XXXY=             -3.0164
 XXXZ=            -41.9925 YYYX=            -12.4377 YYYZ=            -18.7052 ZZZX=             -8.1037
 ZZZY=             -5.9428 XXYY=           -370.0924 XXZZ=           -330.7694 YYZZ=           -105.2314
 XXYZ=             -1.7211 YYXZ=             -6.8738 ZZXY=             -3.0405
 N-N= 5.201001054510D+02 E-N=-2.117786449291D+03  KE= 4.600417509191D+02
 Unable to Open any file for archive entry.
 1\1\GINC-NODE11\SP\RM062X\def2TZVP\C8H12O2\RPATON\21-Jun-2022\0\\# M06
 2X/def2tzvp\\DATS_14_exo_iv_TZVPcreated by GaussianPrep\\0,1\C,0,-0.55
 0114,-1.46263,-0.280255\C,0,0.924316,-0.643239,0.976302\C,0,-0.799432,
 1.532811,0.375473\C,0,-1.521912,-0.528551,-0.626264\H,0,0.153542,-1.79
 9091,-1.034087\H,0,-0.808327,-2.216096,0.461924\H,0,-1.504371,-0.02426
 8,-1.585608\C,0,1.371535,0.457279,0.257259\C,0,0.497136,1.523978,-0.05
 2766\H,0,1.585169,-1.480232,1.172328\H,0,-1.509892,2.258919,-0.006455\
 H,0,0.824066,2.20247,-0.835828\H,0,0.19083,-0.466432,1.752045\H,0,-1.1
 00105,1.034154,1.289354\O,0,2.537886,0.483114,-0.438258\C,0,3.462554,-
 0.558275,-0.211973\H,0,3.074543,-1.521942,-0.56344\H,0,4.354252,-0.301
 154,-0.783151\H,0,3.71618,-0.638663,0.851718\C,0,-2.779975,-0.486953,0
 .114674\O,0,-3.766151,0.147509,-0.197025\H,0,-2.774411,-1.099175,1.048
 765\\Version=AS64L-G16RevC.01\State=1-A\HF=-462.3691421\RMSD=1.416e-09
 \Dipole=1.9588677,-0.7758865,0.3884081\Quadrupole=-7.5227095,4.3391509
 ,3.1835586,-2.0481312,-2.2305546,-1.5056159\PG=C01 [X(C8H12O2)]\\@
 The archive entry for this job was punched.


 KNIGHT- SIRE, I'VE JUST RETURNED FROM THE FRONT
 KING-   HOW GOES THE BATTLE                    
 KNIGHT- THE SITUATION IS QUITE FLUID           
 KING-   WHAT DOES *THAT* MEAN                  
 KNIGHT- WE'RE UP THE CREEK                     
                THE WIZARD OF ID                
 Job cpu time:       0 days  0 hours 16 minutes 26.6 seconds.
 Elapsed time:       0 days  0 hours  1 minutes  4.6 seconds.
 File lengths (MBytes):  RWF=     83 Int=      0 D2E=      0 Chk=     10 Scr=      1
 Normal termination of Gaussian 16 at Tue Jun 21 11:26:00 2022.
