Job Start Time: Tue Jun 21 11:22:46 MDT 2022
SLURM Job ID: 40885
SLURM Job Name: DATS_13_endo_iv_TZVP
 Entering Gaussian System, Link 0=/opt/apps/Gaussian/G16C/g16/g16
 Initial command:
 /opt/apps/Gaussian/G16C/g16/l1.exe "/tmp/Gau-3375722.inp" -scrdir="/tmp/"
 Entering Link 1 = /opt/apps/Gaussian/G16C/g16/l1.exe PID=   3375724.
  
 Copyright (c) 1988-2019, Gaussian, Inc.  All Rights Reserved.
  
 This is part of the Gaussian(R) 16 program.  It is based on
 the Gaussian(R) 09 system (copyright 2009, Gaussian, Inc.),
 the Gaussian(R) 03 system (copyright 2003, Gaussian, Inc.),
 the Gaussian(R) 98 system (copyright 1998, Gaussian, Inc.),
 the Gaussian(R) 94 system (copyright 1995, Gaussian, Inc.),
 the Gaussian 92(TM) system (copyright 1992, Gaussian, Inc.),
 the Gaussian 90(TM) system (copyright 1990, Gaussian, Inc.),
 the Gaussian 88(TM) system (copyright 1988, Gaussian, Inc.),
 the Gaussian 86(TM) system (copyright 1986, Carnegie Mellon
 University), and the Gaussian 82(TM) system (copyright 1983,
 Carnegie Mellon University). Gaussian is a federally registered
 trademark of Gaussian, Inc.
  
 This software contains proprietary and confidential information,
 including trade secrets, belonging to Gaussian, Inc.
  
 This software is provided under written license and may be
 used, copied, transmitted, or stored only in accord with that
 written license.
  
 The following legend is applicable only to US Government
 contracts under FAR:
  
                    RESTRICTED RIGHTS LEGEND
  
 Use, reproduction and disclosure by the US Government is
 subject to restrictions as set forth in subparagraphs (a)
 and (c) of the Commercial Computer Software - Restricted
 Rights clause in FAR 52.227-19.
  
 Gaussian, Inc.
 340 Quinnipiac St., Bldg. 40, Wallingford CT 06492
  
  
 ---------------------------------------------------------------
 Warning -- This program may not be used in any manner that
 competes with the business of Gaussian, Inc. or will provide
 assistance to any competitor of Gaussian, Inc.  The licensee
 of this program is prohibited from giving any competitor of
 Gaussian, Inc. access to this program.  By using this program,
 the user acknowledges that Gaussian, Inc. is engaged in the
 business of creating and licensing software in the field of
 computational chemistry and represents and warrants to the
 licensee that it is not a competitor of Gaussian, Inc. and that
 it will not use this program in any manner prohibited above.
 ---------------------------------------------------------------
  

 Cite this work as:
 Gaussian 16, Revision C.01,
 M. J. Frisch, G. W. Trucks, H. B. Schlegel, G. E. Scuseria, 
 M. A. Robb, J. R. Cheeseman, G. Scalmani, V. Barone, 
 G. A. Petersson, H. Nakatsuji, X. Li, M. Caricato, A. V. Marenich, 
 J. Bloino, B. G. Janesko, R. Gomperts, B. Mennucci, H. P. Hratchian, 
 J. V. Ortiz, A. F. Izmaylov, J. L. Sonnenberg, D. Williams-Young, 
 F. Ding, F. Lipparini, F. Egidi, J. Goings, B. Peng, A. Petrone, 
 T. Henderson, D. Ranasinghe, V. G. Zakrzewski, J. Gao, N. Rega, 
 G. Zheng, W. Liang, M. Hada, M. Ehara, K. Toyota, R. Fukuda, 
 J. Hasegawa, M. Ishida, T. Nakajima, Y. Honda, O. Kitao, H. Nakai, 
 T. Vreven, K. Throssell, J. A. Montgomery, Jr., J. E. Peralta, 
 F. Ogliaro, M. J. Bearpark, J. J. Heyd, E. N. Brothers, K. N. Kudin, 
 V. N. Staroverov, T. A. Keith, R. Kobayashi, J. Normand, 
 K. Raghavachari, A. P. Rendell, J. C. Burant, S. S. Iyengar, 
 J. Tomasi, M. Cossi, J. M. Millam, M. Klene, C. Adamo, R. Cammi, 
 J. W. Ochterski, R. L. Martin, K. Morokuma, O. Farkas, 
 J. B. Foresman, and D. J. Fox, Gaussian, Inc., Wallingford CT, 2019.
 
 ******************************************
 Gaussian 16:  AS64L-G16RevC.01  3-Jul-2019
                21-Jun-2022 
 ******************************************
 %chk=DATS_13_endo_iv_TZVP.chk
 %mem=48GB
 %nprocshared=16
 Will use up to   16 processors via shared memory.
 ----------------
 # M062X/def2tzvp
 ----------------
 1/38=1,172=1/1;
 2/12=2,17=6,18=5,40=1/2;
 3/5=44,7=101,11=2,25=1,30=1,74=-55/1,2,3;
 4//1;
 5/5=2,38=5/2;
 6/7=2,8=2,9=2,10=2,28=1/1;
 99/5=1,9=1/99;
 -------------------------------------------
 DATS_13_endo_iv_TZVPcreated by GaussianPrep
 -------------------------------------------
 Symbolic Z-matrix:
 Charge =  0 Multiplicity = 1
 C                    -2.22626   0.39823  -0.36985 
 C                    -1.84272  -1.64302   0.05911 
 C                     0.28292  -0.2257    1.27329 
 C                    -1.2932    1.19747   0.2789 
 H                    -2.14503   0.27953  -1.44638 
 H                    -3.23757   0.34065   0.02009 
 H                    -1.51365   1.65707   1.23813 
 C                    -0.53627  -1.81947  -0.353 
 C                     0.52066  -1.08694   0.2235 
 H                    -2.63462  -2.15735  -0.47796 
 H                     1.03466   0.46001   1.64474 
 H                    -2.07064  -1.44195   1.10051 
 H                    -0.53073  -0.44245   1.95091 
 C                    -0.17657   1.77651  -0.47937 
 O                     0.52455   2.69754  -0.11549 
 H                     0.00337   1.27629  -1.45899 
 O                     1.67508  -1.10828  -0.50052 
 H                    -0.3259   -2.3018   -1.30385 
 C                     2.73321  -0.28677  -0.04938 
 H                     2.46431   0.77535  -0.1028 
 H                     3.01564  -0.53785   0.98057 
 H                     3.5726   -0.48344  -0.71606 
 
                          Input orientation:                          
 ---------------------------------------------------------------------
 Center     Atomic      Atomic             Coordinates (Angstroms)
 Number     Number       Type             X           Y           Z
 ---------------------------------------------------------------------
      1          6           0       -2.226258    0.398227   -0.369848
      2          6           0       -1.842722   -1.643016    0.059106
      3          6           0        0.282917   -0.225700    1.273293
      4          6           0       -1.293201    1.197469    0.278895
      5          1           0       -2.145034    0.279533   -1.446380
      6          1           0       -3.237572    0.340653    0.020090
      7          1           0       -1.513654    1.657068    1.238130
      8          6           0       -0.536273   -1.819467   -0.352997
      9          6           0        0.520656   -1.086944    0.223499
     10          1           0       -2.634616   -2.157352   -0.477956
     11          1           0        1.034658    0.460009    1.644739
     12          1           0       -2.070644   -1.441950    1.100513
     13          1           0       -0.530730   -0.442446    1.950905
     14          6           0       -0.176568    1.776505   -0.479370
     15          8           0        0.524552    2.697536   -0.115488
     16          1           0        0.003365    1.276293   -1.458992
     17          8           0        1.675077   -1.108275   -0.500524
     18          1           0       -0.325902   -2.301798   -1.303854
     19          6           0        2.733209   -0.286766   -0.049381
     20          1           0        2.464306    0.775349   -0.102802
     21          1           0        3.015642   -0.537845    0.980573
     22          1           0        3.572596   -0.483441   -0.716056
 ---------------------------------------------------------------------
                    Distance matrix (angstroms):
                    1          2          3          4          5
     1  C    0.000000
     2  C    2.120796   0.000000
     3  C    3.063520   2.828670   0.000000
     4  C    1.389335   2.901489   2.344864   0.000000
     5  H    1.086097   2.460503   3.680602   2.131854   0.000000
     6  H    1.085413   2.425298   3.779566   2.140489   1.829729
     7  H    2.162887   3.519792   2.602637   1.086261   3.082667
     8  C    2.788279   1.381221   2.419914   3.173977   2.861713
     9  C    3.178574   2.433474   1.378524   2.917480   3.429527
    10  H    2.590256   1.086312   3.912819   3.691482   2.667573
    11  H    3.833530   3.900803   1.083182   2.797911   4.438246
    12  H    2.360599   1.084852   2.654876   2.871586   3.075012
    13  H    2.994569   2.596458   1.080814   2.462986   3.829984
    14  C    2.472423   3.841764   2.700329   1.468713   2.655352
    15  O    3.594228   4.947207   3.245367   2.389553   3.839883
    16  H    2.632196   3.772933   3.130417   2.169688   2.368398
    17  O    4.184141   3.601950   2.421461   3.838571   4.172997
    18  H    3.431305   2.142988   3.364897   3.960509   3.161143
    19  C    5.016795   4.773922   2.785162   4.303800   5.105835
    20  H    4.713271   4.942185   2.766621   3.800360   4.826702
    21  H    5.493395   5.066972   2.766027   4.697850   5.761144
    22  H    5.875705   5.592062   3.853041   5.243221   5.814361
                    6          7          8          9         10
     6  H    0.000000
     7  H    2.487662   0.000000
     8  C    3.478840   3.946296   0.000000
     9  C    4.025380   3.563354   1.409268   0.000000
    10  H    2.617563   4.330278   2.129043   3.404931   0.000000
    11  H    4.572273   2.844675   3.413910   2.162680   4.981966
    12  H    2.388872   3.151680   2.146976   2.758626   1.822479
    13  H    3.415887   2.425314   2.684061   2.122433   3.642335
    14  C    3.417730   2.179879   3.616127   3.029767   4.638667
    15  O    4.441493   2.658785   4.645974   3.799634   5.803591
    16  H    3.683311   3.117820   3.331391   2.946736   4.439740
    17  O    5.148257   4.564871   2.327580   1.362847   4.435598
    18  H    4.148879   4.852325   1.086751   2.127284   2.456244
    19  C    6.004058   4.844793   3.623654   2.368573   5.700554
    20  H    5.719744   4.289486   3.974813   2.711528   5.894106
    21  H    6.387251   5.039693   4.004630   2.664512   6.056032
    22  H    6.899234   5.854106   4.335848   3.249818   6.433362
                   11         12         13         14         15
    11  H    0.000000
    12  H    3.681919   0.000000
    13  H    1.832649   2.023242   0.000000
    14  C    2.777061   4.054874   3.309896   0.000000
    15  O    2.892254   5.034784   3.904240   1.213374   0.000000
    16  H    3.370910   4.270998   3.855738   1.114561   2.023999
    17  O    2.733460   4.087185   3.364285   3.427972   3.994516
    18  H    4.262969   3.092644   3.754011   4.163488   5.208534
    19  C    2.512527   5.072840   3.831276   3.592879   3.713300
    20  H    2.279744   5.189427   3.830271   2.849269   2.730862
    21  H    2.315411   5.167407   3.677961   4.204504   4.227833
    22  H    3.592295   6.005399   4.894042   4.384017   4.446332
                   16         17         18         19         20
    16  H    0.000000
    17  O    3.065852   0.000000
    18  H    3.596557   2.464499   0.000000
    19  C    3.447057   1.413524   3.871978   0.000000
    20  H    2.854195   2.080650   4.323959   1.096928   0.000000
    21  H    4.279765   2.077535   4.415434   1.097094   1.789456
    22  H    4.048213   2.009341   4.341683   1.089820   1.785760
                   21         22
    21  H    0.000000
    22  H    1.786535   0.000000
 Stoichiometry    C8H12O2
 Framework group  C1[X(C8H12O2)]
 Deg. of freedom    60
 Full point group                 C1      NOp   1
 Largest Abelian subgroup         C1      NOp   1
 Largest concise Abelian subgroup C1      NOp   1
                         Standard orientation:                         
 ---------------------------------------------------------------------
 Center     Atomic      Atomic             Coordinates (Angstroms)
 Number     Number       Type             X           Y           Z
 ---------------------------------------------------------------------
      1          6           0       -2.226258    0.398227   -0.369848
      2          6           0       -1.842722   -1.643016    0.059106
      3          6           0        0.282917   -0.225700    1.273293
      4          6           0       -1.293201    1.197469    0.278895
      5          1           0       -2.145034    0.279533   -1.446380
      6          1           0       -3.237572    0.340653    0.020090
      7          1           0       -1.513654    1.657068    1.238130
      8          6           0       -0.536273   -1.819467   -0.352997
      9          6           0        0.520656   -1.086944    0.223499
     10          1           0       -2.634616   -2.157352   -0.477956
     11          1           0        1.034658    0.460009    1.644739
     12          1           0       -2.070644   -1.441950    1.100513
     13          1           0       -0.530730   -0.442446    1.950905
     14          6           0       -0.176568    1.776505   -0.479370
     15          8           0        0.524552    2.697536   -0.115488
     16          1           0        0.003365    1.276293   -1.458992
     17          8           0        1.675077   -1.108275   -0.500524
     18          1           0       -0.325902   -2.301798   -1.303854
     19          6           0        2.733209   -0.286766   -0.049381
     20          1           0        2.464306    0.775349   -0.102802
     21          1           0        3.015642   -0.537845    0.980573
     22          1           0        3.572596   -0.483441   -0.716056
 ---------------------------------------------------------------------
 Rotational constants (GHZ):           1.4581932           1.3492356           0.8088356
 Standard basis: def2TZVP (5D, 7F)
 There are   432 symmetry adapted cartesian basis functions of A   symmetry.
 There are   382 symmetry adapted basis functions of A   symmetry.
   382 basis functions,   606 primitive gaussians,   432 cartesian basis functions
    38 alpha electrons       38 beta electrons
       nuclear repulsion energy       538.3148992900 Hartrees.
 NAtoms=   22 NActive=   22 NUniq=   22 SFac= 1.00D+00 NAtFMM=   60 NAOKFM=F Big=F
 Integral buffers will be    131072 words long.
 Raffenetti 2 integral format.
 Two-electron integral symmetry is turned on.
 One-electron integrals computed using PRISM.
   1 Symmetry operations used in ECPInt.
 ECPInt:  NShTT=   12561 NPrTT=   37384 LenC2=   12228 LenP2D=   28586.
 LDataN:  DoStor=T MaxTD1= 6 Len=  172
 NBasis=   382 RedAO= T EigKep=  5.55D-05  NBF=   382
 NBsUse=   382 1.00D-06 EigRej= -1.00D+00 NBFU=   382
 ExpMin= 9.52D-02 ExpMax= 2.70D+04 ExpMxC= 9.22D+02 IAcc=3 IRadAn=         5 AccDes= 0.00D+00
 Harris functional with IExCor= 1009 and IRadAn=       5 diagonalized for initial guess.
 HarFok:  IExCor= 1009 AccDes= 0.00D+00 IRadAn=         5 IDoV= 1 UseB2=F ITyADJ=14
 ICtDFT=  3500011 ScaDFX=  1.000000  1.000000  1.000000  1.000000
 FoFCou: FMM=F IPFlag=           0 FMFlag=      100000 FMFlg1=           0
         NFxFlg=           0 DoJE=T BraDBF=F KetDBF=T FulRan=T
         wScrn=  0.000000 ICntrl=       500 IOpCl=  0 I1Cent=   200000004 NGrid=           0
         NMat0=    1 NMatS0=      1 NMatT0=    0 NMatD0=    1 NMtDS0=    0 NMtDT0=    0
 Petite list used in FoFCou.
 Requested convergence on RMS density matrix=1.00D-08 within 128 cycles.
 Requested convergence on MAX density matrix=1.00D-06.
 Requested convergence on             energy=1.00D-06.
 No special actions if energy rises.
 Integral accuracy reduced to 1.0D-05 until final iterations.
 Initial convergence to 1.0D-05 achieved.  Increase integral accuracy.
 SCF Done:  E(RM062X) =  -462.369871793     A.U. after   16 cycles
            NFock= 16  Conv=0.55D-08     -V/T= 2.0051

 **********************************************************************

            Population analysis using the SCF Density.

 **********************************************************************

 Orbital symmetries:
       Occupied  (A) (A) (A) (A) (A) (A) (A) (A) (A) (A) (A) (A)
                 (A) (A) (A) (A) (A) (A) (A) (A) (A) (A) (A) (A)
                 (A) (A) (A) (A) (A) (A) (A) (A) (A) (A) (A) (A)
                 (A) (A)
       Virtual   (A) (A) (A) (A) (A) (A) (A) (A) (A) (A) (A) (A)
                 (A) (A) (A) (A) (A) (A) (A) (A) (A) (A) (A) (A)
                 (A) (A) (A) (A) (A) (A) (A) (A) (A) (A) (A) (A)
                 (A) (A) (A) (A) (A) (A) (A) (A) (A) (A) (A) (A)
                 (A) (A) (A) (A) (A) (A) (A) (A) (A) (A) (A) (A)
                 (A) (A) (A) (A) (A) (A) (A) (A) (A) (A) (A) (A)
                 (A) (A) (A) (A) (A) (A) (A) (A) (A) (A) (A) (A)
                 (A) (A) (A) (A) (A) (A) (A) (A) (A) (A) (A) (A)
                 (A) (A) (A) (A) (A) (A) (A) (A) (A) (A) (A) (A)
                 (A) (A) (A) (A) (A) (A) (A) (A) (A) (A) (A) (A)
                 (A) (A) (A) (A) (A) (A) (A) (A) (A) (A) (A) (A)
                 (A) (A) (A) (A) (A) (A) (A) (A) (A) (A) (A) (A)
                 (A) (A) (A) (A) (A) (A) (A) (A) (A) (A) (A) (A)
                 (A) (A) (A) (A) (A) (A) (A) (A) (A) (A) (A) (A)
                 (A) (A) (A) (A) (A) (A) (A) (A) (A) (A) (A) (A)
                 (A) (A) (A) (A) (A) (A) (A) (A) (A) (A) (A) (A)
                 (A) (A) (A) (A) (A) (A) (A) (A) (A) (A) (A) (A)
                 (A) (A) (A) (A) (A) (A) (A) (A) (A) (A) (A) (A)
                 (A) (A) (A) (A) (A) (A) (A) (A) (A) (A) (A) (A)
                 (A) (A) (A) (A) (A) (A) (A) (A) (A) (A) (A) (A)
                 (A) (A) (A) (A) (A) (A) (A) (A) (A) (A) (A) (A)
                 (A) (A) (A) (A) (A) (A) (A) (A) (A) (A) (A) (A)
                 (A) (A) (A) (A) (A) (A) (A) (A) (A) (A) (A) (A)
                 (A) (A) (A) (A) (A) (A) (A) (A) (A) (A) (A) (A)
                 (A) (A) (A) (A) (A) (A) (A) (A) (A) (A) (A) (A)
                 (A) (A) (A) (A) (A) (A) (A) (A) (A) (A) (A) (A)
                 (A) (A) (A) (A) (A) (A) (A) (A) (A) (A) (A) (A)
                 (A) (A) (A) (A) (A) (A) (A) (A) (A) (A) (A) (A)
                 (A) (A) (A) (A) (A) (A) (A) (A)
 The electronic state is 1-A.
 Alpha  occ. eigenvalues --  -19.65910 -19.60835 -10.61848 -10.60725 -10.58772
 Alpha  occ. eigenvalues --  -10.56623 -10.55978 -10.55561 -10.55412 -10.54921
 Alpha  occ. eigenvalues --   -1.19591  -1.15490  -0.93391  -0.88196  -0.83542
 Alpha  occ. eigenvalues --   -0.80844  -0.73284  -0.70718  -0.65126  -0.62314
 Alpha  occ. eigenvalues --   -0.59882  -0.56933  -0.55528  -0.53955  -0.53791
 Alpha  occ. eigenvalues --   -0.51179  -0.48539  -0.48105  -0.47137  -0.46865
 Alpha  occ. eigenvalues --   -0.44740  -0.44044  -0.43603  -0.41111  -0.38492
 Alpha  occ. eigenvalues --   -0.32481  -0.29265  -0.28072
 Alpha virt. eigenvalues --   -0.03096   0.02402   0.05538   0.07021   0.08342
 Alpha virt. eigenvalues --    0.08869   0.10059   0.11376   0.11793   0.12660
 Alpha virt. eigenvalues --    0.13133   0.13987   0.15109   0.15878   0.16496
 Alpha virt. eigenvalues --    0.17303   0.19330   0.20024   0.20702   0.21480
 Alpha virt. eigenvalues --    0.23127   0.23364   0.24711   0.26129   0.27045
 Alpha virt. eigenvalues --    0.27527   0.28914   0.29663   0.30739   0.31602
 Alpha virt. eigenvalues --    0.33780   0.34175   0.35270   0.36282   0.36508
 Alpha virt. eigenvalues --    0.37759   0.38416   0.39756   0.40422   0.41793
 Alpha virt. eigenvalues --    0.43104   0.43388   0.44020   0.44408   0.44787
 Alpha virt. eigenvalues --    0.45541   0.45601   0.46997   0.47945   0.48840
 Alpha virt. eigenvalues --    0.49783   0.50042   0.51779   0.52256   0.52466
 Alpha virt. eigenvalues --    0.53642   0.55205   0.56447   0.57789   0.57899
 Alpha virt. eigenvalues --    0.58905   0.59768   0.61031   0.61476   0.64553
 Alpha virt. eigenvalues --    0.64670   0.66915   0.67458   0.69498   0.70707
 Alpha virt. eigenvalues --    0.71648   0.73067   0.75376   0.76216   0.76802
 Alpha virt. eigenvalues --    0.80237   0.81589   0.85320   0.86594   0.87154
 Alpha virt. eigenvalues --    0.87900   0.90855   0.91497   0.92891   0.95293
 Alpha virt. eigenvalues --    0.96569   0.97652   0.99214   1.00884   1.01256
 Alpha virt. eigenvalues --    1.02378   1.03489   1.04892   1.08128   1.09942
 Alpha virt. eigenvalues --    1.10436   1.10558   1.12642   1.14472   1.15084
 Alpha virt. eigenvalues --    1.15897   1.20267   1.21172   1.22456   1.23326
 Alpha virt. eigenvalues --    1.25916   1.26173   1.28419   1.30108   1.31367
 Alpha virt. eigenvalues --    1.34325   1.35639   1.38583   1.40240   1.42277
 Alpha virt. eigenvalues --    1.44685   1.48345   1.48762   1.51745   1.52884
 Alpha virt. eigenvalues --    1.53283   1.54365   1.55346   1.56911   1.57738
 Alpha virt. eigenvalues --    1.58717   1.60587   1.60926   1.62602   1.63816
 Alpha virt. eigenvalues --    1.64901   1.65927   1.67268   1.68218   1.69884
 Alpha virt. eigenvalues --    1.71109   1.72200   1.73400   1.74035   1.77504
 Alpha virt. eigenvalues --    1.78317   1.80577   1.81832   1.83269   1.84238
 Alpha virt. eigenvalues --    1.85628   1.88922   1.92123   1.94511   1.95059
 Alpha virt. eigenvalues --    1.97043   1.98751   1.99250   2.02284   2.02851
 Alpha virt. eigenvalues --    2.05160   2.07311   2.08777   2.09338   2.12310
 Alpha virt. eigenvalues --    2.14025   2.15672   2.18554   2.20750   2.22828
 Alpha virt. eigenvalues --    2.23925   2.26449   2.26680   2.28990   2.30357
 Alpha virt. eigenvalues --    2.31130   2.33896   2.35075   2.35415   2.38209
 Alpha virt. eigenvalues --    2.39456   2.41619   2.41890   2.44510   2.45422
 Alpha virt. eigenvalues --    2.48119   2.49065   2.49991   2.52106   2.53250
 Alpha virt. eigenvalues --    2.54003   2.54834   2.56974   2.58309   2.58576
 Alpha virt. eigenvalues --    2.60912   2.62431   2.64241   2.65011   2.67387
 Alpha virt. eigenvalues --    2.67888   2.69371   2.69687   2.71236   2.72913
 Alpha virt. eigenvalues --    2.74759   2.76154   2.76996   2.78178   2.78809
 Alpha virt. eigenvalues --    2.82547   2.83727   2.84014   2.85537   2.86629
 Alpha virt. eigenvalues --    2.88419   2.91254   2.94728   2.96072   2.97354
 Alpha virt. eigenvalues --    2.99139   2.99366   3.03125   3.05405   3.06429
 Alpha virt. eigenvalues --    3.07358   3.08356   3.09315   3.11172   3.12776
 Alpha virt. eigenvalues --    3.13476   3.14361   3.15310   3.17228   3.19027
 Alpha virt. eigenvalues --    3.20350   3.20710   3.21527   3.23399   3.25124
 Alpha virt. eigenvalues --    3.27348   3.27610   3.27992   3.28640   3.30861
 Alpha virt. eigenvalues --    3.31701   3.32257   3.33951   3.36004   3.36292
 Alpha virt. eigenvalues --    3.37101   3.38479   3.41208   3.42166   3.43311
 Alpha virt. eigenvalues --    3.44759   3.46613   3.47009   3.48356   3.49546
 Alpha virt. eigenvalues --    3.50620   3.52511   3.54462   3.55164   3.56096
 Alpha virt. eigenvalues --    3.56686   3.59962   3.60282   3.63630   3.66380
 Alpha virt. eigenvalues --    3.69102   3.70769   3.72053   3.72878   3.76564
 Alpha virt. eigenvalues --    3.81923   3.84142   3.87861   3.89981   3.92821
 Alpha virt. eigenvalues --    3.95204   4.02023   4.02764   4.05151   4.08810
 Alpha virt. eigenvalues --    4.10277   4.14493   4.15557   4.16625   4.18090
 Alpha virt. eigenvalues --    4.19513   4.23303   4.25211   4.27633   4.28290
 Alpha virt. eigenvalues --    4.29039   4.34545   4.38641   4.39918   4.49795
 Alpha virt. eigenvalues --    4.52135   4.54839   4.56624   4.58536   4.63817
 Alpha virt. eigenvalues --    4.65284   4.67681   4.73175   4.78470   4.80764
 Alpha virt. eigenvalues --    4.83087   4.88313   4.94477   5.01782   5.09136
 Alpha virt. eigenvalues --    5.22812   5.24344   5.37494   5.51001   5.58126
 Alpha virt. eigenvalues --    5.67936   5.75867   5.89130   5.90318   6.10095
 Alpha virt. eigenvalues --    6.25795   6.32775   6.38243   6.41148   6.42709
 Alpha virt. eigenvalues --    6.48001   6.65426   6.75132   6.82869   6.85289
 Alpha virt. eigenvalues --    6.95744   7.06939   7.14149   7.33995  22.39290
 Alpha virt. eigenvalues --   22.45993  22.48702  22.58675  22.72850  22.83588
 Alpha virt. eigenvalues --   23.06350  23.16298  44.04168  44.37245
          Condensed to atoms (all electrons):
               1          2          3          4          5          6
     1  C    5.366593   0.055795  -0.052411   0.164081   0.437625   0.421741
     2  C    0.055795   5.214586  -0.025434  -0.006202  -0.028562  -0.025153
     3  C   -0.052411  -0.025434   5.534664   0.023881   0.005358   0.005862
     4  C    0.164081  -0.006202   0.023881   6.083910  -0.061024  -0.043916
     5  H    0.437625  -0.028562   0.005358  -0.061024   0.476558  -0.013153
     6  H    0.421741  -0.025153   0.005862  -0.043916  -0.013153   0.486579
     7  H   -0.018497  -0.000389  -0.016864   0.367337   0.002488  -0.005231
     8  C   -0.016936   0.404290  -0.084738  -0.071833  -0.007681  -0.001681
     9  C   -0.027108  -0.063799   0.323855   0.042871   0.000366   0.002650
    10  H   -0.016024   0.429379   0.000746   0.002699  -0.000791   0.000499
    11  H    0.004469  -0.000089   0.410973  -0.024399  -0.000051  -0.000161
    12  H   -0.040605   0.448433   0.002384  -0.018737   0.003549  -0.004472
    13  H   -0.014939   0.009073   0.429430  -0.022597  -0.000185   0.000742
    14  C    0.063774  -0.004862  -0.025191  -0.028414   0.002663   0.002094
    15  O    0.007874   0.000002  -0.010498  -0.106220   0.000155  -0.000248
    16  H    0.051646  -0.002453  -0.022502  -0.225938  -0.000931  -0.000598
    17  O    0.000307   0.004513  -0.079797   0.004646  -0.000177  -0.000034
    18  H    0.000909  -0.034235   0.006727  -0.000664   0.000811  -0.000249
    19  C    0.002586  -0.001533  -0.003935  -0.005496  -0.000063  -0.000023
    20  H   -0.000508   0.000230   0.028383  -0.004108   0.000006   0.000019
    21  H   -0.000055  -0.000177  -0.012383   0.001821  -0.000003  -0.000002
    22  H   -0.000002   0.000061  -0.000929   0.000028  -0.000002  -0.000000
               7          8          9         10         11         12
     1  C   -0.018497  -0.016936  -0.027108  -0.016024   0.004469  -0.040605
     2  C   -0.000389   0.404290  -0.063799   0.429379  -0.000089   0.448433
     3  C   -0.016864  -0.084738   0.323855   0.000746   0.410973   0.002384
     4  C    0.367337  -0.071833   0.042871   0.002699  -0.024399  -0.018737
     5  H    0.002488  -0.007681   0.000366  -0.000791  -0.000051   0.003549
     6  H   -0.005231  -0.001681   0.002650   0.000499  -0.000161  -0.004472
     7  H    0.480074   0.004526  -0.002658  -0.000150   0.003115   0.001420
     8  C    0.004526   5.206312   0.405505  -0.052772   0.008464  -0.062684
     9  C   -0.002658   0.405505   4.987348   0.008971  -0.051126   0.000175
    10  H   -0.000150  -0.052772   0.008971   0.487015  -0.000026  -0.016017
    11  H    0.003115   0.008464  -0.051126  -0.000026   0.444177   0.000091
    12  H    0.001420  -0.062684   0.000175  -0.016017   0.000091   0.497809
    13  H   -0.005948  -0.003217  -0.052561   0.000424  -0.007368   0.002016
    14  C    0.004263   0.010093  -0.005371   0.000061   0.004221   0.001471
    15  O    0.007304   0.001385  -0.005628   0.000002   0.006865   0.000020
    16  H    0.006777   0.002147   0.004200   0.000029   0.004173   0.000012
    17  O   -0.000177  -0.069302   0.319925  -0.000163  -0.002535  -0.000048
    18  H    0.000059   0.429242  -0.054313  -0.006171  -0.000050   0.002655
    19  C    0.000031   0.004034  -0.076715   0.000022  -0.000099  -0.000029
    20  H   -0.000036  -0.001228  -0.020341  -0.000001  -0.007643   0.000033
    21  H   -0.000003   0.003460   0.000278  -0.000004   0.000304  -0.000010
    22  H   -0.000000   0.000003   0.005386  -0.000001   0.000387  -0.000002
              13         14         15         16         17         18
     1  C   -0.014939   0.063774   0.007874   0.051646   0.000307   0.000909
     2  C    0.009073  -0.004862   0.000002  -0.002453   0.004513  -0.034235
     3  C    0.429430  -0.025191  -0.010498  -0.022502  -0.079797   0.006727
     4  C   -0.022597  -0.028414  -0.106220  -0.225938   0.004646  -0.000664
     5  H   -0.000185   0.002663   0.000155  -0.000931  -0.000177   0.000811
     6  H    0.000742   0.002094  -0.000248  -0.000598  -0.000034  -0.000249
     7  H   -0.005948   0.004263   0.007304   0.006777  -0.000177   0.000059
     8  C   -0.003217   0.010093   0.001385   0.002147  -0.069302   0.429242
     9  C   -0.052561  -0.005371  -0.005628   0.004200   0.319925  -0.054313
    10  H    0.000424   0.000061   0.000002   0.000029  -0.000163  -0.006171
    11  H   -0.007368   0.004221   0.006865   0.004173  -0.002535  -0.000050
    12  H    0.002016   0.001471   0.000020   0.000012  -0.000048   0.002655
    13  H    0.498101   0.000581   0.000045  -0.001048   0.003529  -0.000332
    14  C    0.000581   4.808456   0.619924   0.508061   0.001766  -0.000070
    15  O    0.000045   0.619924   7.862334  -0.067796   0.000478   0.000002
    16  H   -0.001048   0.508061  -0.067796   0.627818   0.002085   0.000264
    17  O    0.003529   0.001766   0.000478   0.002085   7.979580   0.008560
    18  H   -0.000332  -0.000070   0.000002   0.000264   0.008560   0.492412
    19  C   -0.001686   0.003180  -0.007480   0.001090   0.224866   0.000213
    20  H    0.000384   0.001932   0.008987  -0.007508  -0.041939   0.000054
    21  H   -0.000102  -0.001021   0.000267   0.000271  -0.040483   0.000184
    22  H    0.000055   0.000455   0.000086   0.000059  -0.030183  -0.000198
              19         20         21         22
     1  C    0.002586  -0.000508  -0.000055  -0.000002
     2  C   -0.001533   0.000230  -0.000177   0.000061
     3  C   -0.003935   0.028383  -0.012383  -0.000929
     4  C   -0.005496  -0.004108   0.001821   0.000028
     5  H   -0.000063   0.000006  -0.000003  -0.000002
     6  H   -0.000023   0.000019  -0.000002  -0.000000
     7  H    0.000031  -0.000036  -0.000003  -0.000000
     8  C    0.004034  -0.001228   0.003460   0.000003
     9  C   -0.076715  -0.020341   0.000278   0.005386
    10  H    0.000022  -0.000001  -0.000004  -0.000001
    11  H   -0.000099  -0.007643   0.000304   0.000387
    12  H   -0.000029   0.000033  -0.000010  -0.000002
    13  H   -0.001686   0.000384  -0.000102   0.000055
    14  C    0.003180   0.001932  -0.001021   0.000455
    15  O   -0.007480   0.008987   0.000267   0.000086
    16  H    0.001090  -0.007508   0.000271   0.000059
    17  O    0.224866  -0.041939  -0.040483  -0.030183
    18  H    0.000213   0.000054   0.000184  -0.000198
    19  C    4.936002   0.403356   0.419175   0.399985
    20  H    0.403356   0.544730  -0.054190  -0.020517
    21  H    0.419175  -0.054190   0.552215  -0.019190
    22  H    0.399985  -0.020517  -0.019190   0.514252
 Mulliken charges:
               1
     1  C   -0.390313
     2  C   -0.373474
     3  C   -0.437581
     4  C   -0.071725
     5  H    0.183046
     6  H    0.174735
     7  H    0.172560
     8  C   -0.107387
     9  C    0.258090
    10  H    0.162273
    11  H    0.206309
    12  H    0.182534
    13  H    0.165603
    14  C    0.031938
    15  O   -0.317859
    16  H    0.120142
    17  O   -0.285418
    18  H    0.154190
    19  C   -0.297483
    20  H    0.169904
    21  H    0.149648
    22  H    0.150269
 Sum of Mulliken charges =  -0.00000
 Mulliken charges with hydrogens summed into heavy atoms:
               1
     1  C   -0.032533
     2  C   -0.028668
     3  C   -0.065669
     4  C    0.100836
     8  C    0.046803
     9  C    0.258090
    14  C    0.152080
    15  O   -0.317859
    17  O   -0.285418
    19  C    0.172338
 Electronic spatial extent (au):  <R**2>=           1505.3832
 Charge=             -0.0000 electrons
 Dipole moment (field-independent basis, Debye):
    X=             -1.6441    Y=             -2.4341    Z=              0.4753  Tot=              2.9756
 Quadrupole moment (field-independent basis, Debye-Ang):
   XX=            -53.0595   YY=            -75.0224   ZZ=            -58.4517
   XY=              0.1773   XZ=              0.4724   YZ=              1.0441
 Traceless Quadrupole moment (field-independent basis, Debye-Ang):
   XX=              9.1183   YY=            -12.8445   ZZ=              3.7262
   XY=              0.1773   XZ=              0.4724   YZ=              1.0441
 Octapole moment (field-independent basis, Debye-Ang**2):
  XXX=             16.5796  YYY=            -24.4700  ZZZ=             -1.9844  XYY=             -9.7260
  XXY=             -3.6180  XXZ=              1.7922  XZZ=             -0.5494  YZZ=              3.0189
  YYZ=             -4.3967  XYZ=             -2.2105
 Hexadecapole moment (field-independent basis, Debye-Ang**3):
 XXXX=           -880.6318 YYYY=           -934.0547 ZZZZ=           -209.8264 XXXY=             10.9128
 XXXZ=            -13.7204 YYYX=            -18.8870 YYYZ=             17.3408 ZZZX=             -6.8735
 ZZZY=              6.8210 XXYY=           -307.2643 XXZZ=           -191.2414 YYZZ=           -166.7092
 XXYZ=              6.1151 YYXZ=              3.1002 ZZXY=              2.0541
 N-N= 5.383148992900D+02 E-N=-2.154372048410D+03  KE= 4.600399539717D+02
 Unable to Open any file for archive entry.
 1\1\GINC-NODE11\SP\RM062X\def2TZVP\C8H12O2\RPATON\21-Jun-2022\0\\# M06
 2X/def2tzvp\\DATS_13_endo_iv_TZVPcreated by GaussianPrep\\0,1\C,0,-2.2
 26258,0.398227,-0.369848\C,0,-1.842722,-1.643016,0.059106\C,0,0.282917
 ,-0.2257,1.273293\C,0,-1.293201,1.197469,0.278895\H,0,-2.145034,0.2795
 33,-1.44638\H,0,-3.237572,0.340653,0.02009\H,0,-1.513654,1.657068,1.23
 813\C,0,-0.536273,-1.819467,-0.352997\C,0,0.520656,-1.086944,0.223499\
 H,0,-2.634616,-2.157352,-0.477956\H,0,1.034658,0.460009,1.644739\H,0,-
 2.070644,-1.44195,1.100513\H,0,-0.53073,-0.442446,1.950905\C,0,-0.1765
 68,1.776505,-0.47937\O,0,0.524552,2.697536,-0.115488\H,0,0.003365,1.27
 6293,-1.458992\O,0,1.675077,-1.108275,-0.500524\H,0,-0.325902,-2.30179
 8,-1.303854\C,0,2.733209,-0.286766,-0.049381\H,0,2.464306,0.775349,-0.
 102802\H,0,3.015642,-0.537845,0.980573\H,0,3.572596,-0.483441,-0.71605
 6\\Version=AS64L-G16RevC.01\State=1-A\HF=-462.3698718\RMSD=5.478e-09\D
 ipole=-0.6468346,-0.957662,0.1870126\Quadrupole=6.7792525,-9.5495782,2
 .7703256,0.1317964,0.3512266,0.7762715\PG=C01 [X(C8H12O2)]\\@
 The archive entry for this job was punched.


 ON A TOMBSTONE, "HERE LIES LESTER MOORE,
 FOUR SLUGS FROM A 44, NO LES, NO MORE".
 Job cpu time:       0 days  0 hours 16 minutes 15.0 seconds.
 Elapsed time:       0 days  0 hours  1 minutes  3.8 seconds.
 File lengths (MBytes):  RWF=     83 Int=      0 D2E=      0 Chk=     10 Scr=      1
 Normal termination of Gaussian 16 at Tue Jun 21 11:23:50 2022.
