Job Start Time: Tue Jun 21 11:22:46 MDT 2022
SLURM Job ID: 40888
SLURM Job Name: DATS_13_exo_i_TZVP
 Entering Gaussian System, Link 0=/opt/apps/Gaussian/G16C/g16/g16
 Initial command:
 /opt/apps/Gaussian/G16C/g16/l1.exe "/tmp/Gau-2333301.inp" -scrdir="/tmp/"
 Entering Link 1 = /opt/apps/Gaussian/G16C/g16/l1.exe PID=   2333302.
  
 Copyright (c) 1988-2019, Gaussian, Inc.  All Rights Reserved.
  
 This is part of the Gaussian(R) 16 program.  It is based on
 the Gaussian(R) 09 system (copyright 2009, Gaussian, Inc.),
 the Gaussian(R) 03 system (copyright 2003, Gaussian, Inc.),
 the Gaussian(R) 98 system (copyright 1998, Gaussian, Inc.),
 the Gaussian(R) 94 system (copyright 1995, Gaussian, Inc.),
 the Gaussian 92(TM) system (copyright 1992, Gaussian, Inc.),
 the Gaussian 90(TM) system (copyright 1990, Gaussian, Inc.),
 the Gaussian 88(TM) system (copyright 1988, Gaussian, Inc.),
 the Gaussian 86(TM) system (copyright 1986, Carnegie Mellon
 University), and the Gaussian 82(TM) system (copyright 1983,
 Carnegie Mellon University). Gaussian is a federally registered
 trademark of Gaussian, Inc.
  
 This software contains proprietary and confidential information,
 including trade secrets, belonging to Gaussian, Inc.
  
 This software is provided under written license and may be
 used, copied, transmitted, or stored only in accord with that
 written license.
  
 The following legend is applicable only to US Government
 contracts under FAR:
  
                    RESTRICTED RIGHTS LEGEND
  
 Use, reproduction and disclosure by the US Government is
 subject to restrictions as set forth in subparagraphs (a)
 and (c) of the Commercial Computer Software - Restricted
 Rights clause in FAR 52.227-19.
  
 Gaussian, Inc.
 340 Quinnipiac St., Bldg. 40, Wallingford CT 06492
  
  
 ---------------------------------------------------------------
 Warning -- This program may not be used in any manner that
 competes with the business of Gaussian, Inc. or will provide
 assistance to any competitor of Gaussian, Inc.  The licensee
 of this program is prohibited from giving any competitor of
 Gaussian, Inc. access to this program.  By using this program,
 the user acknowledges that Gaussian, Inc. is engaged in the
 business of creating and licensing software in the field of
 computational chemistry and represents and warrants to the
 licensee that it is not a competitor of Gaussian, Inc. and that
 it will not use this program in any manner prohibited above.
 ---------------------------------------------------------------
  

 Cite this work as:
 Gaussian 16, Revision C.01,
 M. J. Frisch, G. W. Trucks, H. B. Schlegel, G. E. Scuseria, 
 M. A. Robb, J. R. Cheeseman, G. Scalmani, V. Barone, 
 G. A. Petersson, H. Nakatsuji, X. Li, M. Caricato, A. V. Marenich, 
 J. Bloino, B. G. Janesko, R. Gomperts, B. Mennucci, H. P. Hratchian, 
 J. V. Ortiz, A. F. Izmaylov, J. L. Sonnenberg, D. Williams-Young, 
 F. Ding, F. Lipparini, F. Egidi, J. Goings, B. Peng, A. Petrone, 
 T. Henderson, D. Ranasinghe, V. G. Zakrzewski, J. Gao, N. Rega, 
 G. Zheng, W. Liang, M. Hada, M. Ehara, K. Toyota, R. Fukuda, 
 J. Hasegawa, M. Ishida, T. Nakajima, Y. Honda, O. Kitao, H. Nakai, 
 T. Vreven, K. Throssell, J. A. Montgomery, Jr., J. E. Peralta, 
 F. Ogliaro, M. J. Bearpark, J. J. Heyd, E. N. Brothers, K. N. Kudin, 
 V. N. Staroverov, T. A. Keith, R. Kobayashi, J. Normand, 
 K. Raghavachari, A. P. Rendell, J. C. Burant, S. S. Iyengar, 
 J. Tomasi, M. Cossi, J. M. Millam, M. Klene, C. Adamo, R. Cammi, 
 J. W. Ochterski, R. L. Martin, K. Morokuma, O. Farkas, 
 J. B. Foresman, and D. J. Fox, Gaussian, Inc., Wallingford CT, 2019.
 
 ******************************************
 Gaussian 16:  AS64L-G16RevC.01  3-Jul-2019
                21-Jun-2022 
 ******************************************
 %chk=DATS_13_exo_i_TZVP.chk
 %mem=48GB
 %nprocshared=16
 Will use up to   16 processors via shared memory.
 ----------------
 # M062X/def2tzvp
 ----------------
 1/38=1,172=1/1;
 2/12=2,17=6,18=5,40=1/2;
 3/5=44,7=101,11=2,25=1,30=1,74=-55/1,2,3;
 4//1;
 5/5=2,38=5/2;
 6/7=2,8=2,9=2,10=2,28=1/1;
 99/5=1,9=1/99;
 -----------------------------------------
 DATS_13_exo_i_TZVPcreated by GaussianPrep
 -----------------------------------------
 Symbolic Z-matrix:
 Charge =  0 Multiplicity = 1
 C                    -1.30394   1.12834   1.00929 
 C                    -0.21994   1.64246  -0.7368 
 C                     0.12967  -1.18038  -0.70518 
 C                    -1.40652  -0.24926   1.0486 
 H                    -0.6921    1.64713   1.73869 
 H                    -2.14868   1.68129   0.60835 
 H                    -0.84722  -0.84728   1.75868 
 C                     1.02113   1.07437  -0.53753 
 C                     1.17988  -0.33181  -0.46571 
 H                    -0.29974   2.72589  -0.7426 
 H                     0.26434  -2.24254  -0.52857 
 H                    -0.99902   1.1284   -1.29336 
 H                    -0.68452  -0.88081  -1.34905 
 C                    -2.47435  -0.89378   0.28352 
 O                    -3.11938  -0.32424  -0.57942 
 H                    -2.65792  -1.96472   0.50494 
 O                     2.32425  -0.91707   0.00173 
 C                     3.35387  -0.08621   0.48607 
 H                     4.14119  -0.75556   0.83332 
 H                     3.75734   0.56085  -0.30235 
 H                     3.0135    0.53647   1.32305 
 H                     1.83505   1.71904  -0.22311 
 
                          Input orientation:                          
 ---------------------------------------------------------------------
 Center     Atomic      Atomic             Coordinates (Angstroms)
 Number     Number       Type             X           Y           Z
 ---------------------------------------------------------------------
      1          6           0       -1.303938    1.128337    1.009288
      2          6           0       -0.219940    1.642456   -0.736804
      3          6           0        0.129669   -1.180381   -0.705184
      4          6           0       -1.406518   -0.249262    1.048597
      5          1           0       -0.692104    1.647131    1.738688
      6          1           0       -2.148685    1.681289    0.608350
      7          1           0       -0.847223   -0.847279    1.758677
      8          6           0        1.021130    1.074371   -0.537530
      9          6           0        1.179881   -0.331808   -0.465705
     10          1           0       -0.299740    2.725889   -0.742598
     11          1           0        0.264344   -2.242544   -0.528572
     12          1           0       -0.999016    1.128395   -1.293358
     13          1           0       -0.684516   -0.880813   -1.349053
     14          6           0       -2.474354   -0.893776    0.283519
     15          8           0       -3.119375   -0.324243   -0.579418
     16          1           0       -2.657923   -1.964723    0.504944
     17          8           0        2.324247   -0.917067    0.001728
     18          6           0        3.353873   -0.086213    0.486074
     19          1           0        4.141189   -0.755561    0.833321
     20          1           0        3.757336    0.560846   -0.302352
     21          1           0        3.013504    0.536470    1.323049
     22          1           0        1.835046    1.719041   -0.223108
 ---------------------------------------------------------------------
                    Distance matrix (angstroms):
                    1          2          3          4          5
     1  C    0.000000
     2  C    2.118539   0.000000
     3  C    3.213226   2.844580   0.000000
     4  C    1.381972   2.859059   2.510498   0.000000
     5  H    1.084211   2.520123   3.826571   2.140775   0.000000
     6  H    1.086326   2.351809   3.886570   2.114629   1.844033
     7  H    2.161766   3.580459   2.671308   1.083812   2.499308
     8  C    2.793116   1.379379   2.430374   3.187676   2.905924
     9  C    3.236817   2.435305   1.371266   2.998230   3.504265
    10  H    2.574819   1.086383   3.929979   3.644840   2.733944
    11  H    4.023352   3.920602   1.085136   3.041778   4.602698
    12  H    2.322748   1.086725   2.636347   2.747499   3.091373
    13  H    3.159452   2.637720   1.080373   2.582415   3.990577
    14  C    2.446539   3.543433   2.800109   1.463221   3.427848
    15  O    2.815988   3.507050   3.362302   2.364304   3.892502
    16  H    3.413892   4.527410   3.138514   2.191889   4.293257
    17  O    4.285158   3.683677   2.320610   3.931985   4.323253
    18  C    4.841910   4.154018   3.607186   4.796284   4.576402
    19  H    5.764499   5.218738   4.317379   5.574920   5.472964
    20  H    5.259177   4.144557   4.044022   5.398771   5.014317
    21  H    4.369103   3.990158   3.921455   4.497699   3.890740
    22  H    3.423588   2.119603   3.398140   3.999898   3.200047
                    6          7          8          9         10
     6  H    0.000000
     7  H    3.067688   0.000000
     8  C    3.424780   3.529313   0.000000
     9  C    4.035530   3.053316   1.416933   0.000000
    10  H    2.516912   4.395867   2.124679   3.408146   0.000000
    11  H    4.744657   2.900664   3.402166   2.119687   5.004930
    12  H    2.289962   3.638852   2.157588   2.750417   1.828746
    13  H    3.541128   3.112167   2.718555   2.134874   3.677518
    14  C    2.615824   2.196772   4.094647   3.772344   4.345554
    15  O    2.524914   3.301958   4.370544   4.300766   4.156955
    16  H    3.682855   2.469648   4.884493   4.282209   5.396224
    17  O    5.208317   3.626288   2.440233   1.367697   4.550874
    18  C    5.780758   4.455104   2.799359   2.385884   4.771419
    19  H    6.749175   5.074342   3.868159   3.261346   5.858828
    20  H    6.079955   5.237616   2.793893   2.732543   4.619642
    21  H    5.335691   4.124287   2.778605   2.704759   4.476387
    22  H    4.069749   4.208092   1.084859   2.166582   2.416800
                   11         12         13         14         15
    11  H    0.000000
    12  H    3.680245   0.000000
    13  H    1.851442   2.034436   0.000000
    14  C    3.158977   2.958435   2.422598   0.000000
    15  O    3.889990   2.667544   2.613551   1.218639   0.000000
    16  H    3.112071   3.943760   2.916591   1.108898   2.019889
    17  O    2.506254   4.111598   3.298269   4.806924   5.506559
    18  C    3.901853   4.856881   4.506403   5.887395   6.564668
    19  H    4.369874   5.873139   5.297723   6.639789   7.409295
    20  H    4.484547   4.891532   4.785814   6.425973   6.938970
    21  H    4.325425   4.826622   4.777465   5.765658   6.478612
    22  H    4.272537   3.086455   3.791462   5.065018   5.371057
                   16         17         18         19         20
    16  H    0.000000
    17  O    5.115939   0.000000
    18  C    6.298480   1.408914   0.000000
    19  H    6.913597   2.004722   1.090171   0.000000
    20  H    6.941597   2.080970   1.096852   1.780456   0.000000
    21  H    6.252227   2.081762   1.097321   1.783494   1.787682
    22  H    5.855506   2.690527   2.463477   3.543726   2.245639
                   21         22
    21  H    0.000000
    22  H    2.275487   0.000000
 Stoichiometry    C8H12O2
 Framework group  C1[X(C8H12O2)]
 Deg. of freedom    60
 Full point group                 C1      NOp   1
 Largest Abelian subgroup         C1      NOp   1
 Largest concise Abelian subgroup C1      NOp   1
                         Standard orientation:                         
 ---------------------------------------------------------------------
 Center     Atomic      Atomic             Coordinates (Angstroms)
 Number     Number       Type             X           Y           Z
 ---------------------------------------------------------------------
      1          6           0       -1.303938    1.128337    1.009288
      2          6           0       -0.219940    1.642456   -0.736804
      3          6           0        0.129669   -1.180381   -0.705184
      4          6           0       -1.406518   -0.249262    1.048597
      5          1           0       -0.692104    1.647131    1.738688
      6          1           0       -2.148685    1.681289    0.608350
      7          1           0       -0.847223   -0.847279    1.758677
      8          6           0        1.021130    1.074371   -0.537530
      9          6           0        1.179881   -0.331808   -0.465705
     10          1           0       -0.299740    2.725889   -0.742598
     11          1           0        0.264344   -2.242544   -0.528572
     12          1           0       -0.999016    1.128395   -1.293358
     13          1           0       -0.684516   -0.880813   -1.349053
     14          6           0       -2.474354   -0.893776    0.283519
     15          8           0       -3.119375   -0.324243   -0.579418
     16          1           0       -2.657923   -1.964723    0.504944
     17          8           0        2.324247   -0.917067    0.001728
     18          6           0        3.353873   -0.086213    0.486074
     19          1           0        4.141189   -0.755561    0.833321
     20          1           0        3.757336    0.560846   -0.302352
     21          1           0        3.013504    0.536470    1.323049
     22          1           0        1.835046    1.719041   -0.223108
 ---------------------------------------------------------------------
 Rotational constants (GHZ):           2.5165619           0.7774571           0.7046791
 Standard basis: def2TZVP (5D, 7F)
 There are   432 symmetry adapted cartesian basis functions of A   symmetry.
 There are   382 symmetry adapted basis functions of A   symmetry.
   382 basis functions,   606 primitive gaussians,   432 cartesian basis functions
    38 alpha electrons       38 beta electrons
       nuclear repulsion energy       526.7336951158 Hartrees.
 NAtoms=   22 NActive=   22 NUniq=   22 SFac= 1.00D+00 NAtFMM=   60 NAOKFM=F Big=F
 Integral buffers will be    131072 words long.
 Raffenetti 2 integral format.
 Two-electron integral symmetry is turned on.
 One-electron integrals computed using PRISM.
   1 Symmetry operations used in ECPInt.
 ECPInt:  NShTT=   12561 NPrTT=   37384 LenC2=   12086 LenP2D=   28103.
 LDataN:  DoStor=T MaxTD1= 6 Len=  172
 NBasis=   382 RedAO= T EigKep=  5.93D-05  NBF=   382
 NBsUse=   382 1.00D-06 EigRej= -1.00D+00 NBFU=   382
 ExpMin= 9.52D-02 ExpMax= 2.70D+04 ExpMxC= 9.22D+02 IAcc=3 IRadAn=         5 AccDes= 0.00D+00
 Harris functional with IExCor= 1009 and IRadAn=       5 diagonalized for initial guess.
 HarFok:  IExCor= 1009 AccDes= 0.00D+00 IRadAn=         5 IDoV= 1 UseB2=F ITyADJ=14
 ICtDFT=  3500011 ScaDFX=  1.000000  1.000000  1.000000  1.000000
 FoFCou: FMM=F IPFlag=           0 FMFlag=      100000 FMFlg1=           0
         NFxFlg=           0 DoJE=T BraDBF=F KetDBF=T FulRan=T
         wScrn=  0.000000 ICntrl=       500 IOpCl=  0 I1Cent=   200000004 NGrid=           0
         NMat0=    1 NMatS0=      1 NMatT0=    0 NMatD0=    1 NMtDS0=    0 NMtDT0=    0
 Petite list used in FoFCou.
 Requested convergence on RMS density matrix=1.00D-08 within 128 cycles.
 Requested convergence on MAX density matrix=1.00D-06.
 Requested convergence on             energy=1.00D-06.
 No special actions if energy rises.
 Integral accuracy reduced to 1.0D-05 until final iterations.
 Initial convergence to 1.0D-05 achieved.  Increase integral accuracy.
 SCF Done:  E(RM062X) =  -462.367190176     A.U. after   15 cycles
            NFock= 15  Conv=0.97D-08     -V/T= 2.0051

 **********************************************************************

            Population analysis using the SCF Density.

 **********************************************************************

 Orbital symmetries:
       Occupied  (A) (A) (A) (A) (A) (A) (A) (A) (A) (A) (A) (A)
                 (A) (A) (A) (A) (A) (A) (A) (A) (A) (A) (A) (A)
                 (A) (A) (A) (A) (A) (A) (A) (A) (A) (A) (A) (A)
                 (A) (A)
       Virtual   (A) (A) (A) (A) (A) (A) (A) (A) (A) (A) (A) (A)
                 (A) (A) (A) (A) (A) (A) (A) (A) (A) (A) (A) (A)
                 (A) (A) (A) (A) (A) (A) (A) (A) (A) (A) (A) (A)
                 (A) (A) (A) (A) (A) (A) (A) (A) (A) (A) (A) (A)
                 (A) (A) (A) (A) (A) (A) (A) (A) (A) (A) (A) (A)
                 (A) (A) (A) (A) (A) (A) (A) (A) (A) (A) (A) (A)
                 (A) (A) (A) (A) (A) (A) (A) (A) (A) (A) (A) (A)
                 (A) (A) (A) (A) (A) (A) (A) (A) (A) (A) (A) (A)
                 (A) (A) (A) (A) (A) (A) (A) (A) (A) (A) (A) (A)
                 (A) (A) (A) (A) (A) (A) (A) (A) (A) (A) (A) (A)
                 (A) (A) (A) (A) (A) (A) (A) (A) (A) (A) (A) (A)
                 (A) (A) (A) (A) (A) (A) (A) (A) (A) (A) (A) (A)
                 (A) (A) (A) (A) (A) (A) (A) (A) (A) (A) (A) (A)
                 (A) (A) (A) (A) (A) (A) (A) (A) (A) (A) (A) (A)
                 (A) (A) (A) (A) (A) (A) (A) (A) (A) (A) (A) (A)
                 (A) (A) (A) (A) (A) (A) (A) (A) (A) (A) (A) (A)
                 (A) (A) (A) (A) (A) (A) (A) (A) (A) (A) (A) (A)
                 (A) (A) (A) (A) (A) (A) (A) (A) (A) (A) (A) (A)
                 (A) (A) (A) (A) (A) (A) (A) (A) (A) (A) (A) (A)
                 (A) (A) (A) (A) (A) (A) (A) (A) (A) (A) (A) (A)
                 (A) (A) (A) (A) (A) (A) (A) (A) (A) (A) (A) (A)
                 (A) (A) (A) (A) (A) (A) (A) (A) (A) (A) (A) (A)
                 (A) (A) (A) (A) (A) (A) (A) (A) (A) (A) (A) (A)
                 (A) (A) (A) (A) (A) (A) (A) (A) (A) (A) (A) (A)
                 (A) (A) (A) (A) (A) (A) (A) (A) (A) (A) (A) (A)
                 (A) (A) (A) (A) (A) (A) (A) (A) (A) (A) (A) (A)
                 (A) (A) (A) (A) (A) (A) (A) (A) (A) (A) (A) (A)
                 (A) (A) (A) (A) (A) (A) (A) (A) (A) (A) (A) (A)
                 (A) (A) (A) (A) (A) (A) (A) (A)
 The electronic state is 1-A.
 Alpha  occ. eigenvalues --  -19.65868 -19.60841 -10.61632 -10.60630 -10.59589
 Alpha  occ. eigenvalues --  -10.56310 -10.55580 -10.55331 -10.54645 -10.54565
 Alpha  occ. eigenvalues --   -1.19548  -1.15374  -0.92865  -0.87647  -0.84905
 Alpha  occ. eigenvalues --   -0.78347  -0.74117  -0.72355  -0.62826  -0.61372
 Alpha  occ. eigenvalues --   -0.60140  -0.57998  -0.56230  -0.55555  -0.51607
 Alpha  occ. eigenvalues --   -0.50329  -0.48722  -0.48323  -0.47389  -0.46262
 Alpha  occ. eigenvalues --   -0.45168  -0.43619  -0.42937  -0.40484  -0.38875
 Alpha  occ. eigenvalues --   -0.32442  -0.28588  -0.28232
 Alpha virt. eigenvalues --   -0.03539   0.01041   0.05871   0.08156   0.08564
 Alpha virt. eigenvalues --    0.09506   0.10419   0.11234   0.12769   0.12990
 Alpha virt. eigenvalues --    0.13587   0.13997   0.14362   0.15258   0.16580
 Alpha virt. eigenvalues --    0.16729   0.20060   0.20947   0.21148   0.21951
 Alpha virt. eigenvalues --    0.23237   0.23486   0.23981   0.25395   0.26499
 Alpha virt. eigenvalues --    0.27578   0.28094   0.29271   0.30109   0.31891
 Alpha virt. eigenvalues --    0.33306   0.34024   0.35041   0.36191   0.37369
 Alpha virt. eigenvalues --    0.38204   0.38539   0.39709   0.40787   0.41354
 Alpha virt. eigenvalues --    0.42227   0.43310   0.43912   0.44207   0.45195
 Alpha virt. eigenvalues --    0.46003   0.47136   0.47963   0.48134   0.48447
 Alpha virt. eigenvalues --    0.49099   0.50209   0.50645   0.51739   0.52004
 Alpha virt. eigenvalues --    0.53745   0.55336   0.56962   0.58184   0.58552
 Alpha virt. eigenvalues --    0.59519   0.59897   0.61768   0.63709   0.64243
 Alpha virt. eigenvalues --    0.64414   0.66227   0.66480   0.67921   0.69745
 Alpha virt. eigenvalues --    0.70514   0.72228   0.73272   0.75067   0.77400
 Alpha virt. eigenvalues --    0.79494   0.80233   0.81930   0.82966   0.85130
 Alpha virt. eigenvalues --    0.87393   0.89470   0.90975   0.92297   0.95637
 Alpha virt. eigenvalues --    0.96138   0.96967   0.98211   0.98549   0.99999
 Alpha virt. eigenvalues --    1.02869   1.04011   1.04718   1.05940   1.07403
 Alpha virt. eigenvalues --    1.08447   1.10869   1.11914   1.13969   1.15348
 Alpha virt. eigenvalues --    1.17249   1.19114   1.20004   1.21136   1.22786
 Alpha virt. eigenvalues --    1.24196   1.27019   1.27749   1.29787   1.30261
 Alpha virt. eigenvalues --    1.34081   1.36675   1.38354   1.41191   1.41619
 Alpha virt. eigenvalues --    1.43929   1.47144   1.49008   1.49409   1.50593
 Alpha virt. eigenvalues --    1.52604   1.53890   1.54648   1.55508   1.57774
 Alpha virt. eigenvalues --    1.58105   1.59938   1.61832   1.62237   1.63780
 Alpha virt. eigenvalues --    1.63972   1.65073   1.67732   1.68337   1.69897
 Alpha virt. eigenvalues --    1.70444   1.73691   1.74628   1.75675   1.77915
 Alpha virt. eigenvalues --    1.79219   1.80522   1.82257   1.82482   1.85002
 Alpha virt. eigenvalues --    1.85777   1.87343   1.89470   1.93665   1.93760
 Alpha virt. eigenvalues --    1.95744   1.97251   1.98857   1.99718   2.00264
 Alpha virt. eigenvalues --    2.02867   2.04640   2.07060   2.09085   2.10214
 Alpha virt. eigenvalues --    2.11541   2.14941   2.15469   2.19109   2.20137
 Alpha virt. eigenvalues --    2.22259   2.23230   2.27413   2.28594   2.29351
 Alpha virt. eigenvalues --    2.30087   2.31993   2.34895   2.35546   2.37434
 Alpha virt. eigenvalues --    2.38605   2.40927   2.42461   2.42873   2.45299
 Alpha virt. eigenvalues --    2.47527   2.50004   2.50779   2.52228   2.53188
 Alpha virt. eigenvalues --    2.53640   2.55966   2.56450   2.58316   2.59386
 Alpha virt. eigenvalues --    2.60066   2.62021   2.63147   2.63490   2.65869
 Alpha virt. eigenvalues --    2.66838   2.68065   2.70316   2.70896   2.72246
 Alpha virt. eigenvalues --    2.73729   2.75205   2.78138   2.79748   2.80236
 Alpha virt. eigenvalues --    2.81922   2.82416   2.84295   2.84793   2.85919
 Alpha virt. eigenvalues --    2.88468   2.91201   2.91650   2.93301   2.94865
 Alpha virt. eigenvalues --    2.96431   2.97211   3.00260   3.00873   3.03927
 Alpha virt. eigenvalues --    3.07151   3.07199   3.08920   3.10272   3.11850
 Alpha virt. eigenvalues --    3.12636   3.13366   3.14251   3.16614   3.18550
 Alpha virt. eigenvalues --    3.19868   3.20196   3.22604   3.23661   3.24449
 Alpha virt. eigenvalues --    3.24844   3.26031   3.26900   3.28535   3.31097
 Alpha virt. eigenvalues --    3.31956   3.33062   3.33607   3.34605   3.34833
 Alpha virt. eigenvalues --    3.37281   3.38130   3.39562   3.41325   3.41388
 Alpha virt. eigenvalues --    3.44204   3.45246   3.45721   3.47869   3.48686
 Alpha virt. eigenvalues --    3.50083   3.52870   3.53242   3.54760   3.55450
 Alpha virt. eigenvalues --    3.58297   3.59389   3.60284   3.63502   3.67127
 Alpha virt. eigenvalues --    3.67924   3.69096   3.70768   3.75251   3.76903
 Alpha virt. eigenvalues --    3.80140   3.82166   3.82984   3.90938   3.91979
 Alpha virt. eigenvalues --    3.97259   4.01314   4.03601   4.05192   4.09283
 Alpha virt. eigenvalues --    4.11254   4.12493   4.13749   4.14428   4.16330
 Alpha virt. eigenvalues --    4.19539   4.20998   4.24525   4.26711   4.29341
 Alpha virt. eigenvalues --    4.31207   4.32673   4.36724   4.41347   4.45485
 Alpha virt. eigenvalues --    4.48010   4.52567   4.54807   4.57169   4.66705
 Alpha virt. eigenvalues --    4.69063   4.73150   4.78644   4.82018   4.83987
 Alpha virt. eigenvalues --    4.84687   4.88803   4.91207   5.00299   5.10045
 Alpha virt. eigenvalues --    5.22815   5.23886   5.36455   5.48238   5.57285
 Alpha virt. eigenvalues --    5.67969   5.75586   5.89286   5.89802   6.06696
 Alpha virt. eigenvalues --    6.23976   6.30077   6.38873   6.40019   6.42693
 Alpha virt. eigenvalues --    6.49152   6.64003   6.75582   6.82573   6.85114
 Alpha virt. eigenvalues --    6.96820   7.06574   7.13516   7.33090  22.35777
 Alpha virt. eigenvalues --   22.46568  22.49728  22.56437  22.73408  22.80964
 Alpha virt. eigenvalues --   22.95342  23.12326  44.02317  44.34447
          Condensed to atoms (all electrons):
               1          2          3          4          5          6
     1  C    5.326567   0.027057  -0.012780   0.237053   0.428407   0.439281
     2  C    0.027057   5.324808  -0.059736   0.039240  -0.016304  -0.036517
     3  C   -0.012780  -0.059736   5.479402   0.068876   0.002998   0.006739
     4  C    0.237053   0.039240   0.068876   5.810839  -0.055796  -0.051768
     5  H    0.428407  -0.016304   0.002998  -0.055796   0.493098  -0.015819
     6  H    0.439281  -0.036517   0.006739  -0.051768  -0.015819   0.456996
     7  H   -0.028506   0.001276  -0.021846   0.398989  -0.004534   0.001912
     8  C   -0.058120   0.302818  -0.032360  -0.046890  -0.002472  -0.001333
     9  C   -0.025936  -0.003512   0.324325   0.010101  -0.000592   0.000799
    10  H   -0.016639   0.421031   0.002166   0.001869  -0.000812   0.000480
    11  H    0.001511  -0.002255   0.422650  -0.005743   0.000007  -0.000052
    12  H   -0.036633   0.435755  -0.000784  -0.034957   0.003516  -0.005645
    13  H   -0.014618   0.002112   0.403194  -0.026850  -0.000265  -0.000575
    14  C   -0.008953  -0.003219  -0.017541   0.170777   0.005128  -0.002080
    15  O    0.041268  -0.015651  -0.022625  -0.171507   0.000876   0.004951
    16  H    0.024240  -0.002284   0.006390  -0.187081   0.000077   0.000651
    17  O    0.002825   0.007516  -0.074065  -0.002616  -0.000269  -0.000002
    18  C    0.000507  -0.002636   0.001647   0.000331   0.000013  -0.000022
    19  H   -0.000025   0.000191   0.000035  -0.000005   0.000000  -0.000000
    20  H    0.000518   0.000565  -0.000587  -0.000119  -0.000048   0.000001
    21  H   -0.002012  -0.002445   0.001756   0.000919   0.000364   0.000003
    22  H   -0.001637  -0.019725   0.003045   0.000312   0.001063  -0.000207
               7          8          9         10         11         12
     1  C   -0.028506  -0.058120  -0.025936  -0.016639   0.001511  -0.036633
     2  C    0.001276   0.302818  -0.003512   0.421031  -0.002255   0.435755
     3  C   -0.021846  -0.032360   0.324325   0.002166   0.422650  -0.000784
     4  C    0.398989  -0.046890   0.010101   0.001869  -0.005743  -0.034957
     5  H   -0.004534  -0.002472  -0.000592  -0.000812   0.000007   0.003516
     6  H    0.001912  -0.001333   0.000799   0.000480  -0.000052  -0.005645
     7  H    0.499495   0.000400  -0.006835  -0.000159  -0.000038   0.000011
     8  C    0.000400   5.429179   0.269954  -0.045106   0.010312  -0.052385
     9  C   -0.006835   0.269954   4.998182   0.003245  -0.058038  -0.002381
    10  H   -0.000159  -0.045106   0.003245   0.486044   0.000004  -0.010158
    11  H   -0.000038   0.010312  -0.058038   0.000004   0.468011   0.000360
    12  H    0.000011  -0.052385  -0.002381  -0.010158   0.000360   0.463737
    13  H    0.001918   0.012664  -0.061266  -0.000094  -0.008382   0.003091
    14  C   -0.022360  -0.001413   0.001173   0.000260   0.000954   0.005924
    15  O    0.004898   0.001282   0.002291   0.000153   0.000033   0.019271
    16  H    0.000195   0.000214  -0.000888   0.000010   0.000054   0.001603
    17  O    0.002896  -0.075063   0.344911  -0.000127   0.007356  -0.000163
    18  C    0.000128  -0.004318  -0.081508  -0.000082   0.000367   0.000090
    19  H   -0.000012   0.000081   0.006165  -0.000001  -0.000181   0.000001
    20  H    0.000079  -0.002615  -0.010644  -0.000077   0.000121  -0.000061
    21  H   -0.000556   0.009413  -0.009501   0.000132   0.000058   0.000060
    22  H   -0.000003   0.434262  -0.060065  -0.004106  -0.000095   0.001792
              13         14         15         16         17         18
     1  C   -0.014618  -0.008953   0.041268   0.024240   0.002825   0.000507
     2  C    0.002112  -0.003219  -0.015651  -0.002284   0.007516  -0.002636
     3  C    0.403194  -0.017541  -0.022625   0.006390  -0.074065   0.001647
     4  C   -0.026850   0.170777  -0.171507  -0.187081  -0.002616   0.000331
     5  H   -0.000265   0.005128   0.000876   0.000077  -0.000269   0.000013
     6  H   -0.000575  -0.002080   0.004951   0.000651  -0.000002  -0.000022
     7  H    0.001918  -0.022360   0.004898   0.000195   0.002896   0.000128
     8  C    0.012664  -0.001413   0.001282   0.000214  -0.075063  -0.004318
     9  C   -0.061266   0.001173   0.002291  -0.000888   0.344911  -0.081508
    10  H   -0.000094   0.000260   0.000153   0.000010  -0.000127  -0.000082
    11  H   -0.008382   0.000954   0.000033   0.000054   0.007356   0.000367
    12  H    0.003091   0.005924   0.019271   0.001603  -0.000163   0.000090
    13  H    0.458416   0.005422   0.012146  -0.002569   0.001547  -0.000206
    14  C    0.005422   4.692481   0.606448   0.486939  -0.000043   0.000006
    15  O    0.012146   0.606448   7.912789  -0.053225  -0.000003   0.000004
    16  H   -0.002569   0.486939  -0.053225   0.620094  -0.000031  -0.000001
    17  O    0.001547  -0.000043  -0.000003  -0.000031   7.957949   0.233524
    18  C   -0.000206   0.000006   0.000004  -0.000001   0.233524   4.914220
    19  H    0.000015   0.000002   0.000000   0.000000  -0.032161   0.402200
    20  H    0.000074  -0.000006  -0.000000  -0.000000  -0.039645   0.422476
    21  H   -0.000106   0.000001  -0.000000   0.000001  -0.043713   0.410962
    22  H    0.000330  -0.000060  -0.000019  -0.000001  -0.005117   0.003420
              19         20         21         22
     1  C   -0.000025   0.000518  -0.002012  -0.001637
     2  C    0.000191   0.000565  -0.002445  -0.019725
     3  C    0.000035  -0.000587   0.001756   0.003045
     4  C   -0.000005  -0.000119   0.000919   0.000312
     5  H    0.000000  -0.000048   0.000364   0.001063
     6  H   -0.000000   0.000001   0.000003  -0.000207
     7  H   -0.000012   0.000079  -0.000556  -0.000003
     8  C    0.000081  -0.002615   0.009413   0.434262
     9  C    0.006165  -0.010644  -0.009501  -0.060065
    10  H   -0.000001  -0.000077   0.000132  -0.004106
    11  H   -0.000181   0.000121   0.000058  -0.000095
    12  H    0.000001  -0.000061   0.000060   0.001792
    13  H    0.000015   0.000074  -0.000106   0.000330
    14  C    0.000002  -0.000006   0.000001  -0.000060
    15  O    0.000000  -0.000000  -0.000000  -0.000019
    16  H    0.000000  -0.000000   0.000001  -0.000001
    17  O   -0.032161  -0.039645  -0.043713  -0.005117
    18  C    0.402200   0.422476   0.410962   0.003420
    19  H    0.509888  -0.021177  -0.018775   0.000135
    20  H   -0.021177   0.563418  -0.060579  -0.002956
    21  H   -0.018775  -0.060579   0.570904  -0.002393
    22  H    0.000135  -0.002956  -0.002393   0.494500
 Mulliken charges:
               1
     1  C   -0.323375
     2  C   -0.398086
     3  C   -0.480900
     4  C   -0.155974
     5  H    0.161363
     6  H    0.202207
     7  H    0.172648
     8  C   -0.148502
     9  C    0.360020
    10  H    0.161966
    11  H    0.162987
    12  H    0.207958
    13  H    0.214002
    14  C    0.080158
    15  O   -0.343377
    16  H    0.105612
    17  O   -0.285507
    18  C   -0.301121
    19  H    0.153625
    20  H    0.151262
    21  H    0.145509
    22  H    0.157524
 Sum of Mulliken charges =  -0.00000
 Mulliken charges with hydrogens summed into heavy atoms:
               1
     1  C    0.040195
     2  C   -0.028161
     3  C   -0.103911
     4  C    0.016674
     8  C    0.009023
     9  C    0.360020
    14  C    0.185770
    15  O   -0.343377
    17  O   -0.285507
    18  C    0.149275
 Electronic spatial extent (au):  <R**2>=           1717.4657
 Charge=             -0.0000 electrons
 Dipole moment (field-independent basis, Debye):
    X=              3.3025    Y=              1.2055    Z=              1.9473  Tot=              4.0189
 Quadrupole moment (field-independent basis, Debye-Ang):
   XX=            -66.9909   YY=            -56.6269   ZZ=            -62.9138
   XY=              3.0927   XZ=             -1.1118   YZ=             -0.6692
 Traceless Quadrupole moment (field-independent basis, Debye-Ang):
   XX=             -4.8137   YY=              5.5503   ZZ=             -0.7366
   XY=              3.0927   XZ=             -1.1118   YZ=             -0.6692
 Octapole moment (field-independent basis, Debye-Ang**2):
  XXX=             71.2431  YYY=             -0.8164  ZZZ=              2.4525  XYY=             -8.4622
  XXY=              4.0216  XXZ=             19.7795  XZZ=              3.1966  YZZ=             -2.0636
  YYZ=              1.3227  XYZ=              2.3833
 Hexadecapole moment (field-independent basis, Debye-Ang**3):
 XXXX=          -1584.1666 YYYY=           -419.9427 ZZZZ=           -272.5541 XXXY=             -4.4956
 XXXZ=            -13.5763 YYYX=              1.1259 YYYZ=             -1.1478 ZZZX=             21.1292
 ZZZY=              2.2185 XXYY=           -322.5133 XXZZ=           -314.4413 YYZZ=           -121.3511
 XXYZ=            -14.2893 YYXZ=              3.4684 ZZXY=             -2.3647
 N-N= 5.267336951158D+02 E-N=-2.131322116171D+03  KE= 4.600412911150D+02
 Unable to Open any file for archive entry.
 1\1\GINC-NODE13\SP\RM062X\def2TZVP\C8H12O2\RPATON\21-Jun-2022\0\\# M06
 2X/def2tzvp\\DATS_13_exo_i_TZVPcreated by GaussianPrep\\0,1\C,0,-1.303
 938,1.128337,1.009288\C,0,-0.21994,1.642456,-0.736804\C,0,0.129669,-1.
 180381,-0.705184\C,0,-1.406518,-0.249262,1.048597\H,0,-0.692104,1.6471
 31,1.738688\H,0,-2.148685,1.681289,0.60835\H,0,-0.847223,-0.847279,1.7
 58677\C,0,1.02113,1.074371,-0.53753\C,0,1.179881,-0.331808,-0.465705\H
 ,0,-0.29974,2.725889,-0.742598\H,0,0.264344,-2.242544,-0.528572\H,0,-0
 .999016,1.128395,-1.293358\H,0,-0.684516,-0.880813,-1.349053\C,0,-2.47
 4354,-0.893776,0.283519\O,0,-3.119375,-0.324243,-0.579418\H,0,-2.65792
 3,-1.964723,0.504944\O,0,2.324247,-0.917067,0.001728\C,0,3.353873,-0.0
 86213,0.486074\H,0,4.141189,-0.755561,0.833321\H,0,3.757336,0.560846,-
 0.302352\H,0,3.013504,0.53647,1.323049\H,0,1.835046,1.719041,-0.223108
 \\Version=AS64L-G16RevC.01\State=1-A\HF=-462.3671902\RMSD=9.696e-09\Di
 pole=1.2992854,0.4742969,0.7661253\Quadrupole=-3.5788872,4.1265249,-0.
 5476378,2.299345,-0.826579,-0.4975593\PG=C01 [X(C8H12O2)]\\@
 The archive entry for this job was punched.


 A MATHEMATICIAN IS A MACHINE FOR TURNING COFFEE INTO THEOREMS.
     -- QUOTED BY PAUL ERDOS
 Job cpu time:       0 days  0 hours 15 minutes  2.9 seconds.
 Elapsed time:       0 days  0 hours  0 minutes 59.1 seconds.
 File lengths (MBytes):  RWF=     83 Int=      0 D2E=      0 Chk=     10 Scr=      1
 Normal termination of Gaussian 16 at Tue Jun 21 11:23:45 2022.
