Job Start Time: Tue Jun 21 11:23:54 MDT 2022
SLURM Job ID: 40893
SLURM Job Name: DATS_14_endo_iv_TZVP
 Entering Gaussian System, Link 0=/opt/apps/Gaussian/G16C/g16/g16
 Initial command:
 /opt/apps/Gaussian/G16C/g16/l1.exe "/tmp/Gau-350447.inp" -scrdir="/tmp/"
 Entering Link 1 = /opt/apps/Gaussian/G16C/g16/l1.exe PID=    350448.
  
 Copyright (c) 1988-2019, Gaussian, Inc.  All Rights Reserved.
  
 This is part of the Gaussian(R) 16 program.  It is based on
 the Gaussian(R) 09 system (copyright 2009, Gaussian, Inc.),
 the Gaussian(R) 03 system (copyright 2003, Gaussian, Inc.),
 the Gaussian(R) 98 system (copyright 1998, Gaussian, Inc.),
 the Gaussian(R) 94 system (copyright 1995, Gaussian, Inc.),
 the Gaussian 92(TM) system (copyright 1992, Gaussian, Inc.),
 the Gaussian 90(TM) system (copyright 1990, Gaussian, Inc.),
 the Gaussian 88(TM) system (copyright 1988, Gaussian, Inc.),
 the Gaussian 86(TM) system (copyright 1986, Carnegie Mellon
 University), and the Gaussian 82(TM) system (copyright 1983,
 Carnegie Mellon University). Gaussian is a federally registered
 trademark of Gaussian, Inc.
  
 This software contains proprietary and confidential information,
 including trade secrets, belonging to Gaussian, Inc.
  
 This software is provided under written license and may be
 used, copied, transmitted, or stored only in accord with that
 written license.
  
 The following legend is applicable only to US Government
 contracts under FAR:
  
                    RESTRICTED RIGHTS LEGEND
  
 Use, reproduction and disclosure by the US Government is
 subject to restrictions as set forth in subparagraphs (a)
 and (c) of the Commercial Computer Software - Restricted
 Rights clause in FAR 52.227-19.
  
 Gaussian, Inc.
 340 Quinnipiac St., Bldg. 40, Wallingford CT 06492
  
  
 ---------------------------------------------------------------
 Warning -- This program may not be used in any manner that
 competes with the business of Gaussian, Inc. or will provide
 assistance to any competitor of Gaussian, Inc.  The licensee
 of this program is prohibited from giving any competitor of
 Gaussian, Inc. access to this program.  By using this program,
 the user acknowledges that Gaussian, Inc. is engaged in the
 business of creating and licensing software in the field of
 computational chemistry and represents and warrants to the
 licensee that it is not a competitor of Gaussian, Inc. and that
 it will not use this program in any manner prohibited above.
 ---------------------------------------------------------------
  

 Cite this work as:
 Gaussian 16, Revision C.01,
 M. J. Frisch, G. W. Trucks, H. B. Schlegel, G. E. Scuseria, 
 M. A. Robb, J. R. Cheeseman, G. Scalmani, V. Barone, 
 G. A. Petersson, H. Nakatsuji, X. Li, M. Caricato, A. V. Marenich, 
 J. Bloino, B. G. Janesko, R. Gomperts, B. Mennucci, H. P. Hratchian, 
 J. V. Ortiz, A. F. Izmaylov, J. L. Sonnenberg, D. Williams-Young, 
 F. Ding, F. Lipparini, F. Egidi, J. Goings, B. Peng, A. Petrone, 
 T. Henderson, D. Ranasinghe, V. G. Zakrzewski, J. Gao, N. Rega, 
 G. Zheng, W. Liang, M. Hada, M. Ehara, K. Toyota, R. Fukuda, 
 J. Hasegawa, M. Ishida, T. Nakajima, Y. Honda, O. Kitao, H. Nakai, 
 T. Vreven, K. Throssell, J. A. Montgomery, Jr., J. E. Peralta, 
 F. Ogliaro, M. J. Bearpark, J. J. Heyd, E. N. Brothers, K. N. Kudin, 
 V. N. Staroverov, T. A. Keith, R. Kobayashi, J. Normand, 
 K. Raghavachari, A. P. Rendell, J. C. Burant, S. S. Iyengar, 
 J. Tomasi, M. Cossi, J. M. Millam, M. Klene, C. Adamo, R. Cammi, 
 J. W. Ochterski, R. L. Martin, K. Morokuma, O. Farkas, 
 J. B. Foresman, and D. J. Fox, Gaussian, Inc., Wallingford CT, 2019.
 
 ******************************************
 Gaussian 16:  AS64L-G16RevC.01  3-Jul-2019
                21-Jun-2022 
 ******************************************
 %chk=DATS_14_endo_iv_TZVP.chk
 %mem=48GB
 %nprocshared=16
 Will use up to   16 processors via shared memory.
 ----------------
 # M062X/def2tzvp
 ----------------
 1/38=1,172=1/1;
 2/12=2,17=6,18=5,40=1/2;
 3/5=44,7=101,11=2,25=1,30=1,74=-55/1,2,3;
 4//1;
 5/5=2,38=5/2;
 6/7=2,8=2,9=2,10=2,28=1/1;
 99/5=1,9=1/99;
 -------------------------------------------
 DATS_14_endo_iv_TZVPcreated by GaussianPrep
 -------------------------------------------
 Symbolic Z-matrix:
 Charge =  0 Multiplicity = 1
 C                    -0.52107  -1.63128   0.16666 
 C                     1.1377   -0.71196   1.04961 
 C                    -0.88543   1.28381   1.07745 
 C                    -1.6785   -0.87575   0.31712 
 H                    -0.08862  -1.71038  -0.82858 
 H                    -0.38303  -2.51207   0.78628 
 H                    -2.32952  -1.02096   1.17504 
 C                     1.26455   0.45884   0.31311 
 C                     0.24219   1.43429   0.32076 
 H                     1.90555  -1.47613   1.00245 
 H                    -1.73073   1.95135   0.94447 
 H                     0.28219   2.18282  -0.4656 
 H                     0.63277  -0.65017   2.00492 
 H                    -0.88951   0.70184   1.99071 
 O                     2.18711   0.63767  -0.66769 
 C                     3.23278  -0.30425  -0.76853 
 H                     2.85625  -1.29022  -1.06664 
 H                     3.90489   0.07082  -1.53989 
 H                     3.77503  -0.39759   0.17994 
 C                    -2.25624  -0.16526  -0.82365 
 O                    -3.38689   0.2713   -0.88443 
 H                    -1.55291  -0.05168  -1.68132 
 
                          Input orientation:                          
 ---------------------------------------------------------------------
 Center     Atomic      Atomic             Coordinates (Angstroms)
 Number     Number       Type             X           Y           Z
 ---------------------------------------------------------------------
      1          6           0       -0.521065   -1.631278    0.166662
      2          6           0        1.137703   -0.711963    1.049613
      3          6           0       -0.885432    1.283811    1.077449
      4          6           0       -1.678502   -0.875748    0.317115
      5          1           0       -0.088621   -1.710379   -0.828580
      6          1           0       -0.383034   -2.512066    0.786281
      7          1           0       -2.329519   -1.020965    1.175040
      8          6           0        1.264551    0.458843    0.313113
      9          6           0        0.242193    1.434285    0.320764
     10          1           0        1.905550   -1.476126    1.002448
     11          1           0       -1.730731    1.951348    0.944471
     12          1           0        0.282185    2.182822   -0.465595
     13          1           0        0.632769   -0.650170    2.004923
     14          1           0       -0.889511    0.701837    1.990713
     15          8           0        2.187112    0.637669   -0.667691
     16          6           0        3.232779   -0.304253   -0.768531
     17          1           0        2.856245   -1.290222   -1.066638
     18          1           0        3.904891    0.070818   -1.539889
     19          1           0        3.775026   -0.397585    0.179937
     20          6           0       -2.256239   -0.165255   -0.823654
     21          8           0       -3.386895    0.271296   -0.884430
     22          1           0       -1.552908   -0.051679   -1.681322
 ---------------------------------------------------------------------
                    Distance matrix (angstroms):
                    1          2          3          4          5
     1  C    0.000000
     2  C    2.091950   0.000000
     3  C    3.075718   2.842000   0.000000
     4  C    1.390368   2.914514   2.422966   0.000000
     5  H    1.088013   2.455263   3.637723   2.130011   0.000000
     6  H    1.085711   2.371151   3.840034   2.139133   1.826789
     7  H    2.158660   3.483223   2.721563   1.086714   3.084057
     8  C    2.752904   1.388996   2.426357   3.231518   2.800011
     9  C    3.162908   2.437117   1.366292   3.004220   3.364423
    10  H    2.571200   1.084324   3.925870   3.698049   2.717399
    11  H    3.860504   3.915635   1.085274   2.896338   4.387309
    12  H    3.948711   3.377506   2.133667   3.716420   3.927629
    13  H    2.381829   1.082310   2.627817   2.870811   3.110175
    14  H    2.984349   2.644635   1.082941   2.431504   3.795869
    15  O    3.630219   2.423200   3.592150   4.266526   3.273862
    16  C    4.089856   2.803786   4.784271   5.062205   3.607283
    17  H    3.611588   2.786806   5.022241   4.759253   2.984198
    18  H    5.039696   3.869832   5.591870   5.959759   4.430210
    19  H    4.469740   2.794753   5.035126   5.476169   4.203368
    20  C    2.478059   3.914954   2.755557   1.462851   2.661954
    21  O    3.596883   5.017899   3.336386   2.382861   3.848216
    22  H    2.640999   3.890163   3.136858   2.165321   2.371200
                    6          7          8          9         10
     6  H    0.000000
     7  H    2.482603   0.000000
     8  C    3.429974   3.981217   0.000000
     9  C    4.022599   3.656739   1.413068   0.000000
    10  H    2.521412   4.262953   2.151782   3.420810   0.000000
    11  H    4.665123   3.040782   3.405569   2.132790   4.997347
    12  H    4.904252   4.447126   2.131556   1.086401   4.263609
    13  H    2.446140   3.098604   2.119264   2.708116   1.818552
    14  H    3.469344   2.388931   2.741053   2.146151   3.678662
    15  O    4.317466   5.152347   1.358335   2.322574   2.708647
    16  C    4.512869   5.935512   2.371959   3.626663   2.504234
    17  H    3.926721   5.655950   2.737961   4.022573   2.284622
    18  H    5.519842   6.886995   3.248934   4.328560   3.585230
    19  H    4.704056   6.216454   2.655878   3.982021   2.309700
    20  C    3.407097   2.175405   3.752026   3.179683   4.730065
    21  O    4.422845   2.651301   4.806790   3.996913   5.884196
    22  H    3.675755   3.114714   3.489481   3.072267   4.603542
                   11         12         13         14         15
    11  H    0.000000
    12  H    2.468542   0.000000
    13  H    3.671319   3.775210   0.000000
    14  H    1.833999   3.098328   2.036041   0.000000
    15  O    4.435574   2.461115   3.349235   4.066551   0.000000
    16  C    5.714765   3.870829   3.817297   5.061514   1.410959
    17  H    5.965960   4.364524   3.845517   5.229377   2.079342
    18  H    6.439617   4.328818   4.877735   5.987456   2.008187
    19  H    6.034514   4.390347   3.642547   5.123040   2.076462
    20  C    2.807567   3.476387   4.072144   3.246607   4.518006
    21  O    2.985018   4.158305   5.035391   3.832589   5.590238
    22  H    3.307344   3.136647   4.327098   3.806800   3.935784
                   16         17         18         19         20
    16  C    0.000000
    17  H    1.096714   0.000000
    18  H    1.089682   1.782149   0.000000
    19  H    1.096510   1.787431   1.787196   0.000000
    20  C    5.491054   5.240428   6.207113   6.118605   0.000000
    21  O    6.645658   6.438038   7.323931   7.271409   1.213529
    22  H    4.878502   4.620872   5.461005   5.654274   1.114975
                   21         22
    21  O    0.000000
    22  H    2.025551   0.000000
 Stoichiometry    C8H12O2
 Framework group  C1[X(C8H12O2)]
 Deg. of freedom    60
 Full point group                 C1      NOp   1
 Largest Abelian subgroup         C1      NOp   1
 Largest concise Abelian subgroup C1      NOp   1
                         Standard orientation:                         
 ---------------------------------------------------------------------
 Center     Atomic      Atomic             Coordinates (Angstroms)
 Number     Number       Type             X           Y           Z
 ---------------------------------------------------------------------
      1          6           0        0.521065    1.631278    0.166662
      2          6           0       -1.137703    0.711963    1.049613
      3          6           0        0.885432   -1.283811    1.077449
      4          6           0        1.678502    0.875748    0.317115
      5          1           0        0.088621    1.710379   -0.828580
      6          1           0        0.383034    2.512066    0.786281
      7          1           0        2.329519    1.020965    1.175040
      8          6           0       -1.264551   -0.458843    0.313113
      9          6           0       -0.242193   -1.434285    0.320764
     10          1           0       -1.905550    1.476126    1.002448
     11          1           0        1.730731   -1.951348    0.944471
     12          1           0       -0.282185   -2.182822   -0.465595
     13          1           0       -0.632769    0.650170    2.004923
     14          1           0        0.889511   -0.701837    1.990713
     15          8           0       -2.187112   -0.637669   -0.667691
     16          6           0       -3.232779    0.304253   -0.768531
     17          1           0       -2.856245    1.290222   -1.066638
     18          1           0       -3.904891   -0.070818   -1.539889
     19          1           0       -3.775026    0.397585    0.179937
     20          6           0        2.256239    0.165255   -0.823654
     21          8           0        3.386895   -0.271296   -0.884430
     22          1           0        1.552908    0.051679   -1.681322
 ---------------------------------------------------------------------
 Rotational constants (GHZ):           2.3828228           0.7572139           0.7123874
 Standard basis: def2TZVP (5D, 7F)
 There are   432 symmetry adapted cartesian basis functions of A   symmetry.
 There are   382 symmetry adapted basis functions of A   symmetry.
   382 basis functions,   606 primitive gaussians,   432 cartesian basis functions
    38 alpha electrons       38 beta electrons
       nuclear repulsion energy       525.4863397251 Hartrees.
 NAtoms=   22 NActive=   22 NUniq=   22 SFac= 1.00D+00 NAtFMM=   60 NAOKFM=F Big=F
 Integral buffers will be    131072 words long.
 Raffenetti 2 integral format.
 Two-electron integral symmetry is turned on.
 One-electron integrals computed using PRISM.
   1 Symmetry operations used in ECPInt.
 ECPInt:  NShTT=   12561 NPrTT=   37384 LenC2=   12084 LenP2D=   28117.
 LDataN:  DoStor=T MaxTD1= 6 Len=  172
 NBasis=   382 RedAO= T EigKep=  5.99D-05  NBF=   382
 NBsUse=   382 1.00D-06 EigRej= -1.00D+00 NBFU=   382
 ExpMin= 9.52D-02 ExpMax= 2.70D+04 ExpMxC= 9.22D+02 IAcc=3 IRadAn=         5 AccDes= 0.00D+00
 Harris functional with IExCor= 1009 and IRadAn=       5 diagonalized for initial guess.
 HarFok:  IExCor= 1009 AccDes= 0.00D+00 IRadAn=         5 IDoV= 1 UseB2=F ITyADJ=14
 ICtDFT=  3500011 ScaDFX=  1.000000  1.000000  1.000000  1.000000
 FoFCou: FMM=F IPFlag=           0 FMFlag=      100000 FMFlg1=           0
         NFxFlg=           0 DoJE=T BraDBF=F KetDBF=T FulRan=T
         wScrn=  0.000000 ICntrl=       500 IOpCl=  0 I1Cent=   200000004 NGrid=           0
         NMat0=    1 NMatS0=      1 NMatT0=    0 NMatD0=    1 NMtDS0=    0 NMtDT0=    0
 Petite list used in FoFCou.
 Requested convergence on RMS density matrix=1.00D-08 within 128 cycles.
 Requested convergence on MAX density matrix=1.00D-06.
 Requested convergence on             energy=1.00D-06.
 No special actions if energy rises.
 Integral accuracy reduced to 1.0D-05 until final iterations.
 Initial convergence to 1.0D-05 achieved.  Increase integral accuracy.
 SCF Done:  E(RM062X) =  -462.370217915     A.U. after   17 cycles
            NFock= 17  Conv=0.18D-08     -V/T= 2.0051

 **********************************************************************

            Population analysis using the SCF Density.

 **********************************************************************

 Orbital symmetries:
       Occupied  (A) (A) (A) (A) (A) (A) (A) (A) (A) (A) (A) (A)
                 (A) (A) (A) (A) (A) (A) (A) (A) (A) (A) (A) (A)
                 (A) (A) (A) (A) (A) (A) (A) (A) (A) (A) (A) (A)
                 (A) (A)
       Virtual   (A) (A) (A) (A) (A) (A) (A) (A) (A) (A) (A) (A)
                 (A) (A) (A) (A) (A) (A) (A) (A) (A) (A) (A) (A)
                 (A) (A) (A) (A) (A) (A) (A) (A) (A) (A) (A) (A)
                 (A) (A) (A) (A) (A) (A) (A) (A) (A) (A) (A) (A)
                 (A) (A) (A) (A) (A) (A) (A) (A) (A) (A) (A) (A)
                 (A) (A) (A) (A) (A) (A) (A) (A) (A) (A) (A) (A)
                 (A) (A) (A) (A) (A) (A) (A) (A) (A) (A) (A) (A)
                 (A) (A) (A) (A) (A) (A) (A) (A) (A) (A) (A) (A)
                 (A) (A) (A) (A) (A) (A) (A) (A) (A) (A) (A) (A)
                 (A) (A) (A) (A) (A) (A) (A) (A) (A) (A) (A) (A)
                 (A) (A) (A) (A) (A) (A) (A) (A) (A) (A) (A) (A)
                 (A) (A) (A) (A) (A) (A) (A) (A) (A) (A) (A) (A)
                 (A) (A) (A) (A) (A) (A) (A) (A) (A) (A) (A) (A)
                 (A) (A) (A) (A) (A) (A) (A) (A) (A) (A) (A) (A)
                 (A) (A) (A) (A) (A) (A) (A) (A) (A) (A) (A) (A)
                 (A) (A) (A) (A) (A) (A) (A) (A) (A) (A) (A) (A)
                 (A) (A) (A) (A) (A) (A) (A) (A) (A) (A) (A) (A)
                 (A) (A) (A) (A) (A) (A) (A) (A) (A) (A) (A) (A)
                 (A) (A) (A) (A) (A) (A) (A) (A) (A) (A) (A) (A)
                 (A) (A) (A) (A) (A) (A) (A) (A) (A) (A) (A) (A)
                 (A) (A) (A) (A) (A) (A) (A) (A) (A) (A) (A) (A)
                 (A) (A) (A) (A) (A) (A) (A) (A) (A) (A) (A) (A)
                 (A) (A) (A) (A) (A) (A) (A) (A) (A) (A) (A) (A)
                 (A) (A) (A) (A) (A) (A) (A) (A) (A) (A) (A) (A)
                 (A) (A) (A) (A) (A) (A) (A) (A) (A) (A) (A) (A)
                 (A) (A) (A) (A) (A) (A) (A) (A) (A) (A) (A) (A)
                 (A) (A) (A) (A) (A) (A) (A) (A) (A) (A) (A) (A)
                 (A) (A) (A) (A) (A) (A) (A) (A) (A) (A) (A) (A)
                 (A) (A) (A) (A) (A) (A) (A) (A)
 The electronic state is 1-A.
 Alpha  occ. eigenvalues --  -19.67275 -19.59501 -10.61822 -10.60758 -10.60357
 Alpha  occ. eigenvalues --  -10.56600 -10.56473 -10.56107 -10.54766 -10.54140
 Alpha  occ. eigenvalues --   -1.20990  -1.14227  -0.93616  -0.88013  -0.83952
 Alpha  occ. eigenvalues --   -0.82105  -0.72392  -0.71587  -0.64388  -0.63331
 Alpha  occ. eigenvalues --   -0.60179  -0.57778  -0.56599  -0.53488  -0.53094
 Alpha  occ. eigenvalues --   -0.51628  -0.48683  -0.48034  -0.47182  -0.47131
 Alpha  occ. eigenvalues --   -0.44723  -0.44111  -0.43867  -0.41658  -0.38491
 Alpha  occ. eigenvalues --   -0.32062  -0.31059  -0.26429
 Alpha virt. eigenvalues --   -0.02152   0.01475   0.05172   0.07066   0.07570
 Alpha virt. eigenvalues --    0.08616   0.09744   0.10281   0.11660   0.12305
 Alpha virt. eigenvalues --    0.12954   0.13920   0.14093   0.15696   0.16001
 Alpha virt. eigenvalues --    0.17562   0.18754   0.19967   0.21473   0.21902
 Alpha virt. eigenvalues --    0.22884   0.23381   0.24029   0.25350   0.26570
 Alpha virt. eigenvalues --    0.27705   0.28286   0.28388   0.30177   0.31801
 Alpha virt. eigenvalues --    0.32802   0.34033   0.35290   0.35949   0.36670
 Alpha virt. eigenvalues --    0.37413   0.38321   0.39809   0.40451   0.41421
 Alpha virt. eigenvalues --    0.42116   0.42740   0.43263   0.44009   0.44925
 Alpha virt. eigenvalues --    0.45843   0.46442   0.46832   0.47996   0.48665
 Alpha virt. eigenvalues --    0.49201   0.49394   0.50359   0.51128   0.51981
 Alpha virt. eigenvalues --    0.53159   0.54351   0.55598   0.56908   0.58277
 Alpha virt. eigenvalues --    0.58740   0.59723   0.60916   0.62036   0.62703
 Alpha virt. eigenvalues --    0.64824   0.65790   0.65925   0.67748   0.69434
 Alpha virt. eigenvalues --    0.71769   0.72397   0.74256   0.75321   0.77601
 Alpha virt. eigenvalues --    0.80772   0.81064   0.83143   0.84520   0.86519
 Alpha virt. eigenvalues --    0.88106   0.90004   0.90325   0.92366   0.93733
 Alpha virt. eigenvalues --    0.94968   0.95869   0.96995   1.00280   1.00945
 Alpha virt. eigenvalues --    1.03248   1.04151   1.04971   1.06005   1.08867
 Alpha virt. eigenvalues --    1.09670   1.11366   1.11531   1.12966   1.14683
 Alpha virt. eigenvalues --    1.16110   1.18313   1.20641   1.22831   1.24409
 Alpha virt. eigenvalues --    1.25373   1.25566   1.28462   1.29989   1.31625
 Alpha virt. eigenvalues --    1.34503   1.36459   1.37770   1.38392   1.42980
 Alpha virt. eigenvalues --    1.43166   1.48510   1.49577   1.49912   1.51418
 Alpha virt. eigenvalues --    1.54161   1.54459   1.54879   1.55377   1.57173
 Alpha virt. eigenvalues --    1.57769   1.59459   1.60837   1.62127   1.63092
 Alpha virt. eigenvalues --    1.64294   1.65858   1.66751   1.68459   1.69231
 Alpha virt. eigenvalues --    1.69835   1.70550   1.72869   1.72934   1.76606
 Alpha virt. eigenvalues --    1.77824   1.78837   1.81749   1.83233   1.85532
 Alpha virt. eigenvalues --    1.86546   1.89119   1.89515   1.91953   1.95130
 Alpha virt. eigenvalues --    1.95944   1.96995   1.98870   2.02297   2.03606
 Alpha virt. eigenvalues --    2.04320   2.06751   2.07325   2.07928   2.12072
 Alpha virt. eigenvalues --    2.14387   2.15263   2.17023   2.19574   2.21391
 Alpha virt. eigenvalues --    2.23025   2.25507   2.27470   2.27874   2.29639
 Alpha virt. eigenvalues --    2.30394   2.32255   2.32989   2.34947   2.38209
 Alpha virt. eigenvalues --    2.38930   2.39544   2.42091   2.42467   2.44096
 Alpha virt. eigenvalues --    2.46878   2.47798   2.49654   2.50372   2.52482
 Alpha virt. eigenvalues --    2.53106   2.54705   2.56406   2.58305   2.59961
 Alpha virt. eigenvalues --    2.61483   2.61679   2.62411   2.64342   2.64604
 Alpha virt. eigenvalues --    2.65839   2.67342   2.68451   2.71964   2.72617
 Alpha virt. eigenvalues --    2.73360   2.75396   2.77072   2.78348   2.79850
 Alpha virt. eigenvalues --    2.81883   2.82506   2.83235   2.85387   2.85573
 Alpha virt. eigenvalues --    2.88000   2.91654   2.93320   2.95766   2.97636
 Alpha virt. eigenvalues --    2.99012   3.00011   3.01258   3.02819   3.05063
 Alpha virt. eigenvalues --    3.06971   3.07326   3.08617   3.10580   3.10996
 Alpha virt. eigenvalues --    3.12051   3.14994   3.15446   3.16342   3.17418
 Alpha virt. eigenvalues --    3.18612   3.19478   3.20492   3.23865   3.24321
 Alpha virt. eigenvalues --    3.25592   3.26277   3.28185   3.28336   3.28857
 Alpha virt. eigenvalues --    3.30457   3.32695   3.33193   3.35026   3.36156
 Alpha virt. eigenvalues --    3.36847   3.38135   3.39885   3.40501   3.42212
 Alpha virt. eigenvalues --    3.43551   3.44047   3.45492   3.48589   3.49785
 Alpha virt. eigenvalues --    3.50768   3.52139   3.53119   3.53794   3.55413
 Alpha virt. eigenvalues --    3.57926   3.59482   3.60889   3.62810   3.63088
 Alpha virt. eigenvalues --    3.66903   3.69794   3.71299   3.75436   3.76330
 Alpha virt. eigenvalues --    3.79955   3.85324   3.86962   3.88334   3.90144
 Alpha virt. eigenvalues --    3.95617   4.01482   4.03665   4.05355   4.09826
 Alpha virt. eigenvalues --    4.11061   4.12119   4.14338   4.16796   4.17455
 Alpha virt. eigenvalues --    4.20715   4.24076   4.25190   4.27623   4.28208
 Alpha virt. eigenvalues --    4.30097   4.33662   4.36391   4.39460   4.51462
 Alpha virt. eigenvalues --    4.52624   4.54298   4.54808   4.56929   4.63785
 Alpha virt. eigenvalues --    4.64818   4.67857   4.73303   4.77469   4.81684
 Alpha virt. eigenvalues --    4.83146   4.88188   4.93142   5.03613   5.08322
 Alpha virt. eigenvalues --    5.24069   5.25537   5.36151   5.49534   5.59305
 Alpha virt. eigenvalues --    5.69115   5.74962   5.89033   5.90359   6.10822
 Alpha virt. eigenvalues --    6.24828   6.33924   6.38618   6.40501   6.43818
 Alpha virt. eigenvalues --    6.48603   6.64159   6.72604   6.82807   6.84460
 Alpha virt. eigenvalues --    6.96433   7.07521   7.12551   7.32545  22.41340
 Alpha virt. eigenvalues --   22.44846  22.47587  22.60386  22.74439  22.81370
 Alpha virt. eigenvalues --   23.03553  23.13827  44.02291  44.34711
          Condensed to atoms (all electrons):
               1          2          3          4          5          6
     1  C    5.325157   0.024124  -0.044678   0.137001   0.437934   0.421649
     2  C    0.024124   5.626591  -0.023462  -0.084980  -0.053419  -0.034398
     3  C   -0.044678  -0.023462   5.175146   0.109248   0.003199   0.003667
     4  C    0.137001  -0.084980   0.109248   6.156742  -0.054253  -0.032759
     5  H    0.437934  -0.053419   0.003199  -0.054253   0.495473  -0.013347
     6  H    0.421649  -0.034398   0.003667  -0.032759  -0.013347   0.485963
     7  H   -0.025744   0.001828  -0.014872   0.369503   0.002289  -0.003560
     8  C    0.015950   0.278536  -0.068216  -0.019269  -0.003326   0.000952
     9  C   -0.023361  -0.072286   0.415209  -0.023659   0.000694   0.002469
    10  H   -0.015385   0.417750   0.001409   0.003617   0.000580  -0.000354
    11  H    0.003471   0.000320   0.420254  -0.022434  -0.000093  -0.000114
    12  H   -0.000740   0.006427  -0.027294   0.000520   0.000064   0.000047
    13  H   -0.033346   0.437583  -0.004990  -0.018280   0.003022  -0.003629
    14  H   -0.010122   0.011474   0.444195  -0.026821  -0.000272   0.000863
    15  O    0.000917  -0.069002   0.003494   0.001307   0.003593  -0.000096
    16  C   -0.002512  -0.001477  -0.001013   0.000868   0.000300   0.000263
    17  H   -0.003666   0.028879  -0.000096  -0.000645  -0.002370   0.000041
    18  H    0.000082  -0.000623   0.000042   0.000013   0.000053  -0.000000
    19  H    0.001599  -0.017836  -0.000049   0.000256   0.000387  -0.000016
    20  C    0.060506   0.011083  -0.047524   0.031958  -0.001469   0.000615
    21  O    0.009535   0.000199  -0.011558  -0.121866   0.000186  -0.000248
    22  H    0.057967  -0.002350  -0.014759  -0.249015  -0.000386   0.000015
               7          8          9         10         11         12
     1  C   -0.025744   0.015950  -0.023361  -0.015385   0.003471  -0.000740
     2  C    0.001828   0.278536  -0.072286   0.417750   0.000320   0.006427
     3  C   -0.014872  -0.068216   0.415209   0.001409   0.420254  -0.027294
     4  C    0.369503  -0.019269  -0.023659   0.003617  -0.022434   0.000520
     5  H    0.002289  -0.003326   0.000694   0.000580  -0.000093   0.000064
     6  H   -0.003560   0.000952   0.002469  -0.000354  -0.000114   0.000047
     7  H    0.475080   0.000506   0.002090  -0.000074   0.001837  -0.000133
     8  C    0.000506   4.986842   0.386256  -0.047254   0.010996  -0.056868
     9  C    0.002090   0.386256   5.219514   0.006173  -0.054344   0.429306
    10  H   -0.000074  -0.047254   0.006173   0.471053  -0.000037  -0.000106
    11  H    0.001837   0.010996  -0.054344  -0.000037   0.460233  -0.005756
    12  H   -0.000133  -0.056868   0.429306  -0.000106  -0.005756   0.484649
    13  H    0.000743  -0.054884   0.004319  -0.009532   0.000553  -0.000158
    14  H   -0.004933  -0.004071  -0.065471   0.000057  -0.013080   0.002709
    15  O   -0.000014   0.329625  -0.071506  -0.003268  -0.000110   0.007594
    16  C   -0.000001  -0.075878   0.004290   0.001478   0.000022   0.000116
    17  H    0.000009  -0.024780  -0.001521  -0.008187   0.000002   0.000052
    18  H   -0.000000   0.006334   0.000186   0.000461  -0.000001  -0.000174
    19  H   -0.000002   0.006567   0.002329   0.001003  -0.000004   0.000141
    20  C    0.007015   0.005833  -0.007231  -0.000351   0.006691  -0.000497
    21  O    0.006944   0.000356  -0.000516   0.000004   0.005793   0.000096
    22  H    0.007152  -0.005215   0.013534   0.000139   0.002345  -0.001139
              13         14         15         16         17         18
     1  C   -0.033346  -0.010122   0.000917  -0.002512  -0.003666   0.000082
     2  C    0.437583   0.011474  -0.069002  -0.001477   0.028879  -0.000623
     3  C   -0.004990   0.444195   0.003494  -0.001013  -0.000096   0.000042
     4  C   -0.018280  -0.026821   0.001307   0.000868  -0.000645   0.000013
     5  H    0.003022  -0.000272   0.003593   0.000300  -0.002370   0.000053
     6  H   -0.003629   0.000863  -0.000096   0.000263   0.000041  -0.000000
     7  H    0.000743  -0.004933  -0.000014  -0.000001   0.000009  -0.000000
     8  C   -0.054884  -0.004071   0.329625  -0.075878  -0.024780   0.006334
     9  C    0.004319  -0.065471  -0.071506   0.004290  -0.001521   0.000186
    10  H   -0.009532   0.000057  -0.003268   0.001478  -0.008187   0.000461
    11  H    0.000553  -0.013080  -0.000110   0.000022   0.000002  -0.000001
    12  H   -0.000158   0.002709   0.007594   0.000116   0.000052  -0.000174
    13  H    0.484343   0.001112   0.003241  -0.001279   0.000043   0.000038
    14  H    0.001112   0.504600   0.000024   0.000030   0.000007  -0.000001
    15  O    0.003241   0.000024   7.947432   0.230740  -0.039453  -0.031369
    16  C   -0.001279   0.000030   0.230740   4.905067   0.408251   0.403202
    17  H    0.000043   0.000007  -0.039453   0.408251   0.578644  -0.022809
    18  H    0.000038  -0.000001  -0.031369   0.403202  -0.022809   0.504128
    19  H   -0.000287  -0.000017  -0.042443   0.422847  -0.058116  -0.016583
    20  C    0.001016   0.001008  -0.000452   0.000027   0.000204  -0.000005
    21  O    0.000005   0.000002  -0.000003  -0.000001  -0.000000  -0.000000
    22  H   -0.000111  -0.000543   0.000758   0.000113  -0.000081   0.000005
              19         20         21         22
     1  C    0.001599   0.060506   0.009535   0.057967
     2  C   -0.017836   0.011083   0.000199  -0.002350
     3  C   -0.000049  -0.047524  -0.011558  -0.014759
     4  C    0.000256   0.031958  -0.121866  -0.249015
     5  H    0.000387  -0.001469   0.000186  -0.000386
     6  H   -0.000016   0.000615  -0.000248   0.000015
     7  H   -0.000002   0.007015   0.006944   0.007152
     8  C    0.006567   0.005833   0.000356  -0.005215
     9  C    0.002329  -0.007231  -0.000516   0.013534
    10  H    0.001003  -0.000351   0.000004   0.000139
    11  H   -0.000004   0.006691   0.005793   0.002345
    12  H    0.000141  -0.000497   0.000096  -0.001139
    13  H   -0.000287   0.001016   0.000005  -0.000111
    14  H   -0.000017   0.001008   0.000002  -0.000543
    15  O   -0.042443  -0.000452  -0.000003   0.000758
    16  C    0.422847   0.000027  -0.000001   0.000113
    17  H   -0.058116   0.000204  -0.000000  -0.000081
    18  H   -0.016583  -0.000005  -0.000000   0.000005
    19  H    0.543974  -0.000025  -0.000000   0.000015
    20  C   -0.000025   4.708289   0.648896   0.500263
    21  O   -0.000000   0.648896   7.853768  -0.066832
    22  H    0.000015   0.500263  -0.066832   0.671394
 Mulliken charges:
               1
     1  C   -0.336340
     2  C   -0.484959
     3  C   -0.317351
     4  C   -0.157050
     5  H    0.181160
     6  H    0.171977
     7  H    0.174337
     8  C    0.331009
     9  C   -0.166475
    10  H    0.180826
    11  H    0.183457
    12  H    0.161143
    13  H    0.190479
    14  H    0.159251
    15  O   -0.271008
    16  C   -0.295454
    17  H    0.145592
    18  H    0.157022
    19  H    0.156261
    20  C    0.074151
    21  O   -0.324760
    22  H    0.086731
 Sum of Mulliken charges =  -0.00000
 Mulliken charges with hydrogens summed into heavy atoms:
               1
     1  C    0.016798
     2  C   -0.113654
     3  C    0.025357
     4  C    0.017286
     8  C    0.331009
     9  C   -0.005332
    15  O   -0.271008
    16  C    0.163422
    20  C    0.160882
    21  O   -0.324760
 Electronic spatial extent (au):  <R**2>=           1733.2492
 Charge=             -0.0000 electrons
 Dipole moment (field-independent basis, Debye):
    X=             -5.0567    Y=              1.9733    Z=              1.5575  Tot=              5.6471
 Quadrupole moment (field-independent basis, Debye-Ang):
   XX=            -72.6239   YY=            -59.7154   ZZ=            -59.7691
   XY=             -2.7783   XZ=              7.1440   YZ=              0.4698
 Traceless Quadrupole moment (field-independent basis, Debye-Ang):
   XX=             -8.5878   YY=              4.3208   ZZ=              4.2670
   XY=             -2.7783   XZ=              7.1440   YZ=              0.4698
 Octapole moment (field-independent basis, Debye-Ang**2):
  XXX=            -97.2621  YYY=             -1.6849  ZZZ=             -3.3858  XYY=              1.3080
  XXY=             12.2658  XXZ=             10.9313  XZZ=             -2.3648  YZZ=              4.0663
  YYZ=             -2.0408  XYZ=             -2.1713
 Hexadecapole moment (field-independent basis, Debye-Ang**3):
 XXXX=          -1684.4856 YYYY=           -426.4557 ZZZZ=           -301.1752 XXXY=              5.1999
 XXXZ=            101.4168 YYYX=            -16.6148 YYYZ=             17.6275 ZZZX=             15.9009
 ZZZY=              7.9912 XXYY=           -330.5556 XXZZ=           -310.0132 YYZZ=           -124.9401
 XXYZ=             -8.3710 YYXZ=              4.7471 ZZXY=              1.2120
 N-N= 5.254863397251D+02 E-N=-2.128602806830D+03  KE= 4.600403531380D+02
 Unable to Open any file for archive entry.
 1\1\GINC-NODE12\SP\RM062X\def2TZVP\C8H12O2\RPATON\21-Jun-2022\0\\# M06
 2X/def2tzvp\\DATS_14_endo_iv_TZVPcreated by GaussianPrep\\0,1\C,0,-0.5
 21065,-1.631278,0.166662\C,0,1.137703,-0.711963,1.049613\C,0,-0.885432
 ,1.283811,1.077449\C,0,-1.678502,-0.875748,0.317115\H,0,-0.088621,-1.7
 10379,-0.82858\H,0,-0.383034,-2.512066,0.786281\H,0,-2.329519,-1.02096
 5,1.17504\C,0,1.264551,0.458843,0.313113\C,0,0.242193,1.434285,0.32076
 4\H,0,1.90555,-1.476126,1.002448\H,0,-1.730731,1.951348,0.944471\H,0,0
 .282185,2.182822,-0.465595\H,0,0.632769,-0.65017,2.004923\H,0,-0.88951
 1,0.701837,1.990713\O,0,2.187112,0.637669,-0.667691\C,0,3.232779,-0.30
 4253,-0.768531\H,0,2.856245,-1.290222,-1.066638\H,0,3.904891,0.070818,
 -1.539889\H,0,3.775026,-0.397585,0.179937\C,0,-2.256239,-0.165255,-0.8
 23654\O,0,-3.386895,0.271296,-0.88443\H,0,-1.552908,-0.051679,-1.68132
 2\\Version=AS64L-G16RevC.01\State=1-A\HF=-462.3702179\RMSD=1.800e-09\D
 ipole=1.9894417,-0.7763396,0.6127518\Quadrupole=-6.3847941,3.2123922,3
 .1724019,-2.0655969,-5.3113632,-0.3492909\PG=C01 [X(C8H12O2)]\\@
 The archive entry for this job was punched.


 DESK:  A WASTEBASKET WITH DRAWERS.
 Job cpu time:       0 days  0 hours 16 minutes 50.5 seconds.
 Elapsed time:       0 days  0 hours  1 minutes  6.3 seconds.
 File lengths (MBytes):  RWF=     83 Int=      0 D2E=      0 Chk=     10 Scr=      1
 Normal termination of Gaussian 16 at Tue Jun 21 11:25:01 2022.
