You are running Q-Chem version: 5.4.1

#
# job setting
#
local host:  node11.cluster
current dir: /home/rpaton/opt
input file:  /home/rpaton/opt/DATS_14_exo_v_TZVP.qcin
output file: 
nprocs     : 0
nthreads   : 16
#
# qchem installation setting
#
QC:          /opt/apps/qchem
QCAUX:       /opt/apps/qchem/qcaux
QCPROG:      /opt/apps/qchem/exe/qcprog.exe_s
QCPROG_S:    /opt/apps/qchem/exe/qcprog.exe_s
PARALLEL:    -DSERIAL
QCMPI:       seq
#
# qchem directory setting
#
qcrun:       qchem3398834
QCSCRATCH:   /tmp
QCLOCALSCR:  
QCTMPDIR:    /tmp
QCFILEPREF:  /tmp/qchem3398834
QCSAVEDIR:   
workdirs:    /tmp/qchem3398834
workdir0:    /tmp/qchem3398834
partmpdirs =  
#
# parallel setting
#
QCRSH:           ssh
QCMPI:           seq
QCMPIRUN:        
QCMACHINEFILE:   /tmp/qchem3398834/hostfile

#
# env setting
#
exported envs:   QC QCAUX QCSCRATCH QCRUNNAME QCFILEPREF QCPROG QCPROG_S GUIFILE

Running Job 1 of 1 /home/rpaton/opt/DATS_14_exo_v_TZVP.qcin
qchem /home/rpaton/opt/DATS_14_exo_v_TZVP.qcin_3398834.0 /tmp/qchem3398834/ 0
/opt/apps/qchem/exe/qcprog.exe_s /home/rpaton/opt/DATS_14_exo_v_TZVP.qcin_3398834.0 /tmp/qchem3398834/
                  Welcome to Q-Chem
     A Quantum Leap Into The Future Of Chemistry


 Q-Chem 5.4, Q-Chem, Inc., Pleasanton, CA (2021)

 E. Epifanovsky,  A. T. B. Gilbert,  Xintian Feng,  Joonho Lee,  Yuezhi Mao,  
 N. Mardirossian,  P. Pokhilko,  A. White,  M. Wormit,  M. P. Coons,  
 A. L. Dempwolff,  Zhengting Gan,  D. Hait,  P. R. Horn,  L. D. Jacobson,  
 I. Kaliman,  J. Kussmann,  A. W. Lange,  Ka Un Lao,  D. S. Levine,  Jie Liu,  
 S. C. McKenzie,  A. F. Morrison,  K. Nanda,  F. Plasser,  D. R. Rehn,  
 M. L. Vidal,  Zhi-Qiang You,  Ying Zhu,  B. Alam,  B. Albrecht,  
 A. Aldossary,  E. Alguire,  J. H. Andersen,  D. Barton,  K. Begam,  A. Behn,  
 Y. A. Bernard,  E. J. Berquist,  H. Burton,  A. Carreras,  K. Carter-Fenk,  
 R. Chakraborty,  A. D. Chien,  K. D. Closser,  V. Cofer-Shabica,  
 S. Dasgupta,  Jia Deng,  M. de Wergifosse,  M. Diedenhofen,  Hainam Do,  
 S. Ehlert,  Po-Tung Fang,  S. Fatehi,  Qingguo Feng,  T. Friedhoff,  
 J. Gayvert,  Qinghui Ge,  G. Gidofalvi,  M. Goldey,  J. Gomes,  
 C. Gonzalez-Espinoza,  S. Gulania,  A. Gunina,  M. W. D. Hanson-Heine,  
 P. H. P. Harbach,  A. W. Hauser,  M. F. Herbst,  M. Hernandez Vera,  
 M. Hodecker,  Z. C. Holden,  S. Houck,  Xunkun Huang,  Kerwin Hui,  
 B. C. Huynh,  M. Ivanov,  Hyunjun Ji,  Hanjie Jiang,  B. Kaduk,  S. Kaehler,  
 K. Khistyaev,  Jaehoon Kim,  P. Klunzinger,  Z. Koczor-Benda,  
 Joong Hoon Koh,  D. Kosenkov,  L. Koulias,  T. Kowalczyk,  C. M. Krauter,  
 K. Kue,  A. Kunitsa,  T. Kus,  A. Landau,  K. V. Lawler,  D. Lefrancois,  
 S. Lehtola,  Rain Li,  Yi-Pei Li,  Jiashu Liang,  M. Liebenthal,  
 Hung-Hsuan Lin,  You-Sheng Lin,  Fenglai Liu,  Kuan-Yu Liu,  
 M. Loipersberger,  A. Luenser,  A. Manjanath,  P. Manohar,  E. Mansoor,  
 S. F. Manzer,  Shan-Ping Mao,  A. V. Marenich,  T. Markovich,  S. Mason,  
 S. A. Maurer,  P. F. McLaughlin,  M. F. S. J. Menger,  J.-M. Mewes,  
 S. A. Mewes,  P. Morgante,  J. W. Mullinax,  K. J. Oosterbaan,  G. Paran,  
 Alexander C. Paul,  Suranjan K. Paul,  F. Pavosevic,  Zheng Pei,  S. Prager,  
 E. I. Proynov,  E. Ramos,  B. Rana,  A. E. Rask,  A. Rettig,  R. M. Richard,  
 F. Rob,  E. Rossomme,  T. Scheele,  M. Scheurer,  M. Schneider,  
 N. Sergueev,  S. M. Sharada,  W. Skomorowski,  D. W. Small,  C. J. Stein,  
 Yu-Chuan Su,  E. J. Sundstrom,  Zhen Tao,  J. Thirman,  T. Tsuchimochi,  
 N. M. Tubman,  S. P. Veccham,  O. Vydrov,  J. Wenzel,  J. Witte,  A. Yamada,  
 Kun Yao,  S. Yeganeh,  S. R. Yost,  A. Zech,  Igor Ying Zhang,  Xing Zhang,  
 Yu Zhang,  D. Zuev,  A. Aspuru-Guzik,  A. T. Bell,  N. A. Besley,  
 K. B. Bravaya,  B. R. Brooks,  D. Casanova,  Jeng-Da Chai,  S. Coriani,  
 C. J. Cramer,  A. E. DePrince, III,  R. A. DiStasio Jr.,  A. Dreuw,  
 B. D. Dunietz,  T. R. Furlani,  W. A. Goddard III,  S. Grimme,  
 S. Hammes-Schiffer,  T. Head-Gordon,  W. J. Hehre,  Chao-Ping Hsu,  
 T.-C. Jagau,  Yousung Jung,  A. Klamt,  Jing Kong,  D. S. Lambrecht,  
 WanZhen Liang,  N. J. Mayhall,  C. W. McCurdy,  J. B. Neaton,  
 C. Ochsenfeld,  J. A. Parkhill,  R. Peverati,  V. A. Rassolov,  Yihan Shao,  
 L. V. Slipchenko,  T. Stauch,  R. P. Steele,  J. E. Subotnik,  
 A. J. W. Thom,  A. Tkatchenko,  D. G. Truhlar,  T. Van Voorhis,  
 T. A. Wesolowski,  K. B. Whaley,  H. L. Woodcock III,  P. M. Zimmerman,  
 S. Faraji,  P. M. W. Gill,  M. Head-Gordon,  J. M. Herbert,  A. I. Krylov

 Additional authors for Version 5.4.1: 
 S. Kotaru,  Shaozhi Li,  Xiangyuan Li,  F. Matz,  A. Molle,  Haisheng Ren,  
 Yingli Su,  Hung-Yi Tsai,  C. Utku,  Fang Wang

 Contributors to earlier versions of Q-Chem not listed above: 
 R. D. Adamson,  B. Austin,  R. Baer,  J. Baker,  G. J. O. Beran,  
 K. Brandhorst,  S. T. Brown,  E. F. C. Byrd,  A. K. Chakraborty,  
 G. K. L. Chan,  Chun-Min Chang,  Yunqing Chen,  C.-L. Cheng,  
 Siu Hung Chien,  D. M. Chipman,  D. L. Crittenden,  H. Dachsel,  
 R. J. Doerksen,  A. D. Dutoi,  R. G. Edgar,  J. Fosso-Tande,  
 L. Fusti-Molnar,  D. Ghosh,  A. Ghysels,  A. Golubeva-Zadorozhnaya,  
 J. Gonthier,  M. S. Gordon,  S. R. Gwaltney,  G. Hawkins,  J. E. Herr,  
 A. Heyden,  S. Hirata,  E. G. Hohenstein,  G. Kedziora,  F. J. Keil,  
 C. Kelley,  Jihan Kim,  R. A. King,  R. Z. Khaliullin,  P. P. Korambath,  
 W. Kurlancheek,  A. Laurent,  A. M. Lee,  M. S. Lee,  S. V. Levchenko,  
 Ching Yeh Lin,  D. Liotard,  E. Livshits,  R. C. Lochan,  I. Lotan,  
 L. A. Martinez-Martinez,  P. E. Maslen,  N. Nair,  D. P. O'Neill,  
 D. Neuhauser,  E. Neuscamman,  C. M. Oana,  R. Olivares-Amaya,  R. Olson,  
 T. M. Perrine,  B. Peters,  P. A. Pieniazek,  A. Prociuk,  Y. M. Rhee,  
 J. Ritchie,  M. A. Rohrdanz,  E. Rosta,  N. J. Russ,  H. F. Schaefer III,  
 M. W. Schmidt,  N. E. Schultz,  S. Sharma,  N. Shenvi,  C. D. Sherrill,  
 A. C. Simmonett,  A. Sodt,  T. Stein,  D. Stuck,  K. S. Thanthiriwatte,  
 V. Vanovschi,  L. Vogt,  Tao Wang,  A. Warshel,  M. A. Watson,  
 C. F. Williams,  Q. Wu,  X. Xu,  Jun Yang,  W. Zhang,  Yan Zhao

 Please cite Q-Chem as follows:
 Y. Shao et al., Mol. Phys. 113, 184-215 (2015)
 DOI: 10.1080/00268976.2014.952696

 Q-Chem 5.4.1 for Intel X86 EM64T Linux

 Parts of Q-Chem use Armadillo 9.800.1 (Horizon Scraper).
 http://arma.sourceforge.net/

 Q-Chem begins on Tue Jun 21 14:59:33 2022  

 Host: 
0

     Scratch files written to /tmp/qchem3398834//
 Aug1521 |scratch|qcdevops|jenkins|workspace|build_RNUM 8286   
 Processing $rem in /opt/apps/qchem/config/preferences:
 Processing $rem in /home/rpaton/.qchemrc:

 Checking the input file for inconsistencies... 	...done.

--------------------------------------------------------------
User input:
--------------------------------------------------------------
$molecule
0 1
C  -0.550114  -1.46263  -0.280255
C  0.924316  -0.643239  0.976302
C  -0.799432  1.532811  0.375473
C  -1.521912  -0.528551  -0.626264
H  0.153542  -1.799091  -1.034087
H  -0.808327  -2.216096  0.461924
H  -1.504371  -0.024268  -1.585608
C  1.371535  0.457279  0.257259
C  0.497136  1.523978  -0.052766
H  1.585169  -1.480232  1.172328
H  -1.509892  2.258919  -0.006455
H  0.824066  2.20247  -0.835828
H  0.19083  -0.466432  1.752045
H  -1.100105  1.034154  1.289354
O  2.537886  0.483114  -0.438258
C  3.462554  -0.558275  -0.211973
H  3.074543  -1.521942  -0.56344
H  4.354252  -0.301154  -0.783151
H  3.71618  -0.638663  0.851718
C  -2.779975  -0.486953  0.114674
O  -3.766151  0.147509  -0.197025
H  -2.774411  -1.099175  1.048765
$end

$rem
METHOD wB97X-V
BASIS def2-TZVP
XC_GRID 000099000590
MEM_TOTAL          8000
MEM_STATIC         4000
$end


--------------------------------------------------------------
 ----------------------------------------------------------------
             Standard Nuclear Orientation (Angstroms)
    I     Atom           X                Y                Z
 ----------------------------------------------------------------
    1      C       0.5501140806     1.4626299117    -0.2802550071
    2      C      -0.9243159836     0.6432389431     0.9763019380
    3      C       0.7994320197    -1.5328110828     0.3754730413
    4      C       1.5219120859     0.5285508970    -0.6262639525
    5      H      -0.1535418825     1.7990909098    -1.0340870424
    6      H       0.8083270558     2.2160959182     0.4619239949
    7      H       1.5043711229     0.0242678852    -1.5856079470
    8      C      -1.3715349636    -0.4572790611     0.2572589320
    9      C      -0.4971359613    -1.5239780743    -0.0527660161
   10      H      -1.5851689834     1.4802319526     1.1723278983
   11      H       1.5098920289    -2.2589190951    -0.0064549182
   12      H      -0.8240659339    -2.2024700806    -0.8358280220
   13      H      -0.1908300198     0.4664319450     1.7520449726
   14      H       1.1001049847    -1.0341540746     1.2893540484
   15      O      -2.5378859332    -0.4831140574    -0.4382581192
   16      C      -3.4625539321     0.5582749553    -0.2119731731
   17      H      -3.0745429063     1.5219419468    -0.5634401680
   18      H      -4.3542519096     0.3011539576    -0.7831512093
   19      H      -3.7161799782     0.6386629713     0.8517178147
   20      C       2.7799750528     0.4869528929     0.1146741036
   21      O       3.7661510598    -0.1475091215    -0.1970248449
   22      H       2.7744110180     1.0991749046     1.0487650957
 ----------------------------------------------------------------
 Molecular Point Group                 C1    NOp =  1
 Largest Abelian Subgroup              C1    NOp =  1
 Nuclear Repulsion Energy =         520.10010533 hartrees
 There are       38 alpha and       38 beta electrons
 Requested basis set is def2-TZVP
 There are 158 shells and 382 basis functions

 Total QAlloc Memory Limit   8000 MB
 Mega-Array Size      3911 MB
 MEM_STATIC part      4000 MB
 A cutoff of  1.0D-08 yielded   9712 shell pairs
 There are     56026 function pairs (     71161 Cartesian)
 Smallest overlap matrix eigenvalue = 5.40E-05

 Q-Chem warning in module stvman/mkSTV.C, line 323:

 Overlap eigenvalue is smaller than square root of threshold
 Use THRESH >= 12 to get rid of this warning


 Scale SEOQF with 1.000000e-01/1.000000e-01/1.000000e-01

 Standard Electronic Orientation quadrupole field applied
 Nucleus-field energy     =     0.0000000164 hartrees
 Guess from superposition of atomic densities
 Warning:  Energy on first SCF cycle will be non-variational
 SAD guess density has 76.000000 electrons

 -----------------------------------------------------------------------
  General SCF calculation program by
  Eric Jon Sundstrom, Paul Horn, Yuezhi Mao, Dmitri Zuev, Alec White,
  David Stuck, Shaama M.S., Shane Yost, Joonho Lee, David Small,
  Daniel Levine, Susi Lehtola, Hugh Burton, Evgeny Epifanovsky,
  Bang C. Huynh
 -----------------------------------------------------------------------
 Exchange:     0.1670 Hartree-Fock + 1.0000 wB97X-V + LR-HF
 Correlation:  1.0000 wB97X-V
 Using Euler-Maclaurin-Lebedev (99,590) quadrature formula
 Nonlocal Correlation:  VV10 with C = 0.0100 and b = 6.00 and scale = 1.00000
 Grid used for NLC:  SG-1 standard quadrature
 using 16 threads for integral computing
 -------------------------------------------------------
 OpenMP Integral computing Module                
 Release: version 1.0, May 2013, Q-Chem Inc. Pittsburgh 
 -------------------------------------------------------
 -------------------------------------------------------
 OpenMP BLAS3 based DFT computing Module                
 Release: version 1.0, May 2013, Q-Chem Inc. Pittsburgh 
 -------------------------------------------------------
 A restricted SCF calculation will be
 performed using DIIS
 SCF converges when DIIS error is below 1.0e-05
 ---------------------------------------
  Cycle       Energy         DIIS error
 ---------------------------------------
    1    -464.9561815183      2.77e-02  
    2    -462.2850925812      2.90e-03  
    3    -462.2613801310      3.59e-03  
    4    -462.4219896525      4.32e-04  
    5    -462.4247594890      2.03e-04  
    6    -462.4255049667      5.15e-05  
    7    -462.4255795839      2.06e-05  
    8    -462.4255979047      9.50e-06  Convergence criterion met
 ---------------------------------------
 SCF time:   CPU 594.14s  wall 37.00s 
 SCF   energy in the final basis set =     -462.4255979047
 Total energy in the final basis set =     -462.4255979047
 
 --------------------------------------------------------------
 
                    Orbital Energies (a.u.)
 --------------------------------------------------------------
 
 Alpha MOs
 -- Occupied --
-19.2600 -19.1830 -10.3491 -10.3407 -10.3348 -10.2977 -10.2959 -10.2888
-10.2773 -10.2682  -1.2180  -1.1530  -0.9688  -0.9152  -0.8743  -0.8563
 -0.7616  -0.7546  -0.6834  -0.6701  -0.6442  -0.6174  -0.6029  -0.5728
 -0.5700  -0.5581  -0.5300  -0.5218  -0.5109  -0.5036  -0.4898  -0.4831
 -0.4782  -0.4541  -0.4240  -0.3560  -0.3455  -0.2995
 -- Virtual --
  0.0212   0.0573   0.0994   0.1169   0.1252   0.1370   0.1429   0.1546
  0.1672   0.1752   0.1812   0.1853   0.1966   0.2027   0.2127   0.2250
  0.2338   0.2591   0.2654   0.2687   0.2807   0.2851   0.2915   0.3087
  0.3187   0.3285   0.3393   0.3451   0.3610   0.3713   0.3838   0.3918
  0.3980   0.4150   0.4172   0.4196   0.4406   0.4567   0.4658   0.4710
  0.4780   0.4820   0.4928   0.4956   0.5043   0.5173   0.5200   0.5252
  0.5366   0.5380   0.5426   0.5528   0.5594   0.5753   0.5803   0.5922
  0.6017   0.6149   0.6305   0.6351   0.6450   0.6596   0.6627   0.6730
  0.6928   0.7038   0.7168   0.7251   0.7399   0.7484   0.7684   0.7775
  0.8034   0.8087   0.8291   0.8341   0.8730   0.8819   0.8947   0.9050
  0.9334   0.9643   0.9692   0.9914   1.0011   1.0249   1.0275   1.0609
  1.0644   1.0756   1.0795   1.0886   1.0923   1.1328   1.1415   1.1464
  1.1661   1.1720   1.1807   1.2068   1.2455   1.2542   1.2687   1.2774
  1.2973   1.3031   1.3333   1.3344   1.3624   1.3835   1.4279   1.4337
  1.4518   1.4720   1.4939   1.5038   1.5364   1.5528   1.5671   1.5756
  1.5927   1.6039   1.6119   1.6187   1.6371   1.6459   1.6631   1.6638
  1.6849   1.6944   1.7117   1.7227   1.7363   1.7611   1.7648   1.7674
  1.7794   1.7933   1.8085   1.8220   1.8473   1.8729   1.8775   1.9106
  1.9217   1.9341   1.9556   1.9759   1.9885   2.0145   2.0390   2.0486
  2.0738   2.0872   2.1057   2.1129   2.1313   2.1598   2.1787   2.1867
  2.2074   2.2118   2.2456   2.2750   2.2927   2.3207   2.3449   2.3587
  2.3652   2.3711   2.3875   2.3949   2.4088   2.4409   2.4481   2.4660
  2.4855   2.5057   2.5212   2.5448   2.5575   2.5620   2.5762   2.5966
  2.6171   2.6334   2.6437   2.6513   2.6542   2.6796   2.6979   2.7089
  2.7281   2.7375   2.7559   2.7666   2.7822   2.7983   2.8086   2.8189
  2.8245   2.8560   2.8648   2.8725   2.9017   2.9146   2.9237   2.9257
  2.9493   2.9567   2.9892   3.0135   3.0255   3.0467   3.0524   3.0706
  3.1102   3.1150   3.1195   3.1520   3.1574   3.1670   3.1760   3.1980
  3.2133   3.2291   3.2348   3.2464   3.2680   3.2778   3.2865   3.2929
  3.3043   3.3221   3.3405   3.3566   3.3644   3.3801   3.3867   3.3961
  3.4169   3.4198   3.4397   3.4506   3.4638   3.4670   3.4900   3.4995
  3.5029   3.5179   3.5361   3.5474   3.5608   3.5727   3.6046   3.6136
  3.6329   3.6383   3.6634   3.6691   3.6867   3.7109   3.7235   3.7333
  3.7684   3.7716   3.7936   3.8405   3.8624   3.8934   3.9061   3.9695
  3.9745   4.0036   4.0500   4.0781   4.1362   4.1523   4.1780   4.2094
  4.2355   4.2554   4.2593   4.2773   4.3316   4.3446   4.3597   4.3793
  4.3880   4.4260   4.4343   4.4747   4.4830   4.5355   4.6324   4.6593
  4.6712   4.6866   4.7066   4.7762   4.7968   4.8192   4.8840   4.9395
  4.9502   4.9776   5.0461   5.0912   5.1943   5.2365   5.3176   5.3371
  5.4564   5.6036   5.6866   5.7902   5.8636   6.0122   6.0253   6.2234
  6.4043   6.4659   6.4824   6.5437   6.5654   6.6002   6.7555   6.8479
  6.9341   6.9644   7.0822   7.1864   7.2520   7.4727  22.3441  22.4465
 22.4740  22.6077  22.7353  22.8095  23.0219  23.1490  43.9427  44.2761
 --------------------------------------------------------------
 
          Ground-State Mulliken Net Atomic Charges

     Atom                 Charge (a.u.)
  ----------------------------------------
      1 C                    -0.236505
      2 C                    -0.373810
      3 C                    -0.238720
      4 C                    -0.140001
      5 H                     0.137385
      6 H                     0.158519
      7 H                     0.133636
      8 C                     0.261574
      9 C                    -0.183974
     10 H                     0.158871
     11 H                     0.164438
     12 H                     0.128506
     13 H                     0.147554
     14 H                     0.142242
     15 O                    -0.235460
     16 C                    -0.231431
     17 H                     0.122049
     18 H                     0.143149
     19 H                     0.133291
     20 C                     0.064681
     21 O                    -0.309398
     22 H                     0.053403
  ----------------------------------------
  Sum of atomic charges =     0.000000

 -----------------------------------------------------------------
                    Cartesian Multipole Moments
 -----------------------------------------------------------------
    Charge (ESU x 10^10)
                 0.0000
    Dipole Moment (Debye)
         X      -5.0358      Y       1.9234      Z       0.9791
       Tot       5.4788
    Quadrupole Moments (Debye-Ang)
        XX     -74.8176     XY      -2.7082     YY     -58.8612
        XZ       3.0089     YZ       1.9116     ZZ     -60.4387
    Octopole Moments (Debye-Ang^2)
       XXX    -118.5450    XXY      18.6286    XYY       2.1127
       YYY      -1.2371    XXZ       6.4902    XYZ       1.3509
       YYZ      -3.1457    XZZ       1.2522    YZZ       0.9495
       ZZZ      -3.0263
    Hexadecapole Moments (Debye-Ang^3)
      XXXX   -2047.6620   XXXY      -2.2806   XXYY    -370.3295
      XYYY     -12.4614   YYYY    -438.5262   XXXZ      41.1639
      XXYZ       1.2459   XYYZ       6.6189   YYYZ      18.1942
      XXZZ    -331.3548   XYZZ      -3.0259   YYZZ    -105.4516
      XZZZ       8.1358   YZZZ       5.6203   ZZZZ    -183.2896
 -----------------------------------------------------------------
 Total job time:  38.02s(wall), 597.73s(cpu) 
 Tue Jun 21 15:00:11 2022

        *************************************************************
        *                                                           *
        *  Thank you very much for using Q-Chem.  Have a nice day.  *
        *                                                           *
        *************************************************************


remove work dirs /tmp/qchem3398834.0 -- /tmp/qchem3398834.-1
rm -rf /tmp/qchem3398834
