You are running Q-Chem version: 5.4.1

#
# job setting
#
local host:  node07.cluster
current dir: /home/rpaton/opt
input file:  /home/rpaton/opt/DATS_14_exo_ii_TZVP.qcin
output file: 
nprocs     : 0
nthreads   : 16
#
# qchem installation setting
#
QC:          /opt/apps/qchem
QCAUX:       /opt/apps/qchem/qcaux
QCPROG:      /opt/apps/qchem/exe/qcprog.exe_s
QCPROG_S:    /opt/apps/qchem/exe/qcprog.exe_s
PARALLEL:    -DSERIAL
QCMPI:       seq
#
# qchem directory setting
#
qcrun:       qchem3097508
QCSCRATCH:   /tmp
QCLOCALSCR:  
QCTMPDIR:    /tmp
QCFILEPREF:  /tmp/qchem3097508
QCSAVEDIR:   
workdirs:    /tmp/qchem3097508
workdir0:    /tmp/qchem3097508
partmpdirs =  
#
# parallel setting
#
QCRSH:           ssh
QCMPI:           seq
QCMPIRUN:        
QCMACHINEFILE:   /tmp/qchem3097508/hostfile

#
# env setting
#
exported envs:   QC QCAUX QCSCRATCH QCRUNNAME QCFILEPREF QCPROG QCPROG_S GUIFILE

Running Job 1 of 1 /home/rpaton/opt/DATS_14_exo_ii_TZVP.qcin
qchem /home/rpaton/opt/DATS_14_exo_ii_TZVP.qcin_3097508.0 /tmp/qchem3097508/ 0
/opt/apps/qchem/exe/qcprog.exe_s /home/rpaton/opt/DATS_14_exo_ii_TZVP.qcin_3097508.0 /tmp/qchem3097508/
                  Welcome to Q-Chem
     A Quantum Leap Into The Future Of Chemistry


 Q-Chem 5.4, Q-Chem, Inc., Pleasanton, CA (2021)

 E. Epifanovsky,  A. T. B. Gilbert,  Xintian Feng,  Joonho Lee,  Yuezhi Mao,  
 N. Mardirossian,  P. Pokhilko,  A. White,  M. Wormit,  M. P. Coons,  
 A. L. Dempwolff,  Zhengting Gan,  D. Hait,  P. R. Horn,  L. D. Jacobson,  
 I. Kaliman,  J. Kussmann,  A. W. Lange,  Ka Un Lao,  D. S. Levine,  Jie Liu,  
 S. C. McKenzie,  A. F. Morrison,  K. Nanda,  F. Plasser,  D. R. Rehn,  
 M. L. Vidal,  Zhi-Qiang You,  Ying Zhu,  B. Alam,  B. Albrecht,  
 A. Aldossary,  E. Alguire,  J. H. Andersen,  D. Barton,  K. Begam,  A. Behn,  
 Y. A. Bernard,  E. J. Berquist,  H. Burton,  A. Carreras,  K. Carter-Fenk,  
 R. Chakraborty,  A. D. Chien,  K. D. Closser,  V. Cofer-Shabica,  
 S. Dasgupta,  Jia Deng,  M. de Wergifosse,  M. Diedenhofen,  Hainam Do,  
 S. Ehlert,  Po-Tung Fang,  S. Fatehi,  Qingguo Feng,  T. Friedhoff,  
 J. Gayvert,  Qinghui Ge,  G. Gidofalvi,  M. Goldey,  J. Gomes,  
 C. Gonzalez-Espinoza,  S. Gulania,  A. Gunina,  M. W. D. Hanson-Heine,  
 P. H. P. Harbach,  A. W. Hauser,  M. F. Herbst,  M. Hernandez Vera,  
 M. Hodecker,  Z. C. Holden,  S. Houck,  Xunkun Huang,  Kerwin Hui,  
 B. C. Huynh,  M. Ivanov,  Hyunjun Ji,  Hanjie Jiang,  B. Kaduk,  S. Kaehler,  
 K. Khistyaev,  Jaehoon Kim,  P. Klunzinger,  Z. Koczor-Benda,  
 Joong Hoon Koh,  D. Kosenkov,  L. Koulias,  T. Kowalczyk,  C. M. Krauter,  
 K. Kue,  A. Kunitsa,  T. Kus,  A. Landau,  K. V. Lawler,  D. Lefrancois,  
 S. Lehtola,  Rain Li,  Yi-Pei Li,  Jiashu Liang,  M. Liebenthal,  
 Hung-Hsuan Lin,  You-Sheng Lin,  Fenglai Liu,  Kuan-Yu Liu,  
 M. Loipersberger,  A. Luenser,  A. Manjanath,  P. Manohar,  E. Mansoor,  
 S. F. Manzer,  Shan-Ping Mao,  A. V. Marenich,  T. Markovich,  S. Mason,  
 S. A. Maurer,  P. F. McLaughlin,  M. F. S. J. Menger,  J.-M. Mewes,  
 S. A. Mewes,  P. Morgante,  J. W. Mullinax,  K. J. Oosterbaan,  G. Paran,  
 Alexander C. Paul,  Suranjan K. Paul,  F. Pavosevic,  Zheng Pei,  S. Prager,  
 E. I. Proynov,  E. Ramos,  B. Rana,  A. E. Rask,  A. Rettig,  R. M. Richard,  
 F. Rob,  E. Rossomme,  T. Scheele,  M. Scheurer,  M. Schneider,  
 N. Sergueev,  S. M. Sharada,  W. Skomorowski,  D. W. Small,  C. J. Stein,  
 Yu-Chuan Su,  E. J. Sundstrom,  Zhen Tao,  J. Thirman,  T. Tsuchimochi,  
 N. M. Tubman,  S. P. Veccham,  O. Vydrov,  J. Wenzel,  J. Witte,  A. Yamada,  
 Kun Yao,  S. Yeganeh,  S. R. Yost,  A. Zech,  Igor Ying Zhang,  Xing Zhang,  
 Yu Zhang,  D. Zuev,  A. Aspuru-Guzik,  A. T. Bell,  N. A. Besley,  
 K. B. Bravaya,  B. R. Brooks,  D. Casanova,  Jeng-Da Chai,  S. Coriani,  
 C. J. Cramer,  A. E. DePrince, III,  R. A. DiStasio Jr.,  A. Dreuw,  
 B. D. Dunietz,  T. R. Furlani,  W. A. Goddard III,  S. Grimme,  
 S. Hammes-Schiffer,  T. Head-Gordon,  W. J. Hehre,  Chao-Ping Hsu,  
 T.-C. Jagau,  Yousung Jung,  A. Klamt,  Jing Kong,  D. S. Lambrecht,  
 WanZhen Liang,  N. J. Mayhall,  C. W. McCurdy,  J. B. Neaton,  
 C. Ochsenfeld,  J. A. Parkhill,  R. Peverati,  V. A. Rassolov,  Yihan Shao,  
 L. V. Slipchenko,  T. Stauch,  R. P. Steele,  J. E. Subotnik,  
 A. J. W. Thom,  A. Tkatchenko,  D. G. Truhlar,  T. Van Voorhis,  
 T. A. Wesolowski,  K. B. Whaley,  H. L. Woodcock III,  P. M. Zimmerman,  
 S. Faraji,  P. M. W. Gill,  M. Head-Gordon,  J. M. Herbert,  A. I. Krylov

 Additional authors for Version 5.4.1: 
 S. Kotaru,  Shaozhi Li,  Xiangyuan Li,  F. Matz,  A. Molle,  Haisheng Ren,  
 Yingli Su,  Hung-Yi Tsai,  C. Utku,  Fang Wang

 Contributors to earlier versions of Q-Chem not listed above: 
 R. D. Adamson,  B. Austin,  R. Baer,  J. Baker,  G. J. O. Beran,  
 K. Brandhorst,  S. T. Brown,  E. F. C. Byrd,  A. K. Chakraborty,  
 G. K. L. Chan,  Chun-Min Chang,  Yunqing Chen,  C.-L. Cheng,  
 Siu Hung Chien,  D. M. Chipman,  D. L. Crittenden,  H. Dachsel,  
 R. J. Doerksen,  A. D. Dutoi,  R. G. Edgar,  J. Fosso-Tande,  
 L. Fusti-Molnar,  D. Ghosh,  A. Ghysels,  A. Golubeva-Zadorozhnaya,  
 J. Gonthier,  M. S. Gordon,  S. R. Gwaltney,  G. Hawkins,  J. E. Herr,  
 A. Heyden,  S. Hirata,  E. G. Hohenstein,  G. Kedziora,  F. J. Keil,  
 C. Kelley,  Jihan Kim,  R. A. King,  R. Z. Khaliullin,  P. P. Korambath,  
 W. Kurlancheek,  A. Laurent,  A. M. Lee,  M. S. Lee,  S. V. Levchenko,  
 Ching Yeh Lin,  D. Liotard,  E. Livshits,  R. C. Lochan,  I. Lotan,  
 L. A. Martinez-Martinez,  P. E. Maslen,  N. Nair,  D. P. O'Neill,  
 D. Neuhauser,  E. Neuscamman,  C. M. Oana,  R. Olivares-Amaya,  R. Olson,  
 T. M. Perrine,  B. Peters,  P. A. Pieniazek,  A. Prociuk,  Y. M. Rhee,  
 J. Ritchie,  M. A. Rohrdanz,  E. Rosta,  N. J. Russ,  H. F. Schaefer III,  
 M. W. Schmidt,  N. E. Schultz,  S. Sharma,  N. Shenvi,  C. D. Sherrill,  
 A. C. Simmonett,  A. Sodt,  T. Stein,  D. Stuck,  K. S. Thanthiriwatte,  
 V. Vanovschi,  L. Vogt,  Tao Wang,  A. Warshel,  M. A. Watson,  
 C. F. Williams,  Q. Wu,  X. Xu,  Jun Yang,  W. Zhang,  Yan Zhao

 Please cite Q-Chem as follows:
 Y. Shao et al., Mol. Phys. 113, 184-215 (2015)
 DOI: 10.1080/00268976.2014.952696

 Q-Chem 5.4.1 for Intel X86 EM64T Linux

 Parts of Q-Chem use Armadillo 9.800.1 (Horizon Scraper).
 http://arma.sourceforge.net/

 Q-Chem begins on Tue Jun 21 14:55:33 2022  

 Host: 
0

     Scratch files written to /tmp/qchem3097508//
 Aug1521 |scratch|qcdevops|jenkins|workspace|build_RNUM 8286   
 Processing $rem in /opt/apps/qchem/config/preferences:
 Processing $rem in /home/rpaton/.qchemrc:

 Checking the input file for inconsistencies... 	...done.

--------------------------------------------------------------
User input:
--------------------------------------------------------------
$molecule
0 1
C  -0.654719  -1.21953  -0.756811
C  0.530045  -0.66952  0.758717
C  -0.71546  1.857766  0.239837
C  -1.61489  -0.248376  -1.045171
H  0.089304  -1.458374  -1.511647
H  -0.998247  -2.065619  -0.166366
H  -1.568728  0.354823  -1.94397
C  1.243486  0.418868  0.267372
C  0.596492  1.644818  -0.040171
H  1.05543  -1.586852  1.001663
H  -1.211317  2.755636  -0.116057
H  1.157058  2.344049  -0.654569
H  -0.330986  -0.4757  1.391452
H  -1.250991  1.281209  0.983867
O  2.514081  0.345092  -0.194949
C  3.234399  -0.848195  0.032763
H  2.782283  -1.693587  -0.499024
H  4.237984  -0.673201  -0.353601
H  3.285988  -1.080578  1.102666
C  -2.774297  -0.155623  -0.187132
O  -2.85319  -0.703705  0.906919
H  -3.605244  0.485849  -0.546595
$end

$rem
METHOD wB97X-V
BASIS def2-TZVP
XC_GRID 000099000590
MEM_TOTAL          8000
MEM_STATIC         4000
$end

--------------------------------------------------------------
 ----------------------------------------------------------------
             Standard Nuclear Orientation (Angstroms)
    I     Atom           X                Y                Z
 ----------------------------------------------------------------
    1      C       0.6547189844     1.2195300717    -0.7568108934
    2      C      -0.5300450941     0.6695199055     0.7587169849
    3      C       0.7154600146    -1.8577660123     0.2398368454
    4      C       1.6148900318     0.2483761255    -1.0451709168
    5      H      -0.0893039754     1.4583741144    -1.5116469195
    6      H       0.9982469219     2.0656190312    -0.1663657989
    7      H       1.5687281063    -0.3548227985    -1.9439699716
    8      C      -1.2434860305    -0.4188680736     0.2673718464
    9      C      -0.5964919743    -1.6448180277    -0.0401712186
   10      H      -1.0554301370     1.5868518688     1.0016630310
   11      H       1.2113170640    -2.7556359667    -0.1160572008
   12      H      -1.1570579146    -2.3440489916    -0.6545693140
   13      H       0.3309858721     0.4756998770     1.3914520223
   14      H       1.2509909505    -1.2812090602     0.9838669287
   15      O      -2.5140810037    -0.3450920721    -0.1949492269
   16      C      -3.2343990539     0.8481948866     0.0327628307
   17      H      -2.7822830460     1.6935869460    -0.4990240682
   18      H      -4.2379840244     0.6732008896    -0.3536012474
   19      H      -3.2859881280     1.0805777929     1.1026658474
   20      C       2.7742969807     0.1556230865    -0.1871318520
   21      O       2.8531898956     0.7037049947     0.9069192001
   22      H       3.6052440226    -0.4858488575    -0.5465948551
 ----------------------------------------------------------------
 Molecular Point Group                 C1    NOp =  1
 Largest Abelian Subgroup              C1    NOp =  1
 Nuclear Repulsion Energy =         528.34034672 hartrees
 There are       38 alpha and       38 beta electrons
 Requested basis set is def2-TZVP
 There are 158 shells and 382 basis functions

 Total QAlloc Memory Limit   8000 MB
 Mega-Array Size      3911 MB
 MEM_STATIC part      4000 MB
 A cutoff of  1.0D-08 yielded   9882 shell pairs
 There are     57570 function pairs (     73268 Cartesian)
 Smallest overlap matrix eigenvalue = 6.11E-05

 Q-Chem warning in module stvman/mkSTV.C, line 323:

 Overlap eigenvalue is smaller than square root of threshold
 Use THRESH >= 12 to get rid of this warning


 Scale SEOQF with 1.000000e-01/1.000000e-01/1.000000e-01

 Standard Electronic Orientation quadrupole field applied
 Nucleus-field energy     =     0.0000000140 hartrees
 Guess from superposition of atomic densities
 Warning:  Energy on first SCF cycle will be non-variational
 SAD guess density has 76.000000 electrons

 -----------------------------------------------------------------------
  General SCF calculation program by
  Eric Jon Sundstrom, Paul Horn, Yuezhi Mao, Dmitri Zuev, Alec White,
  David Stuck, Shaama M.S., Shane Yost, Joonho Lee, David Small,
  Daniel Levine, Susi Lehtola, Hugh Burton, Evgeny Epifanovsky,
  Bang C. Huynh
 -----------------------------------------------------------------------
 Exchange:     0.1670 Hartree-Fock + 1.0000 wB97X-V + LR-HF
 Correlation:  1.0000 wB97X-V
 Using Euler-Maclaurin-Lebedev (99,590) quadrature formula
 Nonlocal Correlation:  VV10 with C = 0.0100 and b = 6.00 and scale = 1.00000
 Grid used for NLC:  SG-1 standard quadrature
 using 16 threads for integral computing
 -------------------------------------------------------
 OpenMP Integral computing Module                
 Release: version 1.0, May 2013, Q-Chem Inc. Pittsburgh 
 -------------------------------------------------------
 -------------------------------------------------------
 OpenMP BLAS3 based DFT computing Module                
 Release: version 1.0, May 2013, Q-Chem Inc. Pittsburgh 
 -------------------------------------------------------
 A restricted SCF calculation will be
 performed using DIIS
 SCF converges when DIIS error is below 1.0e-05
 ---------------------------------------
  Cycle       Energy         DIIS error
 ---------------------------------------
    1    -464.9813143020      2.77e-02  
    2    -462.2867262147      2.92e-03  
    3    -462.2628250931      3.59e-03  
    4    -462.4263015602      4.23e-04  
    5    -462.4288731462      2.12e-04  
    6    -462.4296463770      5.49e-05  
    7    -462.4297305431      2.16e-05  
    8    -462.4297528145      1.03e-05  
    9    -462.4297604866      4.06e-06  Convergence criterion met
 ---------------------------------------
 SCF time:   CPU 687.70s  wall 46.00s 
 SCF   energy in the final basis set =     -462.4297604866
 Total energy in the final basis set =     -462.4297604866
 
 --------------------------------------------------------------
 
                    Orbital Energies (a.u.)
 --------------------------------------------------------------
 
 Alpha MOs
 -- Occupied --
-19.2644 -19.1736 -10.3535 -10.3359 -10.3296 -10.2935 -10.2928 -10.2855
-10.2800 -10.2553  -1.2224  -1.1415  -0.9672  -0.9071  -0.8744  -0.8559
 -0.7682  -0.7539  -0.6747  -0.6546  -0.6346  -0.6249  -0.6042  -0.5992
 -0.5616  -0.5342  -0.5318  -0.5222  -0.5101  -0.4952  -0.4921  -0.4749
 -0.4659  -0.4537  -0.4213  -0.3662  -0.3407  -0.2871
 -- Virtual --
  0.0108   0.0637   0.1048   0.1309   0.1370   0.1408   0.1574   0.1594
  0.1672   0.1768   0.1837   0.1876   0.1954   0.2097   0.2105   0.2299
  0.2539   0.2574   0.2664   0.2786   0.2839   0.2848   0.3025   0.3075
  0.3172   0.3291   0.3342   0.3418   0.3532   0.3732   0.3793   0.4016
  0.4071   0.4160   0.4311   0.4416   0.4443   0.4591   0.4610   0.4679
  0.4744   0.4890   0.4925   0.5041   0.5089   0.5094   0.5232   0.5282
  0.5392   0.5401   0.5488   0.5566   0.5619   0.5645   0.5879   0.5966
  0.6032   0.6139   0.6329   0.6404   0.6547   0.6648   0.6708   0.6810
  0.7051   0.7140   0.7233   0.7348   0.7449   0.7512   0.7725   0.7873
  0.8061   0.8098   0.8295   0.8407   0.8649   0.8915   0.9028   0.9228
  0.9435   0.9473   0.9679   1.0043   1.0126   1.0162   1.0320   1.0483
  1.0770   1.0799   1.0884   1.0994   1.1101   1.1298   1.1428   1.1650
  1.1715   1.1855   1.1986   1.2263   1.2560   1.2606   1.2730   1.2821
  1.2877   1.3125   1.3334   1.3592   1.3811   1.3976   1.4021   1.4278
  1.4446   1.4791   1.4979   1.5038   1.5405   1.5484   1.5677   1.5828
  1.5992   1.6131   1.6258   1.6280   1.6400   1.6527   1.6647   1.6814
  1.6926   1.7086   1.7126   1.7285   1.7413   1.7719   1.7815   1.7876
  1.7944   1.8174   1.8386   1.8547   1.8582   1.8726   1.8995   1.9068
  1.9195   1.9326   1.9555   1.9790   1.9950   2.0113   2.0133   2.0481
  2.0649   2.0748   2.0966   2.1037   2.1218   2.1616   2.1688   2.1845
  2.2088   2.2130   2.2365   2.2558   2.2784   2.3082   2.3284   2.3448
  2.3653   2.3761   2.3807   2.4020   2.4302   2.4591   2.4695   2.4837
  2.4988   2.5102   2.5254   2.5454   2.5648   2.5842   2.6029   2.6215
  2.6302   2.6410   2.6469   2.6624   2.6751   2.6863   2.7152   2.7182
  2.7253   2.7437   2.7530   2.7664   2.7847   2.7942   2.8136   2.8375
  2.8429   2.8657   2.8787   2.8948   2.9078   2.9214   2.9274   2.9475
  2.9482   2.9650   2.9764   2.9878   3.0175   3.0499   3.0560   3.0710
  3.0896   3.0952   3.1344   3.1580   3.1768   3.1810   3.1892   3.2019
  3.2060   3.2294   3.2423   3.2554   3.2631   3.2855   3.2937   3.3118
  3.3236   3.3384   3.3464   3.3571   3.3723   3.3835   3.3853   3.4047
  3.4140   3.4264   3.4383   3.4448   3.4539   3.4743   3.4949   3.5084
  3.5106   3.5319   3.5419   3.5547   3.5802   3.5834   3.6059   3.6211
  3.6245   3.6397   3.6628   3.6730   3.6913   3.7087   3.7393   3.7600
  3.7677   3.7885   3.8139   3.8360   3.8702   3.8796   3.9263   3.9551
  3.9793   4.0256   4.0903   4.1172   4.1299   4.1518   4.1842   4.2190
  4.2298   4.2427   4.2564   4.2682   4.3361   4.3555   4.3587   4.3709
  4.3938   4.4418   4.4579   4.4889   4.4986   4.5379   4.5822   4.6454
  4.6521   4.6844   4.7006   4.7731   4.8218   4.8640   4.9111   4.9562
  4.9720   5.0030   5.0483   5.0926   5.1987   5.2403   5.3275   5.3389
  5.4500   5.6037   5.6780   5.7885   5.8580   6.0137   6.0255   6.1935
  6.4058   6.4290   6.5112   6.5377   6.5478   6.6232   6.7514   6.8475
  6.9557   6.9608   7.1097   7.1938   7.2502   7.4784  22.3318  22.4625
 22.5014  22.6308  22.7437  22.7873  22.9754  23.1425  43.9730  44.2785
 --------------------------------------------------------------
 
          Ground-State Mulliken Net Atomic Charges

     Atom                 Charge (a.u.)
  ----------------------------------------
      1 C                    -0.171893
      2 C                    -0.369371
      3 C                    -0.289090
      4 C                    -0.200470
      5 H                     0.131328
      6 H                     0.166763
      7 H                     0.129047
      8 C                     0.232604
      9 C                    -0.143075
     10 H                     0.158643
     11 H                     0.140939
     12 H                     0.128976
     13 H                     0.180391
     14 H                     0.177982
     15 O                    -0.229977
     16 C                    -0.233211
     17 H                     0.126081
     18 H                     0.143861
     19 H                     0.136800
     20 C                     0.082579
     21 O                    -0.367214
     22 H                     0.068307
  ----------------------------------------
  Sum of atomic charges =     0.000000

 -----------------------------------------------------------------
                    Cartesian Multipole Moments
 -----------------------------------------------------------------
    Charge (ESU x 10^10)
                -0.0000
    Dipole Moment (Debye)
         X      -3.7556      Y      -0.1426      Z      -1.5387
       Tot       4.0611
    Quadrupole Moments (Debye-Ang)
        XX     -64.2524     XY      -9.8509     YY     -58.0917
        XZ      -5.3419     YZ       0.3923     ZZ     -63.8598
    Octopole Moments (Debye-Ang^2)
       XXX     -51.9326    XXY      -1.8976    XYY      -4.1882
       YYY      -0.7098    XXZ     -15.7736    XYZ      -3.9612
       YYZ      -3.1644    XZZ      -8.9495    YZZ      -0.2863
       ZZZ      -0.1259
    Hexadecapole Moments (Debye-Ang^3)
      XXXX   -1496.8392   XXXY     -78.1374   XXYY    -337.4784
      XYYY      -5.2294   YYYY    -470.0562   XXXZ     -43.7549
      XXYZ      -7.2140   XYYZ       5.2153   YYYZ      18.2028
      XXZZ    -316.3163   XYZZ      -9.3231   YYZZ    -124.4045
      XZZZ       9.5253   YZZZ       7.2755   ZZZZ    -229.7494
 -----------------------------------------------------------------
 Total job time:  46.24s(wall), 691.68s(cpu) 
 Tue Jun 21 14:56:19 2022

        *************************************************************
        *                                                           *
        *  Thank you very much for using Q-Chem.  Have a nice day.  *
        *                                                           *
        *************************************************************


remove work dirs /tmp/qchem3097508.0 -- /tmp/qchem3097508.-1
rm -rf /tmp/qchem3097508
