Job Start Time: Fri Mar  8 12:21:45 MST 2019
SLURM Job ID: 1963759
SLURM Job Name: Int-I_Oax
 Entering Gaussian System, Link 0=/projects/rpaton@colostate.edu/g16/g16
 Initial command:
 /projects/rpaton@colostate.edu/g16/l1.exe "/gpfs/summit/scratch/jvalegre@colostate.edu/1963759/Gau-250428.inp" -scrdir="/gpfs/summit/scratch/jvalegre@colostate.edu/1963759/"
 Entering Link 1 = /projects/rpaton@colostate.edu/g16/l1.exe PID=    250429.
  
 Copyright (c) 1988-2017, Gaussian, Inc.  All Rights Reserved.
  
 This is part of the Gaussian(R) 16 program.  It is based on
 the Gaussian(R) 09 system (copyright 2009, Gaussian, Inc.),
 the Gaussian(R) 03 system (copyright 2003, Gaussian, Inc.),
 the Gaussian(R) 98 system (copyright 1998, Gaussian, Inc.),
 the Gaussian(R) 94 system (copyright 1995, Gaussian, Inc.),
 the Gaussian 92(TM) system (copyright 1992, Gaussian, Inc.),
 the Gaussian 90(TM) system (copyright 1990, Gaussian, Inc.),
 the Gaussian 88(TM) system (copyright 1988, Gaussian, Inc.),
 the Gaussian 86(TM) system (copyright 1986, Carnegie Mellon
 University), and the Gaussian 82(TM) system (copyright 1983,
 Carnegie Mellon University). Gaussian is a federally registered
 trademark of Gaussian, Inc.
  
 This software contains proprietary and confidential information,
 including trade secrets, belonging to Gaussian, Inc.
  
 This software is provided under written license and may be
 used, copied, transmitted, or stored only in accord with that
 written license.
  
 The following legend is applicable only to US Government
 contracts under FAR:
  
                    RESTRICTED RIGHTS LEGEND
  
 Use, reproduction and disclosure by the US Government is
 subject to restrictions as set forth in subparagraphs (a)
 and (c) of the Commercial Computer Software - Restricted
 Rights clause in FAR 52.227-19.
  
 Gaussian, Inc.
 340 Quinnipiac St., Bldg. 40, Wallingford CT 06492
  
  
 ---------------------------------------------------------------
 Warning -- This program may not be used in any manner that
 competes with the business of Gaussian, Inc. or will provide
 assistance to any competitor of Gaussian, Inc.  The licensee
 of this program is prohibited from giving any competitor of
 Gaussian, Inc. access to this program.  By using this program,
 the user acknowledges that Gaussian, Inc. is engaged in the
 business of creating and licensing software in the field of
 computational chemistry and represents and warrants to the
 licensee that it is not a competitor of Gaussian, Inc. and that
 it will not use this program in any manner prohibited above.
 ---------------------------------------------------------------
  

 Cite this work as:
 Gaussian 16, Revision B.01,
 M. J. Frisch, G. W. Trucks, H. B. Schlegel, G. E. Scuseria, 
 M. A. Robb, J. R. Cheeseman, G. Scalmani, V. Barone, 
 G. A. Petersson, H. Nakatsuji, X. Li, M. Caricato, A. V. Marenich, 
 J. Bloino, B. G. Janesko, R. Gomperts, B. Mennucci, H. P. Hratchian, 
 J. V. Ortiz, A. F. Izmaylov, J. L. Sonnenberg, D. Williams-Young, 
 F. Ding, F. Lipparini, F. Egidi, J. Goings, B. Peng, A. Petrone, 
 T. Henderson, D. Ranasinghe, V. G. Zakrzewski, J. Gao, N. Rega, 
 G. Zheng, W. Liang, M. Hada, M. Ehara, K. Toyota, R. Fukuda, 
 J. Hasegawa, M. Ishida, T. Nakajima, Y. Honda, O. Kitao, H. Nakai, 
 T. Vreven, K. Throssell, J. A. Montgomery, Jr., J. E. Peralta, 
 F. Ogliaro, M. J. Bearpark, J. J. Heyd, E. N. Brothers, K. N. Kudin, 
 V. N. Staroverov, T. A. Keith, R. Kobayashi, J. Normand, 
 K. Raghavachari, A. P. Rendell, J. C. Burant, S. S. Iyengar, 
 J. Tomasi, M. Cossi, J. M. Millam, M. Klene, C. Adamo, R. Cammi, 
 J. W. Ochterski, R. L. Martin, K. Morokuma, O. Farkas, 
 J. B. Foresman, and D. J. Fox, Gaussian, Inc., Wallingford CT, 2016.
 
 ******************************************
 Gaussian 16:  ES64L-G16RevB.01 20-Dec-2017
                 8-Mar-2019 
 ******************************************
 %chk=Aro_anti_DATS_NH_TS_opt.chk
 %mem=98GB
 %nprocshared=24
 Will use up to   24 processors via shared memory.
 ----------------------------------------------------------------------
 # opt=maxcycles=200 freq=noraman wb97xd/gen geom=connectivity scrf=(so
 lvent=n,n-DiMethylAcetamide,smd)
 ----------------------------------------------------------------------
 1/6=200,18=20,19=15,26=3,38=1,57=2/1,3;
 2/9=110,12=2,17=6,18=5,40=1/2;
 3/5=7,11=2,25=1,30=1,70=32201,71=1,72=147,74=-58/1,2,3;
 4//1;
 5/5=2,38=5,53=147/2;
 6/7=2,8=2,9=2,10=2,28=1/1;
 7//1,2,3,16;
 1/6=200,18=20,19=15,26=3/3(2);
 2/9=110/2;
 99//99;
 2/9=110/2;
 3/5=7,6=1,11=2,25=1,30=1,70=32205,71=1,72=147,74=-58,82=7/1,2,3;
 4/5=5,16=3,69=1/1;
 5/5=2,38=5,53=147/2;
 7//1,2,3,16;
 1/6=200,18=20,19=15,26=3/3(-5);
 2/9=110/2;
 6/7=2,8=2,9=2,10=2,19=2,28=1/1;
 99/9=1/99;
 -------------------
 Title Card Required
 -------------------
 Symbolic Z-matrix:
 Charge =  0 Multiplicity = 1
 C                     1.43044   3.08234   0.00023 
 C                     2.81817   3.1959    0.00038 
 C                     3.61514   2.06027   0.00033 
 C                     3.03044   0.79696   0.00015 
 C                     1.65076   0.72519   0.00001 
 C                     0.82209   1.83142   0.00005 
 H                     0.81042   3.97126   0.00027 
 H                     3.27735   4.17751   0.00053 
 H                     4.69743   2.11665   0.00043 
 H                    -0.25627   1.73237  -0.00008 
 I                     0.92334  -1.28098  -0.00022 
 C                     3.86923  -0.46829   0.00014 
 O                     3.15076  -1.5485    0.00005 
 O                     5.07771  -0.40482   0.00017 
 C                    -1.05139  -0.63597  -0.00035 
 C                    -2.23578  -0.3931   -0.00019 
 C                    -3.62994  -0.07448  -0.00005 
 C                    -4.31573   0.0824    1.20948 
 C                    -4.31559   0.0841   -1.20943 
 C                    -5.66721   0.39451   1.20516 
 H                    -3.78172  -0.04277   2.14391 
 C                    -5.66707   0.39623  -1.20483 
 H                    -3.78147  -0.03971  -2.14397 
 C                    -6.34398   0.5518    0.00023 
 H                    -6.19407   0.51473   2.14455 
 H                    -6.19382   0.51775  -2.14412 
 H                    -7.40026   0.79527   0.00034 
 

 GradGradGradGradGradGradGradGradGradGradGradGradGradGradGradGradGradGrad
 Berny optimization.
 Initialization pass.
                           ----------------------------
                           !    Initial Parameters    !
                           ! (Angstroms and Degrees)  !
 --------------------------                            --------------------------
 ! Name  Definition              Value          Derivative Info.                !
 --------------------------------------------------------------------------------
 ! R1    R(1,2)                  1.3924         estimate D2E/DX2                !
 ! R2    R(1,6)                  1.391          estimate D2E/DX2                !
 ! R3    R(1,7)                  1.0838         estimate D2E/DX2                !
 ! R4    R(2,3)                  1.3874         estimate D2E/DX2                !
 ! R5    R(2,8)                  1.0837         estimate D2E/DX2                !
 ! R6    R(3,4)                  1.3921         estimate D2E/DX2                !
 ! R7    R(3,9)                  1.0838         estimate D2E/DX2                !
 ! R8    R(4,5)                  1.3815         estimate D2E/DX2                !
 ! R9    R(4,12)                 1.518          estimate D2E/DX2                !
 ! R10   R(5,6)                  1.3822         estimate D2E/DX2                !
 ! R11   R(5,11)                 2.134          estimate D2E/DX2                !
 ! R12   R(6,10)                 1.0829         estimate D2E/DX2                !
 ! R13   R(11,15)                2.0774         estimate D2E/DX2                !
 ! R14   R(12,13)                1.2973         estimate D2E/DX2                !
 ! R15   R(12,14)                1.2101         estimate D2E/DX2                !
 ! R16   R(15,16)                1.209          estimate D2E/DX2                !
 ! R17   R(16,17)                1.4301         estimate D2E/DX2                !
 ! R18   R(17,18)                1.3992         estimate D2E/DX2                !
 ! R19   R(17,19)                1.3992         estimate D2E/DX2                !
 ! R20   R(18,20)                1.3871         estimate D2E/DX2                !
 ! R21   R(18,21)                1.0835         estimate D2E/DX2                !
 ! R22   R(19,22)                1.3871         estimate D2E/DX2                !
 ! R23   R(19,23)                1.0835         estimate D2E/DX2                !
 ! R24   R(20,24)                1.3909         estimate D2E/DX2                !
 ! R25   R(20,25)                1.0837         estimate D2E/DX2                !
 ! R26   R(22,24)                1.3909         estimate D2E/DX2                !
 ! R27   R(22,26)                1.0837         estimate D2E/DX2                !
 ! R28   R(24,27)                1.084          estimate D2E/DX2                !
 ! A1    A(2,1,6)              120.6124         estimate D2E/DX2                !
 ! A2    A(2,1,7)              120.2177         estimate D2E/DX2                !
 ! A3    A(6,1,7)              119.1699         estimate D2E/DX2                !
 ! A4    A(1,2,3)              120.3828         estimate D2E/DX2                !
 ! A5    A(1,2,8)              119.7472         estimate D2E/DX2                !
 ! A6    A(3,2,8)              119.87           estimate D2E/DX2                !
 ! A7    A(2,3,4)              120.1028         estimate D2E/DX2                !
 ! A8    A(2,3,9)              122.0783         estimate D2E/DX2                !
 ! A9    A(4,3,9)              117.8188         estimate D2E/DX2                !
 ! A10   A(3,4,5)              117.8144         estimate D2E/DX2                !
 ! A11   A(3,4,12)             121.6214         estimate D2E/DX2                !
 ! A12   A(5,4,12)             120.5642         estimate D2E/DX2                !
 ! A13   A(4,5,6)              123.8588         estimate D2E/DX2                !
 ! A14   A(4,5,11)             112.9082         estimate D2E/DX2                !
 ! A15   A(6,5,11)             123.233          estimate D2E/DX2                !
 ! A16   A(1,6,5)              117.2286         estimate D2E/DX2                !
 ! A17   A(1,6,10)             121.1825         estimate D2E/DX2                !
 ! A18   A(5,6,10)             121.5889         estimate D2E/DX2                !
 ! A19   A(5,11,15)             91.8416         estimate D2E/DX2                !
 ! A20   A(4,12,13)            112.829          estimate D2E/DX2                !
 ! A21   A(4,12,14)            120.5357         estimate D2E/DX2                !
 ! A22   A(13,12,14)           126.6353         estimate D2E/DX2                !
 ! A23   A(16,17,18)           120.1896         estimate D2E/DX2                !
 ! A24   A(16,17,19)           120.1895         estimate D2E/DX2                !
 ! A25   A(18,17,19)           119.6208         estimate D2E/DX2                !
 ! A26   A(17,18,20)           120.0053         estimate D2E/DX2                !
 ! A27   A(17,18,21)           119.4048         estimate D2E/DX2                !
 ! A28   A(20,18,21)           120.5898         estimate D2E/DX2                !
 ! A29   A(17,19,22)           120.0057         estimate D2E/DX2                !
 ! A30   A(17,19,23)           119.405          estimate D2E/DX2                !
 ! A31   A(22,19,23)           120.5893         estimate D2E/DX2                !
 ! A32   A(18,20,24)           120.1477         estimate D2E/DX2                !
 ! A33   A(18,20,25)           119.7318         estimate D2E/DX2                !
 ! A34   A(24,20,25)           120.1204         estimate D2E/DX2                !
 ! A35   A(19,22,24)           120.1474         estimate D2E/DX2                !
 ! A36   A(19,22,26)           119.732          estimate D2E/DX2                !
 ! A37   A(24,22,26)           120.1206         estimate D2E/DX2                !
 ! A38   A(20,24,22)           120.073          estimate D2E/DX2                !
 ! A39   A(20,24,27)           119.9634         estimate D2E/DX2                !
 ! A40   A(22,24,27)           119.9635         estimate D2E/DX2                !
 ! A41   L(11,15,16,1,-1)      186.5001         estimate D2E/DX2                !
 ! A42   L(15,16,17,7,-1)      178.7155         estimate D2E/DX2                !
 ! A43   L(11,15,16,1,-2)      180.0132         estimate D2E/DX2                !
 ! A44   L(15,16,17,7,-2)      179.9977         estimate D2E/DX2                !
 ! D1    D(6,1,2,3)              0.0004         estimate D2E/DX2                !
 ! D2    D(6,1,2,8)           -179.9997         estimate D2E/DX2                !
 ! D3    D(7,1,2,3)            179.9999         estimate D2E/DX2                !
 ! D4    D(7,1,2,8)             -0.0002         estimate D2E/DX2                !
 ! D5    D(2,1,6,5)             -0.0001         estimate D2E/DX2                !
 ! D6    D(2,1,6,10)          -179.9993         estimate D2E/DX2                !
 ! D7    D(7,1,6,5)           -179.9996         estimate D2E/DX2                !
 ! D8    D(7,1,6,10)             0.0012         estimate D2E/DX2                !
 ! D9    D(1,2,3,4)             -0.0009         estimate D2E/DX2                !
 ! D10   D(1,2,3,9)            179.9994         estimate D2E/DX2                !
 ! D11   D(8,2,3,4)            179.9992         estimate D2E/DX2                !
 ! D12   D(8,2,3,9)             -0.0005         estimate D2E/DX2                !
 ! D13   D(2,3,4,5)              0.001          estimate D2E/DX2                !
 ! D14   D(2,3,4,12)          -179.9981         estimate D2E/DX2                !
 ! D15   D(9,3,4,5)           -179.9993         estimate D2E/DX2                !
 ! D16   D(9,3,4,12)             0.0016         estimate D2E/DX2                !
 ! D17   D(3,4,5,6)             -0.0008         estimate D2E/DX2                !
 ! D18   D(3,4,5,11)          -179.999          estimate D2E/DX2                !
 ! D19   D(12,4,5,6)           179.9984         estimate D2E/DX2                !
 ! D20   D(12,4,5,11)            0.0001         estimate D2E/DX2                !
 ! D21   D(3,4,12,13)          179.9956         estimate D2E/DX2                !
 ! D22   D(3,4,12,14)           -0.0058         estimate D2E/DX2                !
 ! D23   D(5,4,12,13)           -0.0035         estimate D2E/DX2                !
 ! D24   D(5,4,12,14)          179.9951         estimate D2E/DX2                !
 ! D25   D(4,5,6,1)              0.0003         estimate D2E/DX2                !
 ! D26   D(4,5,6,10)           179.9995         estimate D2E/DX2                !
 ! D27   D(11,5,6,1)           179.9984         estimate D2E/DX2                !
 ! D28   D(11,5,6,10)           -0.0024         estimate D2E/DX2                !
 ! D29   D(4,5,11,15)          179.9998         estimate D2E/DX2                !
 ! D30   D(6,5,11,15)            0.0015         estimate D2E/DX2                !
 ! D31   D(5,11,17,18)         -91.1307         estimate D2E/DX2                !
 ! D32   D(5,11,17,19)          91.0638         estimate D2E/DX2                !
 ! D33   D(16,17,18,20)        179.8492         estimate D2E/DX2                !
 ! D34   D(16,17,18,21)         -0.1923         estimate D2E/DX2                !
 ! D35   D(19,17,18,20)         -0.057          estimate D2E/DX2                !
 ! D36   D(19,17,18,21)        179.9016         estimate D2E/DX2                !
 ! D37   D(16,17,19,22)       -179.8479         estimate D2E/DX2                !
 ! D38   D(16,17,19,23)          0.1897         estimate D2E/DX2                !
 ! D39   D(18,17,19,22)          0.0582         estimate D2E/DX2                !
 ! D40   D(18,17,19,23)       -179.9041         estimate D2E/DX2                !
 ! D41   D(17,18,20,24)          0.0222         estimate D2E/DX2                !
 ! D42   D(17,18,20,25)        179.9829         estimate D2E/DX2                !
 ! D43   D(21,18,20,24)       -179.9359         estimate D2E/DX2                !
 ! D44   D(21,18,20,25)          0.0248         estimate D2E/DX2                !
 ! D45   D(17,19,22,24)         -0.0247         estimate D2E/DX2                !
 ! D46   D(17,19,22,26)       -179.9812         estimate D2E/DX2                !
 ! D47   D(23,19,22,24)        179.9372         estimate D2E/DX2                !
 ! D48   D(23,19,22,26)         -0.0193         estimate D2E/DX2                !
 ! D49   D(18,20,24,22)          0.0117         estimate D2E/DX2                !
 ! D50   D(18,20,24,27)        179.9729         estimate D2E/DX2                !
 ! D51   D(25,20,24,22)       -179.9488         estimate D2E/DX2                !
 ! D52   D(25,20,24,27)          0.0123         estimate D2E/DX2                !
 ! D53   D(19,22,24,20)         -0.0104         estimate D2E/DX2                !
 ! D54   D(19,22,24,27)       -179.9716         estimate D2E/DX2                !
 ! D55   D(26,22,24,20)        179.9459         estimate D2E/DX2                !
 ! D56   D(26,22,24,27)         -0.0153         estimate D2E/DX2                !
 --------------------------------------------------------------------------------
 Trust Radius=3.00D-01 FncErr=1.00D-07 GrdErr=1.00D-06 EigMax=2.50D+02 EigMin=1.00D-04
 Number of steps in this run=    162 maximum allowed number of steps=    162.
 GradGradGradGradGradGradGradGradGradGradGradGradGradGradGradGradGradGrad

                          Input orientation:                          
 ---------------------------------------------------------------------
 Center     Atomic      Atomic             Coordinates (Angstroms)
 Number     Number       Type             X           Y           Z
 ---------------------------------------------------------------------
      1          6           0        1.430436    3.082342    0.000233
      2          6           0        2.818173    3.195895    0.000376
      3          6           0        3.615143    2.060266    0.000327
      4          6           0        3.030439    0.796963    0.000152
      5          6           0        1.650763    0.725189    0.000010
      6          6           0        0.822088    1.831420    0.000047
      7          1           0        0.810423    3.971256    0.000274
      8          1           0        3.277353    4.177506    0.000525
      9          1           0        4.697427    2.116652    0.000426
     10          1           0       -0.256265    1.732373   -0.000076
     11         53           0        0.923342   -1.280982   -0.000215
     12          6           0        3.869233   -0.468294    0.000136
     13          8           0        3.150762   -1.548498    0.000053
     14          8           0        5.077710   -0.404824    0.000172
     15          6           0       -1.051388   -0.635973   -0.000353
     16          6           0       -2.235780   -0.393099   -0.000191
     17          6           0       -3.629943   -0.074482   -0.000047
     18          6           0       -4.315729    0.082401    1.209476
     19          6           0       -4.315589    0.084101   -1.209427
     20          6           0       -5.667213    0.394507    1.205157
     21          1           0       -3.781721   -0.042768    2.143907
     22          6           0       -5.667068    0.396227   -1.204834
     23          1           0       -3.781467   -0.039713   -2.143971
     24          6           0       -6.343980    0.551798    0.000232
     25          1           0       -6.194072    0.514732    2.144553
     26          1           0       -6.193822    0.517745   -2.144122
     27          1           0       -7.400262    0.795272    0.000343
 ---------------------------------------------------------------------
                    Distance matrix (angstroms):
                    1          2          3          4          5
     1  C    0.000000
     2  C    1.392375   0.000000
     3  C    2.411967   1.387377   0.000000
     4  C    2.789797   2.408305   1.392054   0.000000
     5  C    2.367428   2.732624   2.375125   1.381542   0.000000
     6  C    1.391004   2.417881   2.802414   2.438630   1.382190
     7  H    1.083782   2.152265   3.393868   3.873578   3.353077
     8  H    2.147204   1.083700   2.144017   3.389548   3.816319
     9  H    3.406727   2.167109   1.083752   2.126130   3.349378
    10  H    2.160411   3.405006   3.885269   3.417223   2.156658
    11  I    4.392692   4.861359   4.290656   2.959343   2.133978
    12  C    4.307522   3.811956   2.541294   1.518042   2.519129
    13  O    4.940061   4.756036   3.638520   2.348545   2.723903
    14  O    5.046081   4.250963   2.866317   2.373944   3.608448
    15  C    4.470494   5.445798   5.389454   4.326039   3.025621
    16  C    5.051716   6.198655   6.344470   5.399010   4.044229
    17  C    5.964308   7.230046   7.553040   6.717150   5.340911
    18  C    6.593961   7.877076   8.262731   7.479254   6.121684
    19  C    6.593143   7.876385   8.262278   7.478996   6.121363
    20  C    7.684590   9.016709   9.507287   8.789946   7.423914
    21  H    6.444240   7.657824   7.983188   7.190713   5.890495
    22  C    7.683877   9.016096   9.506886   8.789722   7.423646
    23  H    6.442730   7.656542   7.982341   7.190226   5.889894
    24  C    8.175891   9.536052  10.072716   9.377624   7.996623
    25  H    8.326095   9.643998  10.159089   9.474688   8.135404
    26  H    8.324946   9.642998  10.158436   9.474327   8.134977
    27  H    9.122057  10.496638  11.087802  10.430701   9.051296
                    6          7          8          9         10
     6  C    0.000000
     7  H    2.139868   0.000000
     8  H    3.395946   2.475537   0.000000
     9  H    3.885822   4.306780   2.502744   0.000000
    10  H    1.082892   2.480004   4.297107   4.968575   0.000000
    11  I    3.114049   5.253452   5.944448   5.078153   3.236013
    12  C    3.817562   5.391282   4.683351   2.714379   4.675753
    13  O    4.104457   5.995404   5.727403   3.978127   4.729899
    14  O    4.807401   6.112268   4.923315   2.549991   5.746207
    15  C    3.098054   4.969195   6.473606   6.373839   2.498256
    16  C    3.781407   5.322307   7.161359   7.373480   2.904498
    17  C    4.842834   6.007066   8.111112   8.610816   3.827065
    18  C    5.560481   6.546969   8.711277   9.318635   4.545841
    19  C    5.559827   6.545941   8.710495   9.318233   4.545046
    20  C    6.754853   7.496976   9.786086  10.575581   5.702704
    21  H    5.413296   6.464931   8.499137   9.008527   4.491840
    22  C    6.754307   7.496066   9.785378  10.575220   5.702063
    23  H    5.412086   6.463058   8.497690   9.007774   4.490392
    24  C    7.279421   7.929576  10.281819  11.151746   6.201131
    25  H    7.453796   8.099904  10.378856  11.215533   6.429591
    26  H    7.452932   8.098433  10.377693  11.214941   6.428595
    27  H    8.287378   8.803535  11.200490  12.169639   7.205196
                   11         12         13         14         15
    11  I    0.000000
    12  C    3.055935   0.000000
    13  O    2.243427   1.297321   0.000000
    14  O    4.245754   1.210143   2.240785   0.000000
    15  C    2.077401   4.923477   4.300089   6.133455   0.000000
    16  C    3.281522   6.105476   5.509064   7.313499   1.209038
    17  C    4.710419   7.509509   6.939069   8.713917   2.638981
    18  C    5.547074   8.292127   7.737637   9.483486   3.554669
    19  C    5.547255   8.292134   7.737869   9.483472   3.554627
    20  C    6.906200   9.650922   9.109568  10.841784   4.880675
    21  H    5.316771   7.957005   7.410982   9.122291   3.521997
    22  C    6.906348   9.650927   9.109766  10.841770   4.880647
    23  H    5.317111   7.957015   7.411415   9.122262   3.521925
    24  C    7.494868  10.264030   9.724267  11.461681   5.424235
    25  H    7.647366  10.336100   9.807228  11.510735   5.689635
    26  H    7.647600  10.336111   9.807553  11.510715   5.689590
    27  H    8.578649  11.340111  10.808208  12.535550   6.508200
                   16         17         18         19         20
    16  C    0.000000
    17  C    1.430107   0.000000
    18  C    2.452668   1.399236   0.000000
    19  C    2.452667   1.399235   2.418904   0.000000
    20  C    3.721279   2.413076   1.387061   2.784503   0.000000
    21  H    2.666425   2.149554   1.083510   3.397935   2.151172
    22  C    3.721282   2.413080   2.784510   1.387061   2.409992
    23  H    2.666425   2.149553   3.397934   1.083508   3.867977
    24  C    4.215464   2.785359   2.407573   2.407568   1.390898
    25  H    4.592620   3.394295   2.142301   3.868246   1.083743
    26  H    4.592622   3.394299   3.868252   2.142303   3.392665
    27  H    5.299443   3.869338   3.388884   3.388881   2.148406
                   21         22         23         24         25
    21  H    0.000000
    22  C    3.867986   0.000000
    23  H    4.287879   2.151166   0.000000
    24  C    3.393232   1.390898   3.393223   0.000000
    25  H    2.475933   3.392664   4.951718   2.149874   0.000000
    26  H    4.951727   1.083743   2.475927   2.149875   4.288676
    27  H    4.288475   2.148406   4.288468   1.083979   2.476133
                   26         27
    26  H    0.000000
    27  H    2.476136   0.000000
 Stoichiometry    C15H9IO2
 Framework group  C1[X(C15H9IO2)]
 Deg. of freedom    75
 Full point group                 C1      NOp   1
 Largest Abelian subgroup         C1      NOp   1
 Largest concise Abelian subgroup C1      NOp   1
                         Standard orientation:                         
 ---------------------------------------------------------------------
 Center     Atomic      Atomic             Coordinates (Angstroms)
 Number     Number       Type             X           Y           Z
 ---------------------------------------------------------------------
      1          6           0        1.430436    3.082342    0.000233
      2          6           0        2.818173    3.195895    0.000376
      3          6           0        3.615143    2.060266    0.000327
      4          6           0        3.030439    0.796963    0.000152
      5          6           0        1.650763    0.725189    0.000010
      6          6           0        0.822088    1.831420    0.000047
      7          1           0        0.810423    3.971256    0.000274
      8          1           0        3.277353    4.177506    0.000525
      9          1           0        4.697427    2.116652    0.000426
     10          1           0       -0.256265    1.732373   -0.000076
     11         53           0        0.923342   -1.280982   -0.000215
     12          6           0        3.869233   -0.468294    0.000136
     13          8           0        3.150762   -1.548498    0.000053
     14          8           0        5.077710   -0.404824    0.000172
     15          6           0       -1.051388   -0.635973   -0.000353
     16          6           0       -2.235780   -0.393099   -0.000191
     17          6           0       -3.629943   -0.074482   -0.000047
     18          6           0       -4.315729    0.082401    1.209476
     19          6           0       -4.315589    0.084101   -1.209427
     20          6           0       -5.667213    0.394507    1.205157
     21          1           0       -3.781721   -0.042768    2.143907
     22          6           0       -5.667068    0.396227   -1.204834
     23          1           0       -3.781467   -0.039713   -2.143971
     24          6           0       -6.343980    0.551798    0.000232
     25          1           0       -6.194072    0.514732    2.144553
     26          1           0       -6.193822    0.517745   -2.144122
     27          1           0       -7.400262    0.795272    0.000343
 ---------------------------------------------------------------------
 Rotational constants (GHZ):           0.6890501           0.1444448           0.1246238
 General basis read from cards:  (5D, 7F)
 There are   512 symmetry adapted cartesian basis functions of A   symmetry.
 There are   490 symmetry adapted basis functions of A   symmetry.
   490 basis functions,   777 primitive gaussians,   512 cartesian basis functions
    84 alpha electrons       84 beta electrons
       nuclear repulsion energy      1778.7888493560 Hartrees.
 NAtoms=   27 NActive=   27 NUniq=   27 SFac= 1.00D+00 NAtFMM=   60 NAOKFM=F Big=F
 Integral buffers will be    131072 words long.
 Raffenetti 2 integral format.
 Two-electron integral symmetry is turned on.
 Nuclear repulsion after empirical dispersion term =     1778.7737555988 Hartrees.
 ------------------------------------------------------------------------------
 Polarizable Continuum Model (PCM)
 =================================
 Model                : PCM.
 Atomic radii         : SMD-Coulomb.
 Polarization charges : Total charges.
 Charge compensation  : None.
 Solution method      : On-the-fly selection.
 Cavity type          : VdW (van der Waals Surface) (Alpha=1.000).
 Cavity algorithm     : GePol (No added spheres)
                        Default sphere list used, NSphG=   27.
                        Lebedev-Laikov grids with approx.  5.0 points / Ang**2.
                        Smoothing algorithm: York/Karplus (Gamma=1.0000).
                        Polarization charges: spherical gaussians, with
                                              point-specific exponents (IZeta= 3).
                        Self-potential: point-specific (ISelfS= 7).
                        Self-field    : sphere-specific E.n sum rule (ISelfD= 2).
 1st derivatives      : Analytical E(r).r(x)/FMM algorithm (CHGder, D1EAlg=3).
                        Cavity 1st derivative terms included.
 Solvent              : n,n-DiMethylAcetamide, Eps=  37.781000 Eps(inf)=   2.067844
 ------------------------------------------------------------------------------
 ------------------------------------------------------------------------------
 Atomic radii for non-electrostatic terms: SMD-CDS.
 ------------------------------------------------------------------------------
 Nuclear repulsion after PCM non-electrostatic terms =     1778.7705172383 Hartrees.
 One-electron integrals computed using PRISM.
 NBasis=   490 RedAO= T EigKep=  1.55D-06  NBF=   490
 NBsUse=   487 1.00D-06 EigRej=  6.04D-07 NBFU=   487
 Defaulting to unpruned grid for atomic number  53.
 ExpMin= 4.38D-02 ExpMax= 4.45D+05 ExpMxC= 6.61D+04 IAcc=3 IRadAn=         5 AccDes= 0.00D+00
 Harris functional with IExCor= 4639 and IRadAn=       5 diagonalized for initial guess.
 HarFok:  IExCor= 4639 AccDes= 0.00D+00 IRadAn=         5 IDoV= 1 UseB2=F ITyADJ=14
 ICtDFT=  3500011 ScaDFX=  1.000000  1.000000  1.000000  1.000000
 Defaulting to unpruned grid for atomic number  53.
 FoFCou: FMM=F IPFlag=           0 FMFlag=      100000 FMFlg1=           0
         NFxFlg=           0 DoJE=T BraDBF=F KetDBF=T FulRan=T
         wScrn=  0.000000 ICntrl=       500 IOpCl=  0 I1Cent=   200000004 NGrid=           0
         NMat0=    1 NMatS0=      1 NMatT0=    0 NMatD0=    1 NMtDS0=    0 NMtDT0=    0
 Petite list used in FoFCou.
 Requested convergence on RMS density matrix=1.00D-08 within 128 cycles.
 Requested convergence on MAX density matrix=1.00D-06.
 Requested convergence on             energy=1.00D-06.
 No special actions if energy rises.
 Defaulting to unpruned grid for atomic number  53.
 Defaulting to unpruned grid for atomic number  53.
 Defaulting to unpruned grid for atomic number  53.
 Defaulting to unpruned grid for atomic number  53.
 Defaulting to unpruned grid for atomic number  53.
 Defaulting to unpruned grid for atomic number  53.
 Defaulting to unpruned grid for atomic number  53.
 Defaulting to unpruned grid for atomic number  53.
 Defaulting to unpruned grid for atomic number  53.
 Defaulting to unpruned grid for atomic number  53.
 Defaulting to unpruned grid for atomic number  53.
 Defaulting to unpruned grid for atomic number  53.
 Defaulting to unpruned grid for atomic number  53.
 Defaulting to unpruned grid for atomic number  53.
 Defaulting to unpruned grid for atomic number  53.
 Defaulting to unpruned grid for atomic number  53.
 Defaulting to unpruned grid for atomic number  53.
 Defaulting to unpruned grid for atomic number  53.
 Defaulting to unpruned grid for atomic number  53.
 Defaulting to unpruned grid for atomic number  53.
 Defaulting to unpruned grid for atomic number  53.
 Defaulting to unpruned grid for atomic number  53.
 Defaulting to unpruned grid for atomic number  53.
 Defaulting to unpruned grid for atomic number  53.
 Inv3:  Mode=1 IEnd=    20155392.
 Iteration    1 A*A^-1 deviation from unit magnitude is 9.77D-15 for    460.
 Iteration    1 A*A^-1 deviation from orthogonality  is 3.03D-15 for   1314   1259.
 Iteration    1 A^-1*A deviation from unit magnitude is 1.04D-14 for    460.
 Iteration    1 A^-1*A deviation from orthogonality  is 2.25D-15 for   1303    240.
 Error on total polarization charges =  0.05170
 SCF Done:  E(RwB97XD) =  -7646.96410637     A.U. after   17 cycles
            NFock= 17  Conv=0.79D-08     -V/T= 2.0004
 SMD-CDS (non-electrostatic) energy       (kcal/mol) =      -2.03
 (included in total energy above)

 **********************************************************************

            Population analysis using the SCF Density.

 **********************************************************************

 Orbital symmetries:
       Occupied  (A) (A) (A) (A) (A) (A) (A) (A) (A) (A) (A) (A)
                 (A) (A) (A) (A) (A) (A) (A) (A) (A) (A) (A) (A)
                 (A) (A) (A) (A) (A) (A) (A) (A) (A) (A) (A) (A)
                 (A) (A) (A) (A) (A) (A) (A) (A) (A) (A) (A) (A)
                 (A) (A) (A) (A) (A) (A) (A) (A) (A) (A) (A) (A)
                 (A) (A) (A) (A) (A) (A) (A) (A) (A) (A) (A) (A)
                 (A) (A) (A) (A) (A) (A) (A) (A) (A) (A) (A) (A)
       Virtual   (A) (A) (A) (A) (A) (A) (A) (A) (A) (A) (A) (A)
                 (A) (A) (A) (A) (A) (A) (A) (A) (A) (A) (A) (A)
                 (A) (A) (A) (A) (A) (A) (A) (A) (A) (A) (A) (A)
                 (A) (A) (A) (A) (A) (A) (A) (A) (A) (A) (A) (A)
                 (A) (A) (A) (A) (A) (A) (A) (A) (A) (A) (A) (A)
                 (A) (A) (A) (A) (A) (A) (A) (A) (A) (A) (A) (A)
                 (A) (A) (A) (A) (A) (A) (A) (A) (A) (A) (A) (A)
                 (A) (A) (A) (A) (A) (A) (A) (A) (A) (A) (A) (A)
                 (A) (A) (A) (A) (A) (A) (A) (A) (A) (A) (A) (A)
                 (A) (A) (A) (A) (A) (A) (A) (A) (A) (A) (A) (A)
                 (A) (A) (A) (A) (A) (A) (A) (A) (A) (A) (A) (A)
                 (A) (A) (A) (A) (A) (A) (A) (A) (A) (A) (A) (A)
                 (A) (A) (A) (A) (A) (A) (A) (A) (A) (A) (A) (A)
                 (A) (A) (A) (A) (A) (A) (A) (A) (A) (A) (A) (A)
                 (A) (A) (A) (A) (A) (A) (A) (A) (A) (A) (A) (A)
                 (A) (A) (A) (A) (A) (A) (A) (A) (A) (A) (A) (A)
                 (A) (A) (A) (A) (A) (A) (A) (A) (A) (A) (A) (A)
                 (A) (A) (A) (A) (A) (A) (A) (A) (A) (A) (A) (A)
                 (A) (A) (A) (A) (A) (A) (A) (A) (A) (A) (A) (A)
                 (A) (A) (A) (A) (A) (A) (A) (A) (A) (A) (A) (A)
                 (A) (A) (A) (A) (A) (A) (A) (A) (A) (A) (A) (A)
                 (A) (A) (A) (A) (A) (A) (A) (A) (A) (A) (A) (A)
                 (A) (A) (A) (A) (A) (A) (A) (A) (A) (A) (A) (A)
                 (A) (A) (A) (A) (A) (A) (A) (A) (A) (A) (A) (A)
                 (A) (A) (A) (A) (A) (A) (A) (A) (A) (A) (A) (A)
                 (A) (A) (A) (A) (A) (A) (A) (A) (A) (A) (A) (A)
                 (A) (A) (A) (A) (A) (A) (A) (A) (A) (A) (A) (A)
                 (A) (A) (A) (A) (A) (A) (A) (A) (A) (A) (A) (A)
                 (A) (A) (A) (A) (A) (A) (A) (A) (A) (A) (A) (A)
                 (A) (A) (A) (A) (A) (A) (A) (A) (A) (A) (A) (A)
                 (A) (A) (A) (A) (A) (A) (A) (A) (A) (A) (A) (A)
                 (A) (A) (A) (A) (A) (A) (A) (A) (A) (A) (A) (A)
                 (A) (A) (A) (A) (A) (A) (A) (A) (A) (A) (A) (A)
                 (A) (A) (A) (A) (A) (A) (A)
 The electronic state is 1-A.
 Alpha  occ. eigenvalues -- **********-176.61287-165.98213-165.98083-165.97926
 Alpha  occ. eigenvalues --  -36.03500 -31.51731 -31.51273 -31.50820 -23.16040
 Alpha  occ. eigenvalues --  -23.15987 -23.15661 -23.15341 -23.15297 -19.23898
 Alpha  occ. eigenvalues --  -19.21373 -10.40252 -10.35278 -10.32370 -10.31453
 Alpha  occ. eigenvalues --  -10.31075 -10.30896 -10.30548 -10.30462 -10.30405
 Alpha  occ. eigenvalues --  -10.30092 -10.30091 -10.30052 -10.29669 -10.29482
 Alpha  occ. eigenvalues --  -10.29473  -6.54183  -4.94825  -4.93933  -4.92796
 Alpha  occ. eigenvalues --   -2.20309  -2.20186  -2.19174  -2.18421  -2.18270
 Alpha  occ. eigenvalues --   -1.17269  -1.08767  -0.98916  -0.97939  -0.90332
 Alpha  occ. eigenvalues --   -0.88575  -0.87566  -0.85924  -0.84765  -0.80661
 Alpha  occ. eigenvalues --   -0.73589  -0.72644  -0.71129  -0.70676  -0.66072
 Alpha  occ. eigenvalues --   -0.64270  -0.62139  -0.57827  -0.57520  -0.56907
 Alpha  occ. eigenvalues --   -0.55615  -0.54388  -0.53647  -0.53026  -0.52591
 Alpha  occ. eigenvalues --   -0.51982  -0.51542  -0.48582  -0.47853  -0.47526
 Alpha  occ. eigenvalues --   -0.45876  -0.44544  -0.44043  -0.43587  -0.42941
 Alpha  occ. eigenvalues --   -0.40778  -0.38240  -0.37390  -0.36327  -0.34918
 Alpha  occ. eigenvalues --   -0.34854  -0.34419  -0.32875  -0.32285
 Alpha virt. eigenvalues --    0.00127   0.01705   0.03522   0.04017   0.04637
 Alpha virt. eigenvalues --    0.06097   0.06747   0.07512   0.08358   0.08440
 Alpha virt. eigenvalues --    0.08687   0.09305   0.09611   0.10181   0.10281
 Alpha virt. eigenvalues --    0.10917   0.10981   0.11058   0.11927   0.12513
 Alpha virt. eigenvalues --    0.13215   0.13391   0.13464   0.13677   0.13904
 Alpha virt. eigenvalues --    0.14523   0.14842   0.15230   0.15371   0.16857
 Alpha virt. eigenvalues --    0.17049   0.17942   0.18171   0.18283   0.18714
 Alpha virt. eigenvalues --    0.19877   0.20231   0.20337   0.20733   0.20764
 Alpha virt. eigenvalues --    0.20924   0.21468   0.22250   0.22611   0.22612
 Alpha virt. eigenvalues --    0.23129   0.23651   0.24130   0.24483   0.24564
 Alpha virt. eigenvalues --    0.25199   0.25594   0.26178   0.26886   0.26926
 Alpha virt. eigenvalues --    0.27102   0.27620   0.28163   0.28531   0.28735
 Alpha virt. eigenvalues --    0.28942   0.28998   0.29308   0.29815   0.30323
 Alpha virt. eigenvalues --    0.30799   0.31503   0.31613   0.32091   0.32163
 Alpha virt. eigenvalues --    0.32477   0.33313   0.33437   0.33668   0.34201
 Alpha virt. eigenvalues --    0.34409   0.35454   0.35731   0.36101   0.36368
 Alpha virt. eigenvalues --    0.36836   0.36954   0.38015   0.38136   0.38807
 Alpha virt. eigenvalues --    0.40171   0.40463   0.40989   0.42121   0.42495
 Alpha virt. eigenvalues --    0.43073   0.43912   0.44278   0.45012   0.45767
 Alpha virt. eigenvalues --    0.47572   0.48891   0.49166   0.50290   0.52293
 Alpha virt. eigenvalues --    0.53822   0.55000   0.55313   0.55770   0.57292
 Alpha virt. eigenvalues --    0.59164   0.59562   0.60435   0.60442   0.61377
 Alpha virt. eigenvalues --    0.61753   0.61768   0.62178   0.62859   0.62967
 Alpha virt. eigenvalues --    0.63296   0.64081   0.65839   0.66745   0.67040
 Alpha virt. eigenvalues --    0.68866   0.69227   0.69911   0.70240   0.70566
 Alpha virt. eigenvalues --    0.71279   0.71559   0.71713   0.72978   0.73544
 Alpha virt. eigenvalues --    0.73731   0.74862   0.75682   0.76324   0.76986
 Alpha virt. eigenvalues --    0.77659   0.77806   0.78938   0.79175   0.79875
 Alpha virt. eigenvalues --    0.80614   0.80875   0.82032   0.82426   0.83406
 Alpha virt. eigenvalues --    0.83891   0.86180   0.86818   0.87868   0.88467
 Alpha virt. eigenvalues --    0.89093   0.90343   0.90750   0.91944   0.92155
 Alpha virt. eigenvalues --    0.93110   0.93983   0.94094   0.95549   0.95986
 Alpha virt. eigenvalues --    0.96668   0.98295   0.98550   0.99600   1.00801
 Alpha virt. eigenvalues --    1.02572   1.02894   1.03285   1.05713   1.06128
 Alpha virt. eigenvalues --    1.07020   1.07152   1.07501   1.09454   1.11064
 Alpha virt. eigenvalues --    1.11841   1.12572   1.14293   1.14680   1.15159
 Alpha virt. eigenvalues --    1.15483   1.16655   1.17496   1.18294   1.18789
 Alpha virt. eigenvalues --    1.19411   1.20694   1.20781   1.22552   1.25389
 Alpha virt. eigenvalues --    1.25701   1.27054   1.29971   1.30704   1.34005
 Alpha virt. eigenvalues --    1.34687   1.38615   1.39651   1.41019   1.43773
 Alpha virt. eigenvalues --    1.45473   1.49666   1.50840   1.53018   1.54359
 Alpha virt. eigenvalues --    1.57126   1.57854   1.58143   1.58957   1.59249
 Alpha virt. eigenvalues --    1.60647   1.60776   1.61627   1.61865   1.62598
 Alpha virt. eigenvalues --    1.64908   1.65436   1.66523   1.66799   1.67444
 Alpha virt. eigenvalues --    1.68310   1.68742   1.72968   1.74116   1.74897
 Alpha virt. eigenvalues --    1.75354   1.76172   1.77325   1.79274   1.81442
 Alpha virt. eigenvalues --    1.82251   1.82357   1.83711   1.83720   1.84761
 Alpha virt. eigenvalues --    1.86027   1.90043   1.90836   1.91605   1.92445
 Alpha virt. eigenvalues --    1.97391   1.98631   1.99418   2.00425   2.00948
 Alpha virt. eigenvalues --    2.00953   2.02102   2.02208   2.02854   2.04093
 Alpha virt. eigenvalues --    2.04140   2.05658   2.05941   2.06083   2.06933
 Alpha virt. eigenvalues --    2.08224   2.09661   2.10924   2.14187   2.14359
 Alpha virt. eigenvalues --    2.15687   2.16703   2.17442   2.26487   2.29043
 Alpha virt. eigenvalues --    2.29641   2.33080   2.35292   2.42127   2.43331
 Alpha virt. eigenvalues --    2.46022   2.47866   2.49470   2.49597   2.49723
 Alpha virt. eigenvalues --    2.52009   2.53088   2.54440   2.60328   2.66387
 Alpha virt. eigenvalues --    2.67456   2.71834   2.72843   2.74759   2.74888
 Alpha virt. eigenvalues --    2.75545   2.77329   2.78362   2.79890   2.80370
 Alpha virt. eigenvalues --    2.81499   2.82548   2.84279   2.84449   2.85104
 Alpha virt. eigenvalues --    2.85549   2.86215   2.87280   2.89074   2.89663
 Alpha virt. eigenvalues --    2.89690   2.90308   2.91002   2.91593   2.92519
 Alpha virt. eigenvalues --    2.94232   2.96100   2.96542   2.98867   2.99881
 Alpha virt. eigenvalues --    3.00368   3.02364   3.02602   3.06231   3.07801
 Alpha virt. eigenvalues --    3.08146   3.13680   3.13872   3.16762   3.18722
 Alpha virt. eigenvalues --    3.19202   3.19685   3.21355   3.28945   3.30434
 Alpha virt. eigenvalues --    3.31355   3.34512   3.35303   3.43251   3.44434
 Alpha virt. eigenvalues --    3.47879   3.48718   3.49066   3.51736   3.59513
 Alpha virt. eigenvalues --    3.61276   3.62168   3.63219   3.66711   3.70334
 Alpha virt. eigenvalues --    3.71203   3.73823   3.78869   3.83508   3.92761
 Alpha virt. eigenvalues --    4.08175   4.08301   4.11615   4.12514   4.14724
 Alpha virt. eigenvalues --    4.16719   4.18170   4.20622   4.24730   4.26101
 Alpha virt. eigenvalues --    4.32530   4.32803   4.36286   4.43104   4.64571
 Alpha virt. eigenvalues --    4.72714   4.93818   4.94030   5.12948   5.17432
 Alpha virt. eigenvalues --    5.29563   5.34621   5.73007   5.99885   6.14994
 Alpha virt. eigenvalues --    6.29182   6.44300  23.54322  23.64281  23.83047
 Alpha virt. eigenvalues --   23.99048  24.05310  24.08215  24.08440  24.10765
 Alpha virt. eigenvalues --   24.19907  24.20891  24.22517  24.23738  24.32406
 Alpha virt. eigenvalues --   24.33111  25.06874  28.13044  28.49695  28.56485
 Alpha virt. eigenvalues --   28.62551  28.64818  28.65870  28.76723  28.80117
 Alpha virt. eigenvalues --   28.89871  50.06345  50.21663 128.02369 128.10608
 Alpha virt. eigenvalues --  128.19571 151.880731902.29143
          Condensed to atoms (all electrons):
               1          2          3          4          5          6
     1  C    9.180228  -0.841004   1.049032   0.430044  -1.997603  -1.935135
     2  C   -0.841004   8.740432  -4.107359  -0.240837   1.245916   1.076673
     3  C    1.049032  -4.107359  18.074626  -0.668282  -5.403485  -2.182234
     4  C    0.430044  -0.240837  -0.668282  10.422026  -0.134757  -2.792042
     5  C   -1.997603   1.245916  -5.403485  -0.134757  13.559513  -1.790393
     6  C   -1.935135   1.076673  -2.182234  -2.792042  -1.790393  13.615470
     7  H    0.389627   0.011251  -0.029509  -0.000469  -0.018541   0.008647
     8  H   -0.016560   0.434947  -0.058413   0.018608  -0.007751  -0.014102
     9  H   -0.003605  -0.042728   0.484104  -0.095605  -0.003288   0.002444
    10  H   -0.064128  -0.007163  -0.006699   0.009670  -0.058858   0.477041
    11  I    0.003908  -0.021750  -0.004001  -0.299081   0.318717   0.137468
    12  C    0.299548  -0.142639  -0.315061  -0.641263  -0.291030  -0.642189
    13  O   -0.047246   0.059011  -0.194363  -0.368500   0.206812   0.283969
    14  O    0.008301   0.079288  -0.104582  -0.195627   0.020190  -0.004379
    15  C    0.032702  -0.090426   0.239977   0.625227   0.197822  -0.975218
    16  C   -0.238992   0.193447  -0.332960  -0.845252  -0.434390   1.611190
    17  C    0.044842  -0.086011   0.126579   0.345444   0.336558  -0.747428
    18  C   -0.000661  -0.002653  -0.000327   0.002317  -0.015450   0.017441
    19  C   -0.000907  -0.002657  -0.000337   0.002292  -0.014930   0.017087
    20  C    0.001126  -0.001477   0.001579   0.006308   0.022538  -0.027140
    21  H   -0.000070   0.000026  -0.000050  -0.000251  -0.001000   0.001217
    22  C    0.001124  -0.001482   0.001582   0.006319   0.022592  -0.027187
    23  H   -0.000069   0.000026  -0.000050  -0.000251  -0.001003   0.001220
    24  C    0.001314  -0.000176  -0.000079   0.000127  -0.004968   0.005774
    25  H    0.000010   0.000001  -0.000001  -0.000005  -0.000063   0.000058
    26  H    0.000010   0.000001  -0.000001  -0.000005  -0.000063   0.000058
    27  H    0.000003   0.000000  -0.000000  -0.000001  -0.000007   0.000002
               7          8          9         10         11         12
     1  C    0.389627  -0.016560  -0.003605  -0.064128   0.003908   0.299548
     2  C    0.011251   0.434947  -0.042728  -0.007163  -0.021750  -0.142639
     3  C   -0.029509  -0.058413   0.484104  -0.006699  -0.004001  -0.315061
     4  C   -0.000469   0.018608  -0.095605   0.009670  -0.299081  -0.641263
     5  C   -0.018541  -0.007751  -0.003288  -0.058858   0.318717  -0.291030
     6  C    0.008647  -0.014102   0.002444   0.477041   0.137468  -0.642189
     7  H    0.442454  -0.004909  -0.000057  -0.005128  -0.000050   0.000194
     8  H   -0.004909   0.444696  -0.004223  -0.000074   0.000044   0.005530
     9  H   -0.000057  -0.004223   0.439702   0.000021  -0.000154   0.015493
    10  H   -0.005128  -0.000074   0.000021   0.434211  -0.009247   0.005922
    11  I   -0.000050   0.000044  -0.000154  -0.009247  51.714415   0.033311
    12  C    0.000194   0.005530   0.015493   0.005922   0.033311   7.165438
    13  O    0.000028   0.000024  -0.000233   0.000112  -0.014165   0.103583
    14  O   -0.000015   0.000077   0.008711   0.000040  -0.000553   0.539059
    15  C   -0.000208   0.000005   0.000055  -0.016208   0.221844  -0.066918
    16  C    0.003482  -0.000047   0.000038   0.017310  -0.042990   0.020045
    17  C   -0.001498   0.000014  -0.000011  -0.005683  -0.039167  -0.007553
    18  C    0.000038   0.000000   0.000000  -0.002548   0.004316   0.001291
    19  C    0.000038   0.000000   0.000000  -0.002538   0.004288   0.001292
    20  C   -0.000036   0.000000  -0.000000   0.000224   0.002104  -0.000140
    21  H   -0.000000   0.000000   0.000000  -0.000011  -0.000028   0.000014
    22  C   -0.000036   0.000000  -0.000000   0.000227   0.002096  -0.000140
    23  H   -0.000000   0.000000   0.000000  -0.000011  -0.000028   0.000014
    24  C    0.000008  -0.000000  -0.000000  -0.000270   0.000093   0.000070
    25  H    0.000000  -0.000000   0.000000  -0.000000   0.000000   0.000000
    26  H    0.000000  -0.000000   0.000000  -0.000000   0.000000   0.000000
    27  H    0.000000  -0.000000   0.000000  -0.000000   0.000000   0.000000
              13         14         15         16         17         18
     1  C   -0.047246   0.008301   0.032702  -0.238992   0.044842  -0.000661
     2  C    0.059011   0.079288  -0.090426   0.193447  -0.086011  -0.002653
     3  C   -0.194363  -0.104582   0.239977  -0.332960   0.126579  -0.000327
     4  C   -0.368500  -0.195627   0.625227  -0.845252   0.345444   0.002317
     5  C    0.206812   0.020190   0.197822  -0.434390   0.336558  -0.015450
     6  C    0.283969  -0.004379  -0.975218   1.611190  -0.747428   0.017441
     7  H    0.000028  -0.000015  -0.000208   0.003482  -0.001498   0.000038
     8  H    0.000024   0.000077   0.000005  -0.000047   0.000014   0.000000
     9  H   -0.000233   0.008711   0.000055   0.000038  -0.000011   0.000000
    10  H    0.000112   0.000040  -0.016208   0.017310  -0.005683  -0.002548
    11  I   -0.014165  -0.000553   0.221844  -0.042990  -0.039167   0.004316
    12  C    0.103583   0.539059  -0.066918   0.020045  -0.007553   0.001291
    13  O    8.551623  -0.123908  -0.041617   0.028326  -0.006163   0.000155
    14  O   -0.123908   8.189396   0.001681  -0.000984   0.000209   0.000001
    15  C   -0.041617   0.001681   7.537361  -1.941680   1.086742  -0.205937
    16  C    0.028326  -0.000984  -1.941680  10.517706  -3.277635   0.246866
    17  C   -0.006163   0.000209   1.086742  -3.277635   8.817290  -0.620687
    18  C    0.000155   0.000001  -0.205937   0.246866  -0.620687  12.362736
    19  C    0.000154   0.000001  -0.205847   0.246073  -0.621351  -4.481871
    20  C   -0.000033   0.000001   0.157958  -0.282804   0.367122  -2.209497
    21  H   -0.000000   0.000000  -0.003670   0.039652  -0.065811   0.476126
    22  C   -0.000033   0.000001   0.157813  -0.282955   0.367640   0.989141
    23  H   -0.000000   0.000000  -0.003667   0.039638  -0.065794  -0.013281
    24  C    0.000003  -0.000000  -0.011371  -0.159614  -0.348249   0.066661
    25  H   -0.000000  -0.000000  -0.000193   0.005152   0.015548  -0.047135
    26  H   -0.000000  -0.000000  -0.000193   0.005151   0.015550  -0.004211
    27  H    0.000000  -0.000000  -0.000050   0.004253   0.016406  -0.018887
              19         20         21         22         23         24
     1  C   -0.000907   0.001126  -0.000070   0.001124  -0.000069   0.001314
     2  C   -0.002657  -0.001477   0.000026  -0.001482   0.000026  -0.000176
     3  C   -0.000337   0.001579  -0.000050   0.001582  -0.000050  -0.000079
     4  C    0.002292   0.006308  -0.000251   0.006319  -0.000251   0.000127
     5  C   -0.014930   0.022538  -0.001000   0.022592  -0.001003  -0.004968
     6  C    0.017087  -0.027140   0.001217  -0.027187   0.001220   0.005774
     7  H    0.000038  -0.000036  -0.000000  -0.000036  -0.000000   0.000008
     8  H    0.000000   0.000000   0.000000   0.000000   0.000000  -0.000000
     9  H    0.000000  -0.000000   0.000000  -0.000000   0.000000  -0.000000
    10  H   -0.002538   0.000224  -0.000011   0.000227  -0.000011  -0.000270
    11  I    0.004288   0.002104  -0.000028   0.002096  -0.000028   0.000093
    12  C    0.001292  -0.000140   0.000014  -0.000140   0.000014   0.000070
    13  O    0.000154  -0.000033  -0.000000  -0.000033  -0.000000   0.000003
    14  O    0.000001   0.000001   0.000000   0.000001   0.000000  -0.000000
    15  C   -0.205847   0.157958  -0.003670   0.157813  -0.003667  -0.011371
    16  C    0.246073  -0.282804   0.039652  -0.282955   0.039638  -0.159614
    17  C   -0.621351   0.367122  -0.065811   0.367640  -0.065794  -0.348249
    18  C   -4.481871  -2.209497   0.476126   0.989141  -0.013281   0.066661
    19  C   12.364533   0.988898  -0.013291  -2.210196   0.476103   0.067627
    20  C    0.988898   6.794318  -0.064768  -0.238747  -0.007120   0.344231
    21  H   -0.013291  -0.064768   0.446105  -0.007121  -0.000026   0.001125
    22  C   -2.210196  -0.238747  -0.007121   6.794789  -0.064759   0.343869
    23  H    0.476103  -0.007120  -0.000026  -0.064759   0.446106   0.001123
    24  C    0.067627   0.344231   0.001125   0.343869   0.001123   5.542527
    25  H   -0.004211   0.422469  -0.004206  -0.008673   0.000027  -0.020060
    26  H   -0.047142  -0.008673   0.000027   0.422474  -0.004206  -0.020059
    27  H   -0.018884  -0.022573  -0.000067  -0.022573  -0.000067   0.426562
              25         26         27
     1  C    0.000010   0.000010   0.000003
     2  C    0.000001   0.000001   0.000000
     3  C   -0.000001  -0.000001  -0.000000
     4  C   -0.000005  -0.000005  -0.000001
     5  C   -0.000063  -0.000063  -0.000007
     6  C    0.000058   0.000058   0.000002
     7  H    0.000000   0.000000   0.000000
     8  H   -0.000000  -0.000000  -0.000000
     9  H    0.000000   0.000000   0.000000
    10  H   -0.000000  -0.000000  -0.000000
    11  I    0.000000   0.000000   0.000000
    12  C    0.000000   0.000000   0.000000
    13  O   -0.000000  -0.000000   0.000000
    14  O   -0.000000  -0.000000  -0.000000
    15  C   -0.000193  -0.000193  -0.000050
    16  C    0.005152   0.005151   0.004253
    17  C    0.015548   0.015550   0.016406
    18  C   -0.047135  -0.004211  -0.018887
    19  C   -0.004211  -0.047142  -0.018884
    20  C    0.422469  -0.008673  -0.022573
    21  H   -0.004206   0.000027  -0.000067
    22  C   -0.008673   0.422474  -0.022573
    23  H    0.000027  -0.004206  -0.000067
    24  C   -0.020060  -0.020059   0.426562
    25  H    0.449677  -0.000065  -0.004712
    26  H   -0.000065   0.449674  -0.004712
    27  H   -0.004712  -0.004712   0.447740
 Mulliken charges:
               1
     1  C   -0.295837
     2  C   -0.252658
     3  C   -0.569688
     4  C    0.413844
     5  C    0.246923
     6  C   -0.118313
     7  H    0.204688
     8  H    0.202132
     9  H    0.199336
    10  H    0.233788
    11  I    0.988608
    12  C   -0.083873
    13  O   -0.437539
    14  O   -0.416909
    15  C   -0.695985
    16  C    0.861974
    17  C    0.353097
    18  C   -0.543945
    19  C   -0.544222
    20  C   -0.245871
    21  H    0.196078
    22  C   -0.245767
    23  H    0.196075
    24  C   -0.236267
    25  H    0.196381
    26  H    0.196383
    27  H    0.197565
 Sum of Mulliken charges =  -0.00000
 Mulliken charges with hydrogens summed into heavy atoms:
               1
     1  C   -0.091149
     2  C   -0.050526
     3  C   -0.370351
     4  C    0.413844
     5  C    0.246923
     6  C    0.115475
    11  I    0.988608
    12  C   -0.083873
    13  O   -0.437539
    14  O   -0.416909
    15  C   -0.695985
    16  C    0.861974
    17  C    0.353097
    18  C   -0.347867
    19  C   -0.348147
    20  C   -0.049490
    22  C   -0.049384
    24  C   -0.038702
 Electronic spatial extent (au):  <R**2>=           8057.3051
 Charge=             -0.0000 electrons
 Dipole moment (field-independent basis, Debye):
    X=            -11.2680    Y=              3.9872    Z=             -0.0001  Tot=             11.9526
 Quadrupole moment (field-independent basis, Debye-Ang):
   XX=           -148.6929   YY=           -115.7776   ZZ=           -119.8370
   XY=             12.2463   XZ=             -0.0033   YZ=             -0.0051
 Traceless Quadrupole moment (field-independent basis, Debye-Ang):
   XX=            -20.5904   YY=             12.3249   ZZ=              8.2655
   XY=             12.2463   XZ=             -0.0033   YZ=             -0.0051
 Octapole moment (field-independent basis, Debye-Ang**2):
  XXX=           -368.0403  YYY=            -23.1711  ZZZ=             -0.0094  XYY=             50.6909
  XXY=             83.8231  XXZ=              0.0129  XZZ=            -13.8304  YZZ=            -29.4716
  YYZ=             -0.0023  XYZ=              0.0443
 Hexadecapole moment (field-independent basis, Debye-Ang**3):
 XXXX=          -8934.5866 YYYY=          -1357.1084 ZZZZ=           -354.2705 XXXY=             31.8032
 XXXZ=             -0.1800 YYYX=             71.7782 YYYZ=              0.0509 ZZZX=             -0.0350
 ZZZY=             -0.0423 XXYY=          -1812.9513 XXZZ=          -1390.8480 YYZZ=           -359.5321
 XXYZ=             -0.1615 YYXZ=              0.0419 ZZXY=            -57.7090
 N-N= 1.778770517238D+03 E-N=-2.167440244073D+04  KE= 7.643580985511D+03
 D1PCM: PCM CHGder 1st derivatives, ID1Alg=3 FixD1E=F DoIter=F DoCFld=F I1PDM=0.
 Calling FoFJK, ICntrl=      2127 FMM=F ISym2X=0 I1Cent= 0 IOpClX= 0 NMat=1 NMatS=1 NMatT=0.
 Defaulting to unpruned grid for atomic number  53.
 Defaulting to unpruned grid for atomic number  53.
 Defaulting to unpruned grid for atomic number  53.
 Defaulting to unpruned grid for atomic number  53.
 Defaulting to unpruned grid for atomic number  53.
 Defaulting to unpruned grid for atomic number  53.
 Defaulting to unpruned grid for atomic number  53.
 Defaulting to unpruned grid for atomic number  53.
 Defaulting to unpruned grid for atomic number  53.
 Defaulting to unpruned grid for atomic number  53.
 Defaulting to unpruned grid for atomic number  53.
 Defaulting to unpruned grid for atomic number  53.
 Defaulting to unpruned grid for atomic number  53.
 Defaulting to unpruned grid for atomic number  53.
 Defaulting to unpruned grid for atomic number  53.
 Defaulting to unpruned grid for atomic number  53.
 Defaulting to unpruned grid for atomic number  53.
 Defaulting to unpruned grid for atomic number  53.
 Defaulting to unpruned grid for atomic number  53.
 Defaulting to unpruned grid for atomic number  53.
 Defaulting to unpruned grid for atomic number  53.
 Defaulting to unpruned grid for atomic number  53.
 Defaulting to unpruned grid for atomic number  53.
 Defaulting to unpruned grid for atomic number  53.
 ***** Axes restored to original set *****
 -------------------------------------------------------------------
 Center     Atomic                   Forces (Hartrees/Bohr)
 Number     Number              X              Y              Z
 -------------------------------------------------------------------
      1        6          -0.000278824    0.000140532    0.000000725
      2        6           0.000945502    0.001092303   -0.000000356
      3        6           0.000427550   -0.001020082    0.000000049
      4        6           0.003044238   -0.000703172    0.000001172
      5        6          -0.001665118   -0.005109895    0.000002824
      6        6           0.001080681   -0.000822465   -0.000002205
      7        1          -0.000008357    0.000176889   -0.000000290
      8        1           0.000045573    0.000183304   -0.000000170
      9        1          -0.000027719    0.001967368    0.000000693
     10        1           0.000004462    0.000607384    0.000000635
     11       53          -0.014061747    0.002131917   -0.000004400
     12        6          -0.020571123    0.001213008   -0.000005508
     13        8           0.015667664    0.003512784    0.000002294
     14        8           0.013830897   -0.002560466    0.000002541
     15        6           0.002048856   -0.001002739    0.000005677
     16        6           0.000112418    0.000008639   -0.000002960
     17        6          -0.000523448    0.000192434    0.000000248
     18        6           0.000899327   -0.000251838    0.000915850
     19        6           0.000899224   -0.000244479   -0.000918262
     20        6          -0.000277473    0.000025978    0.000602725
     21        1          -0.000113149    0.000064475    0.000559562
     22        6          -0.000277806    0.000020629   -0.000600213
     23        1          -0.000112535    0.000062762   -0.000559920
     24        6          -0.000666476    0.000149129   -0.000000132
     25        1          -0.000058327    0.000045095    0.000315213
     26        1          -0.000057755    0.000048137   -0.000315848
     27        1          -0.000306533    0.000072369    0.000000055
 -------------------------------------------------------------------
 Cartesian Forces:  Max     0.020571123 RMS     0.003754923

 GradGradGradGradGradGradGradGradGradGradGradGradGradGradGradGradGradGrad
 Berny optimization.
 FormGI is forming the generalized inverse of G from B-inverse, IUseBI=4.
 Internal  Forces:  Max     0.028052196 RMS     0.005212800
 Search for a local minimum.
 Step number   1 out of a maximum of  162
 All quantities printed in internal units (Hartrees-Bohrs-Radians)
 Mixed Optimization -- RFO/linear search
 Second derivative matrix not updated -- first step.
 ITU=  0
     Eigenvalues ---    0.00230   0.00230   0.00527   0.00527   0.01228
     Eigenvalues ---    0.01690   0.01705   0.01971   0.01976   0.02117
     Eigenvalues ---    0.02171   0.02184   0.02198   0.02209   0.02210
     Eigenvalues ---    0.02215   0.02217   0.02224   0.02232   0.02236
     Eigenvalues ---    0.02238   0.02239   0.02268   0.02316   0.04335
     Eigenvalues ---    0.04615   0.12899   0.14808   0.16000   0.16000
     Eigenvalues ---    0.16000   0.16000   0.16000   0.16000   0.16000
     Eigenvalues ---    0.16000   0.16000   0.22000   0.22000   0.22000
     Eigenvalues ---    0.22496   0.23475   0.24500   0.25000   0.25000
     Eigenvalues ---    0.25000   0.25000   0.25000   0.25000   0.30556
     Eigenvalues ---    0.35518   0.35541   0.35545   0.35546   0.35546
     Eigenvalues ---    0.35551   0.35574   0.35574   0.35647   0.40974
     Eigenvalues ---    0.42195   0.42717   0.43037   0.43381   0.46187
     Eigenvalues ---    0.46550   0.47048   0.47245   0.47326   0.47834
     Eigenvalues ---    0.48199   0.48570   0.67943   0.99888   1.00408
 RFO step:  Lambda=-1.19057074D-02 EMin= 2.30000000D-03
 Linear search not attempted -- first point.
 Iteration  1 RMS(Cart)=  0.14348462 RMS(Int)=  0.00634333
 Iteration  2 RMS(Cart)=  0.02730451 RMS(Int)=  0.00019470
 Iteration  3 RMS(Cart)=  0.00037992 RMS(Int)=  0.00001577
 Iteration  4 RMS(Cart)=  0.00000012 RMS(Int)=  0.00001577
 Variable       Old X    -DE/DX   Delta X   Delta X   Delta X     New X
                                 (Linear)    (Quad)   (Total)
    R1        2.63121  -0.00347   0.00000  -0.00871  -0.00875   2.62246
    R2        2.62862  -0.00111   0.00000  -0.00311  -0.00311   2.62551
    R3        2.04805   0.00015   0.00000   0.00040   0.00040   2.04845
    R4        2.62176  -0.00180   0.00000  -0.00435  -0.00438   2.61738
    R5        2.04790   0.00018   0.00000   0.00050   0.00050   2.04839
    R6        2.63060   0.00379   0.00000   0.00867   0.00867   2.63927
    R7        2.04799   0.00008   0.00000   0.00021   0.00021   2.04820
    R8        2.61074   0.01703   0.00000   0.03548   0.03552   2.64625
    R9        2.86868   0.00314   0.00000   0.00989   0.00989   2.87857
   R10        2.61196   0.00194   0.00000   0.00459   0.00462   2.61658
   R11        4.03263   0.00297   0.00000   0.02111   0.02111   4.05375
   R12        2.04637  -0.00006   0.00000  -0.00017  -0.00017   2.04620
   R13        3.92572  -0.00171   0.00000  -0.01072  -0.01072   3.91499
   R14        2.45158  -0.01160   0.00000  -0.01677  -0.01677   2.43481
   R15        2.28684   0.01368   0.00000   0.01353   0.01353   2.30037
   R16        2.28475   0.00053   0.00000   0.00052   0.00052   2.28527
   R17        2.70251   0.00064   0.00000   0.00151   0.00151   2.70402
   R18        2.64417   0.00119   0.00000   0.00256   0.00256   2.64673
   R19        2.64417   0.00119   0.00000   0.00256   0.00256   2.64673
   R20        2.62117   0.00085   0.00000   0.00173   0.00173   2.62289
   R21        2.04754   0.00042   0.00000   0.00114   0.00114   2.04868
   R22        2.62117   0.00085   0.00000   0.00173   0.00173   2.62289
   R23        2.04753   0.00042   0.00000   0.00114   0.00114   2.04867
   R24        2.62842   0.00115   0.00000   0.00236   0.00236   2.63077
   R25        2.04798   0.00031   0.00000   0.00084   0.00084   2.04881
   R26        2.62842   0.00115   0.00000   0.00236   0.00236   2.63077
   R27        2.04798   0.00031   0.00000   0.00084   0.00084   2.04882
   R28        2.04842   0.00032   0.00000   0.00086   0.00086   2.04929
    A1        2.10508   0.00033   0.00000  -0.00412  -0.00416   2.10092
    A2        2.09819  -0.00027   0.00000   0.00149   0.00151   2.09971
    A3        2.07991  -0.00007   0.00000   0.00263   0.00265   2.08256
    A4        2.10108  -0.00064   0.00000  -0.00809  -0.00817   2.09291
    A5        2.08998   0.00029   0.00000   0.00386   0.00390   2.09388
    A6        2.09213   0.00035   0.00000   0.00423   0.00427   2.09640
    A7        2.09619   0.00542   0.00000   0.02283   0.02280   2.11899
    A8        2.13067  -0.00472   0.00000  -0.02309  -0.02308   2.10759
    A9        2.05633  -0.00070   0.00000   0.00026   0.00028   2.05660
   A10        2.05625  -0.00432   0.00000  -0.01291  -0.01287   2.04338
   A11        2.12269  -0.02006   0.00000  -0.07837  -0.07840   2.04430
   A12        2.10424   0.02438   0.00000   0.09129   0.09126   2.19551
   A13        2.16174  -0.00709   0.00000  -0.02384  -0.02377   2.13798
   A14        1.97062   0.02805   0.00000   0.10550   0.10546   2.07608
   A15        2.15082  -0.02096   0.00000  -0.08165  -0.08169   2.06913
   A16        2.04603   0.00630   0.00000   0.02614   0.02617   2.07219
   A17        2.11503  -0.00377   0.00000  -0.01666  -0.01668   2.09836
   A18        2.12213  -0.00253   0.00000  -0.00948  -0.00949   2.11264
   A19        1.60294   0.00028   0.00000   0.00107   0.00107   1.60401
   A20        1.96924   0.01564   0.00000   0.05970   0.05970   2.02894
   A21        2.10374  -0.00406   0.00000  -0.01549  -0.01549   2.08825
   A22        2.21020  -0.01158   0.00000  -0.04421  -0.04421   2.16600
   A23        2.09770  -0.00025   0.00000  -0.00102  -0.00102   2.09668
   A24        2.09770  -0.00025   0.00000  -0.00102  -0.00102   2.09668
   A25        2.08778   0.00050   0.00000   0.00204   0.00205   2.08982
   A26        2.09449  -0.00036   0.00000  -0.00147  -0.00147   2.09301
   A27        2.08401   0.00058   0.00000   0.00307   0.00307   2.08708
   A28        2.10469  -0.00022   0.00000  -0.00160  -0.00160   2.10309
   A29        2.09449  -0.00036   0.00000  -0.00148  -0.00148   2.09301
   A30        2.08401   0.00058   0.00000   0.00307   0.00307   2.08708
   A31        2.10468  -0.00022   0.00000  -0.00159  -0.00159   2.10309
   A32        2.09697   0.00004   0.00000   0.00020   0.00020   2.09717
   A33        2.08971  -0.00012   0.00000  -0.00068  -0.00068   2.08903
   A34        2.09650   0.00008   0.00000   0.00048   0.00048   2.09698
   A35        2.09697   0.00005   0.00000   0.00020   0.00020   2.09717
   A36        2.08972  -0.00012   0.00000  -0.00068  -0.00068   2.08903
   A37        2.09650   0.00008   0.00000   0.00048   0.00048   2.09698
   A38        2.09567   0.00013   0.00000   0.00051   0.00051   2.09618
   A39        2.09376  -0.00006   0.00000  -0.00026  -0.00026   2.09350
   A40        2.09376  -0.00006   0.00000  -0.00025  -0.00025   2.09350
   A41        3.25504  -0.00055   0.00000  -0.01049  -0.01050   3.24455
   A42        3.11917  -0.00017   0.00000  -0.00913  -0.00914   3.11004
   A43        3.14182  -0.00001   0.00000  -0.00012  -0.00012   3.14170
   A44        3.14155  -0.00000   0.00000  -0.00001  -0.00001   3.14155
    D1        0.00001  -0.00000   0.00000  -0.00000  -0.00000   0.00000
    D2       -3.14159  -0.00000   0.00000  -0.00001  -0.00001   3.14159
    D3        3.14159   0.00000   0.00000   0.00001   0.00001  -3.14159
    D4       -0.00000   0.00000   0.00000   0.00000   0.00000  -0.00000
    D5       -0.00000   0.00000   0.00000   0.00001   0.00001   0.00000
    D6       -3.14158   0.00000   0.00000   0.00000   0.00000  -3.14158
    D7       -3.14159  -0.00000   0.00000  -0.00000  -0.00000  -3.14159
    D8        0.00002  -0.00000   0.00000  -0.00001  -0.00001   0.00001
    D9       -0.00001   0.00000   0.00000   0.00001   0.00001  -0.00001
   D10        3.14158  -0.00000   0.00000  -0.00000  -0.00000   3.14158
   D11        3.14158   0.00000   0.00000   0.00001   0.00001   3.14159
   D12       -0.00001   0.00000   0.00000   0.00000   0.00000  -0.00001
   D13        0.00002  -0.00000   0.00000  -0.00001  -0.00001   0.00001
   D14       -3.14156  -0.00000   0.00000  -0.00002  -0.00002  -3.14158
   D15       -3.14158  -0.00000   0.00000  -0.00001  -0.00001  -3.14158
   D16        0.00003  -0.00000   0.00000  -0.00002  -0.00002   0.00001
   D17       -0.00001   0.00000   0.00000   0.00001   0.00001   0.00000
   D18       -3.14158  -0.00000   0.00000  -0.00002  -0.00002   3.14159
   D19        3.14156   0.00000   0.00000   0.00002   0.00002   3.14159
   D20        0.00000  -0.00000   0.00000  -0.00001  -0.00001  -0.00001
   D21        3.14152  -0.00000   0.00000  -0.00009  -0.00009   3.14142
   D22       -0.00010   0.00000   0.00000   0.00014   0.00014   0.00004
   D23       -0.00006  -0.00000   0.00000  -0.00011  -0.00011  -0.00017
   D24        3.14151   0.00000   0.00000   0.00013   0.00013  -3.14155
   D25        0.00001  -0.00000   0.00000  -0.00001  -0.00001  -0.00001
   D26        3.14158  -0.00000   0.00000  -0.00001  -0.00001   3.14158
   D27        3.14156   0.00000   0.00000   0.00003   0.00003   3.14159
   D28       -0.00004   0.00000   0.00000   0.00003   0.00003  -0.00001
   D29        3.14159  -0.00000   0.00000  -0.00003  -0.00003   3.14156
   D30        0.00003  -0.00000   0.00000  -0.00007  -0.00007  -0.00004
   D31       -1.59053   0.00020   0.00000   0.00645   0.00644  -1.58409
   D32        1.58936  -0.00020   0.00000  -0.00644  -0.00643   1.58294
   D33        3.13896   0.00001   0.00000  -0.00037  -0.00037   3.13859
   D34       -0.00336   0.00005   0.00000   0.00066   0.00065  -0.00270
   D35       -0.00099  -0.00004   0.00000  -0.00042  -0.00042  -0.00141
   D36        3.13987  -0.00000   0.00000   0.00060   0.00060   3.14048
   D37       -3.13894  -0.00002   0.00000   0.00035   0.00035  -3.13858
   D38        0.00331  -0.00005   0.00000  -0.00063  -0.00062   0.00269
   D39        0.00102   0.00004   0.00000   0.00040   0.00040   0.00142
   D40       -3.13992   0.00000   0.00000  -0.00057  -0.00058  -3.14050
   D41        0.00039   0.00002   0.00000   0.00020   0.00020   0.00059
   D42        3.14129   0.00004   0.00000   0.00096   0.00096  -3.14093
   D43       -3.14047  -0.00002   0.00000  -0.00083  -0.00083  -3.14131
   D44        0.00043   0.00000   0.00000  -0.00007  -0.00007   0.00036
   D45       -0.00043  -0.00002   0.00000  -0.00017  -0.00017  -0.00060
   D46       -3.14126  -0.00004   0.00000  -0.00098  -0.00098   3.14094
   D47        3.14050   0.00002   0.00000   0.00082   0.00082   3.14132
   D48       -0.00034  -0.00000   0.00000   0.00001   0.00001  -0.00032
   D49        0.00020   0.00001   0.00000   0.00003   0.00003   0.00024
   D50        3.14112   0.00002   0.00000   0.00049   0.00049  -3.14157
   D51       -3.14070  -0.00002   0.00000  -0.00073  -0.00073  -3.14143
   D52        0.00021  -0.00001   0.00000  -0.00027  -0.00027  -0.00006
   D53       -0.00018  -0.00001   0.00000  -0.00005  -0.00005  -0.00023
   D54       -3.14110  -0.00002   0.00000  -0.00051  -0.00051   3.14158
   D55        3.14065   0.00002   0.00000   0.00076   0.00076   3.14141
   D56       -0.00027   0.00001   0.00000   0.00030   0.00030   0.00004
         Item               Value     Threshold  Converged?
 Maximum Force            0.028052     0.000450     NO 
 RMS     Force            0.005213     0.000300     NO 
 Maximum Displacement     0.928067     0.001800     NO 
 RMS     Displacement     0.168315     0.001200     NO 
 Predicted change in Energy=-6.213930D-03
 GradGradGradGradGradGradGradGradGradGradGradGradGradGradGradGradGradGrad

                          Input orientation:                          
 ---------------------------------------------------------------------
 Center     Atomic      Atomic             Coordinates (Angstroms)
 Number     Number       Type             X           Y           Z
 ---------------------------------------------------------------------
      1          6           0        1.279632    2.921680    0.000260
      2          6           0        2.650216    3.139243    0.000365
      3          6           0        3.520633    2.061858    0.000276
      4          6           0        3.050837    0.746602    0.000092
      5          6           0        1.662231    0.565737   -0.000007
      6          6           0        0.773723    1.627704    0.000070
      7          1           0        0.592700    3.760230    0.000325
      8          1           0        3.037802    4.151544    0.000512
      9          1           0        4.593471    2.216046    0.000347
     10          1           0       -0.296124    1.460690   -0.000024
     11         53           0        0.874998   -1.429743   -0.000298
     12          6           0        4.093862   -0.363559    0.000022
     13          8           0        3.641874   -1.570122    0.000048
     14          8           0        5.277202   -0.078020    0.000169
     15          6           0       -1.076364   -0.733874   -0.000244
     16          6           0       -2.251131   -0.446891   -0.000107
     17          6           0       -3.629757   -0.063634   -0.000001
     18          6           0       -4.307022    0.124739    1.211395
     19          6           0       -4.306730    0.126476   -1.211290
     20          6           0       -5.643304    0.499974    1.206414
     21          1           0       -3.780827   -0.024115    2.147483
     22          6           0       -5.643011    0.501710   -1.206094
     23          1           0       -3.780305   -0.021021   -2.147463
     24          6           0       -6.312236    0.688869    0.000214
     25          1           0       -6.163804    0.645381    2.146305
     26          1           0       -6.163287    0.648450   -2.145903
     27          1           0       -7.356286    0.982058    0.000299
 ---------------------------------------------------------------------
                    Distance matrix (angstroms):
                    1          2          3          4          5
     1  C    0.000000
     2  C    1.387744   0.000000
     3  C    2.400288   1.385057   0.000000
     4  C    2.805019   2.425949   1.396642   0.000000
     5  C    2.386807   2.756637   2.385799   1.400335   0.000000
     6  C    1.389358   2.409559   2.781008   2.441636   1.384637
     7  H    1.083993   2.149185   3.384857   3.889009   3.368780
     8  H    2.145631   1.083964   2.144741   3.404967   3.840600
     9  H    3.388133   2.151402   1.083861   2.130490   3.363880
    10  H    2.148836   3.390937   3.863811   3.422290   2.153159
    11  I    4.370195   4.901737   4.380715   3.077458   2.145152
    12  C    4.325817   3.788633   2.492236   1.523273   2.603157
    13  O    5.075084   4.812640   3.634004   2.390928   2.912196
    14  O    4.997876   4.153533   2.768504   2.374174   3.671844
    15  C    4.348998   5.374795   5.380381   4.384700   3.031318
    16  C    4.879913   6.073183   6.293416   5.434638   4.042254
    17  C    5.745798   7.049573   7.459611   6.729548   5.329281
    18  C    6.363994   7.678345   8.154228   7.482784   6.106878
    19  C    6.363053   7.677497   8.153601   7.482365   6.106443
    20  C    7.432799   8.786510   9.374006   8.780895   7.404769
    21  H    6.236707   7.481662   7.891331   7.202564   5.881030
    22  C    7.431993   8.785769   9.373461   8.780538   7.404411
    23  H    6.234995   7.480109   7.890176   7.201787   5.880225
    24  C    7.913399   9.291387   9.928263   9.363251   7.975417
    25  H    8.074143   9.408047  10.019988   9.461822   8.115406
    26  H    8.072832   9.406824  10.019088   9.461237   8.114828
    27  H    8.851057  10.236382  10.930386  10.409786   9.028121
                    6          7          8          9         10
     6  C    0.000000
     7  H    2.140195   0.000000
     8  H    3.390549   2.476218   0.000000
     9  H    3.864792   4.288435   2.483195   0.000000
    10  H    1.082805   2.465338   4.284362   4.947595   0.000000
    11  I    3.059124   5.197645   5.985690   5.207573   3.118674
    12  C    3.871493   5.409600   4.636963   2.627541   4.753931
    13  O    4.295624   6.140857   5.753466   3.903922   4.969271
    14  O    4.815684   6.056131   4.785825   2.393789   5.781832
    15  C    2.999979   4.794031   6.386992   6.391326   2.329138
    16  C    3.667927   5.078114   7.008454   7.344372   2.731469
    17  C    4.717125   5.696584   7.888224   8.533371   3.665607
    18  C    5.435089   6.220190   8.463324   9.222742   4.397682
    19  C    5.434343   6.219050   8.462375   9.222144   4.396846
    20  C    6.626106   7.139444   9.494723  10.449452   5.565142
    21  H    5.299417   6.169221   8.278848   8.930699   4.354262
    22  C    6.625494   7.138451   9.493877  10.448924   5.564481
    23  H    5.298053   6.167173   8.277118   8.929596   4.352756
    24  C    7.147883   7.557208   9.970623  11.012116   6.065419
    25  H    7.328067   7.743246  10.078054  11.081114   6.300883
    26  H    7.327090   7.741629  10.076647  11.080234   6.299852
    27  H    8.155606   8.420488  10.866587  12.013301   7.076368
                   11         12         13         14         15
    11  I    0.000000
    12  C    3.390846   0.000000
    13  O    2.770435   1.288444   0.000000
    14  O    4.605057   1.217302   2.213745   0.000000
    15  C    2.071726   5.183471   4.791772   6.387326   0.000000
    16  C    3.276993   6.345541   5.999096   7.537364   1.209313
    17  C    4.707343   7.729441   7.426044   8.906970   2.639894
    18  C    5.544182   8.501807   8.217352   9.662584   3.555621
    19  C    5.544242   8.501609   8.217426   9.662360   3.555573
    20  C    6.904218   9.849542   9.589325  11.002116   4.882146
    21  H    5.316528   8.169305   7.880235   9.309230   3.525707
    22  C    6.904267   9.849371   9.589388  11.001918   4.882111
    23  H    5.316641   8.168938   7.880372   9.308814   3.525622
    24  C    7.492987  10.459182  10.207220  11.614783   5.425731
    25  H    7.645834  10.528258  10.279406  11.663011   5.691403
    26  H    7.645911  10.527975  10.279511  11.662683   5.691349
    27  H    8.577344  11.528946  11.290401  12.677886   6.510134
                   16         17         18         19         20
    16  C    0.000000
    17  C    1.430907   0.000000
    18  C    2.453811   1.400591   0.000000
[...]
 30,0.00000903,0.00053746,-0.00090360,0.00014797,0.00052043,0.00773912,
 -0.00112062,0.00937406,0.00484804,-0.02067442,0.07205555,-0.08550388,0
 .00874641,0.01339022,-0.00966605,0.00873922,-0.14122151,0.17836750,0.0
 0000371,0.00000803,0.00000986,-0.00001446,-0.00000216,-0.00000607,-0.0
 0002823,-0.00000506,0.00000732,0.00001312,-0.00006657,-0.00002501,-0.0
 0013233,-0.00001635,0.00005805,-0.00004527,-0.00000194,-0.00000689,-0.
 00000081,-0.00000533,-0.00000085,-0.00000200,-0.00000233,-0.00000061,-
 0.00000420,-0.00000766,-0.00000087,0.00000463,0.00004932,-0.00000714,0
 .00072547,-0.00018914,0.00012203,-0.00000276,-0.00003671,-0.00000313,0
 .00001103,0.00000548,-0.00002220,-0.00000971,0.00000792,0.00000508,-0.
 00080633,0.00037861,0.00026436,0.00564193,-0.00163312,-0.00429718,0.02
 612870,-0.00691980,0.03835296,0.03452730,-0.00979308,-0.13436058,-0.03
 207373,0.00859834,-0.01977791,-0.03445660,0.01323787,0.73522023,0.0000
 0022,-0.00000002,-0.00000178,0.00000178,0.00000236,0.00000186,0.000005
 11,-0.00000079,-0.00000261,0.00000271,0.00001385,0.00000001,0.00001444
 ,-0.00003253,0.00000898,0.00000800,0.00000505,-0.00000873,-0.00000022,
 0.00000147,0.00000008,0.00000063,0.00000118,0.00000016,0.00000092,0.00
 000145,0.00000029,-0.00000003,-0.00000675,0.00000464,-0.00009127,0.000
 06291,-0.00000867,-0.00003044,-0.00002992,0.00000475,0.00004906,0.0000
 2059,-0.00000056,0.00002726,0.00000822,-0.00000263,0.00012049,0.000037
 47,-0.00009268,0.00079020,-0.00128055,0.00067448,0.00959498,-0.0015107
 0,0.01535138,-0.12586675,0.02257090,-0.12176515,-0.00080261,0.00202399
 ,0.00293883,-0.00845438,0.00338296,-0.02675792,0.12888876,0.00000091,0
 .00000098,0.00000048,-0.00000060,-0.00000316,-0.00000154,0.00000488,-0
 .00000056,-0.00000360,-0.00000237,0.00000186,0.00000409,0.00003461,0.0
 0000389,0.00002569,-0.00000493,-0.00001213,-0.00000120,-0.00000050,-0.
 00000256,0.00000119,-0.00000017,0.00000003,0.00000045,0.00000016,0.000
 00089,-0.00000004,-0.00000759,0.00000416,0.00000594,0.00003150,0.00012
 157,-0.00004857,0.00000147,0.00003050,0.00000388,-0.00002613,-0.000030
 08,0.00000707,-0.00000845,-0.00001039,-0.00000223,0.00003602,0.0002528
 0,0.00002876,-0.00124605,-0.00355702,-0.00012102,-0.00174442,0.0040600
 4,-0.00435875,0.02255917,-0.04485099,0.03122529,0.00205172,0.00609692,
 -0.00083848,0.00362843,0.00376121,0.00725070,-0.02681648,0.03317815,-0
 .00000124,0.00000157,0.00000511,0.00000076,0.00000067,-0.00000151,0.00
 000275,0.00000054,0.00000085,-0.00000151,0.00000774,0.00000377,0.00001
 185,-0.00000409,-0.00000451,0.00000794,-0.00000034,0.00000167,0.000000
 10,0.00000195,-0.00000103,-0.00000005,0.00000020,-0.00000043,0.0000002
 0,0.00000080,-0.00000030,-0.00000352,-0.00000631,-0.00000807,-0.000069
 60,0.00001820,-0.00003419,0.00000321,-0.00000252,-0.00000243,0.0000038
 6,0.00000278,0.00000534,-0.00000047,0.00000130,0.00000041,0.00052615,-
 0.00014382,0.00009493,-0.00103706,0.00030813,0.00042771,-0.01482990,0.
 00385394,-0.01650260,-0.12028338,0.03081465,-0.27327527,0.00373826,-0.
 00105491,-0.00265875,0.00324595,-0.00089978,0.00496000,0.12830601,-0.0
 3280191,0.28549139,0.00000918,0.00000237,-0.00000085,-0.00000915,-0.00
 001456,0.00000266,-0.00002852,0.00000082,-0.00000084,-0.00000565,-0.00
 009239,-0.00002665,-0.00013545,0.00009141,0.00006509,-0.00004768,-0.00
 001415,-0.00002414,-0.00000206,-0.00000904,-0.00000109,-0.00000200,-0.
 00000409,0.00000024,-0.00000457,-0.00000940,0.00000209,0.00002087,0.00
 006193,-0.00000137,0.00078441,-0.00024608,-0.00002392,0.00010377,0.000
 11130,0.00000476,-0.00019409,-0.00008780,-0.00000142,-0.00010455,-0.00
 003450,-0.00000031,-0.00261580,0.00046550,0.00069363,0.00577150,0.0006
 7993,-0.00387314,-0.02702465,0.00886675,-0.07711974,-0.05584700,0.0136
 5924,0.03276467,-0.33033465,0.07190846,0.03423961,0.07006577,-0.016856
 39,0.02500056,-0.00061050,-0.00015934,0.00057182,0.65990536,-0.0000064
 3,-0.00000213,-0.00001157,0.00000627,-0.00000272,0.00000576,-0.0000047
 3,0.00000271,-0.00001535,0.00000394,0.00000190,-0.00000199,-0.00004117
 ,-0.00000426,0.00014993,0.00000708,0.00001597,0.00001102,0.00000064,0.
 00000510,-0.00000032,0.00000048,0.00000138,0.00000023,0.00000224,-0.00
 000052,-0.00000041,-0.00000388,-0.00002010,0.00000511,-0.00023671,-0.0
 0024668,-0.00021334,-0.00001659,-0.00005913,0.00001934,0.00007777,0.00
 006903,0.00002555,0.00003599,0.00002191,-0.00000885,0.00056264,-0.0009
 1429,-0.00014269,0.00044369,0.00777288,0.00097343,0.00917388,0.0051617
 1,0.02100786,0.01369116,-0.00986749,-0.00891289,0.07161033,-0.08548279
 ,-0.00963335,-0.01715608,0.01192707,-0.00714323,-0.00013378,-0.0010812
 5,-0.00015531,-0.14085673,0.17811531,-0.00000377,-0.00000804,0.0000099
 9,0.00001437,0.00000232,-0.00000616,0.00002859,0.00000488,0.00000797,-
 0.00001333,0.00006782,-0.00002345,0.00013492,0.00001427,0.00004914,0.0
 0004496,0.00000184,-0.00000677,0.00000088,0.00000532,-0.00000073,0.000
 00198,0.00000233,-0.00000061,0.00000419,0.00000778,-0.00000088,-0.0000
 0523,-0.00004951,-0.00000796,-0.00072668,0.00019544,0.00013608,0.00000
 243,0.00003714,-0.00000404,-0.00001153,-0.00000614,-0.00002404,0.00000
 957,-0.00000814,0.00000551,0.00081528,-0.00036414,0.00025817,-0.005696
 73,0.00149700,-0.00428002,-0.02591020,0.00722670,0.03854301,0.03211273
 ,-0.00878410,-0.01987564,-0.03438119,0.00890413,-0.13434216,-0.0254614
 0,0.00646165,-0.05773334,0.00054023,-0.00012781,0.00020707,0.03647150,
 -0.00618285,0.73500960,0.00000010,-0.00000005,0.00000176,0.00000171,0.
 00000238,-0.00000189,0.00000492,-0.00000082,0.00000257,0.00000260,0.00
 001352,0.00000015,0.00001396,-0.00003190,-0.00000904,0.00000806,0.0000
 0504,0.00000832,-0.00000019,0.00000145,-0.00000004,0.00000060,0.000001
 14,-0.00000014,0.00000089,0.00000143,-0.00000026,-0.00000011,-0.000006
 38,-0.00000420,-0.00008704,0.00006134,0.00000797,-0.00002963,-0.000029
 36,-0.00000484,0.00004783,0.00002010,0.00000083,0.00002645,0.00000804,
 0.00000260,0.00011436,0.00004038,0.00009117,0.00081671,-0.00130567,-0.
 00065449,0.00959831,-0.00170535,-0.01546541,-0.00083648,0.00199580,-0.
 00297254,-0.12476351,0.02366221,0.12078496,-0.00061663,-0.00013853,-0.
 00053582,0.00051579,-0.00004818,-0.00071523,-0.00833634,0.00368751,0.0
 2678258,0.12768312,0.00000083,0.00000094,-0.00000025,-0.00000064,-0.00
 000309,0.00000131,0.00000473,-0.00000059,0.00000368,-0.00000231,0.0000
 0170,-0.00000374,0.00003384,0.00000383,-0.00002655,-0.00000465,-0.0000
 1201,0.00000139,-0.00000047,-0.00000250,-0.00000119,-0.00000018,0.0000
 0001,-0.00000046,0.00000014,0.00000087,0.00000003,-0.00000741,0.000004
 43,-0.00000585,0.00003452,0.00012014,0.00004691,0.00000109,0.00002974,
 -0.00000381,-0.00002549,-0.00002959,-0.00000684,-0.00000819,-0.0000102
 0,0.00000220,0.00002456,0.00025639,-0.00002756,-0.00124197,-0.00355473
 ,0.00017846,-0.00154787,0.00406343,0.00412779,0.00201522,0.00611827,0.
 00072852,0.02361862,-0.04561257,-0.03393620,-0.00016751,-0.00107801,0.
 00014267,-0.00003946,0.00034182,0.00018395,0.00355615,0.00368898,-0.00
 724672,-0.02795237,0.03397573,0.00000129,-0.00000165,0.00000511,-0.000
 00073,-0.00000056,-0.00000147,-0.00000282,-0.00000055,0.00000074,0.000
 00151,-0.00000766,0.00000378,-0.00001253,0.00000385,-0.00000397,-0.000
 00768,0.00000062,0.00000171,-0.00000007,-0.00000186,-0.00000104,0.0000
 0004,-0.00000020,-0.00000044,-0.00000021,-0.00000080,-0.00000030,0.000
 00376,0.00000625,-0.00000766,0.00006789,-0.00001980,-0.00003569,-0.000
 00339,0.00000184,-0.00000230,-0.00000317,-0.00000217,0.00000553,0.0000
 0076,-0.00000105,0.00000036,-0.00052499,0.00014137,0.00009600,0.001051
 02,-0.00025691,0.00041803,0.01471506,-0.00407540,-0.01650225,-0.003770
 50,0.00094549,-0.00264593,0.11930425,-0.03351625,-0.27383292,-0.000565
 31,0.00016891,0.00021004,0.00070767,-0.00019737,-0.00089024,-0.0032195
 3,0.00089370,0.00492162,-0.12722911,0.03579339,0.28607961,0.00000291,0
 .00000729,0.00000028,-0.00002131,-0.00002085,-0.00000017,-0.00004837,-
 0.00000165,-0.00000009,-0.00000125,-0.00014576,-0.00000095,-0.00012500
 ,0.00022729,0.00000357,-0.00005958,-0.00004751,-0.00000054,-0.00000328
 ,-0.00001511,-0.00000011,-0.00000439,-0.00000713,-0.00000002,-0.000006
 38,-0.00001507,-0.00000004,0.00001030,0.00010967,0.00000059,0.00127742
 ,-0.00038845,-0.00000519,0.00015115,0.00019786,0.00000093,-0.00032079,
 -0.00016788,0.00000005,-0.00016803,-0.00006379,-0.00000025,-0.00096883
 ,0.00049714,0.00000382,-0.00010193,-0.00040220,-0.00000399,-0.00015022
 ,-0.00175748,-0.00019385,-0.02356864,0.00816699,-0.03007726,-0.0230363
 3,0.00840530,0.03030982,-0.17859013,0.02979452,-0.12204536,-0.00440919
 ,0.00331743,0.00078475,-0.17769144,0.03103957,0.12109600,-0.00441883,0
 .00330810,-0.00079411,0.71298864,0.00000161,0.00000079,0.00000048,0.00
 000453,0.00000941,-0.00000010,0.00001750,0.00000033,0.00000011,-0.0000
 0706,0.00004581,0.00000008,0.00005111,-0.00007668,-0.00000071,0.000021
 89,0.00001403,-0.00000126,0.00000217,0.00000377,0.,0.00000165,0.000001
 64,0.,0.00000128,0.00000488,0.00000002,-0.00000638,-0.00003128,0.00000
 027,-0.00035728,0.00017144,0.00000105,-0.00004481,-0.00006042,-0.00000
 020,0.00009076,0.00004783,0.,0.00004692,0.00001878,0.,0.00030142,-0.00
 004871,0.00000336,-0.00032189,-0.00120397,-0.00000538,-0.00180118,-0.0
 0643539,-0.00039160,0.00781394,0.00513965,0.00839387,0.00868258,0.0048
 0043,-0.00805410,0.03027388,-0.07404377,0.03160620,0.00331502,0.006892
 99,-0.00024245,0.03065831,-0.07456213,-0.03427008,0.00330206,0.0069014
 4,0.00016652,-0.15521095,0.18456869,0.00000003,-0.00000005,0.00000099,
 0.00000009,0.00000002,0.00000216,0.00000005,0.00000006,-0.00000125,0.0
 0000016,0.00000004,-0.00000684,-0.00000047,0.00000047,-0.00000443,0.00
 000100,0.00000026,-0.00001684,-0.00000003,0.00000005,-0.00000027,0.000
 00003,0.00000002,0.00000034,0.00000001,0.,0.00000198,0.00000067,0.0000
 0005,-0.00000101,-0.00000222,0.00000046,0.00004025,-0.00000037,-0.0000
 0033,-0.00000003,0.00000068,0.00000031,-0.00000707,0.00000040,0.000000
 10,0.00000002,0.00000288,0.00000129,0.00068217,-0.00000786,-0.00001323
 ,-0.00266027,-0.00018458,-0.00038599,-0.07774950,-0.08137839,0.0222348
 3,0.04001957,0.08159856,-0.02188003,0.03981626,-0.05159604,0.01248957,
 -0.29085672,0.00117738,-0.00038399,0.00151762,0.05065275,-0.01515343,-
 0.29120345,-0.00118447,0.00030662,0.00152009,0.00081508,0.00320822,0.6
 7216842,0.00000114,-0.00000050,-0.00000101,-0.00000315,-0.00000699,0.0
 0000005,-0.00000941,0.00000234,-0.00000008,-0.00000338,-0.00003362,0.0
 0000214,-0.00002199,0.00006941,-0.00000900,-0.00001343,-0.00001281,0.0
 0000019,-0.00000058,-0.00000429,0.00000072,-0.00000102,-0.00000211,0.0
 0000025,-0.00000157,-0.00000326,0.00000014,0.00000647,0.00002369,0.000
 00061,0.00026591,-0.00007829,-0.00003900,0.00005487,0.00007747,0.00000
 164,-0.00011458,-0.00005864,0.00000507,-0.00005644,-0.00002381,-0.0000
 0120,-0.00062511,0.00013515,-0.00009935,-0.00027483,0.00018824,0.00126
 136,-0.00393532,0.00315001,-0.00102503,-0.00947183,0.00380075,0.027205
 32,-0.00067183,-0.00014004,-0.00063487,-0.12330894,0.02343920,0.118493
 79,0.00079314,-0.00141127,-0.00032987,-0.00044446,0.00217401,-0.003109
 20,0.00003129,-0.00029765,0.00010854,0.01110623,-0.00204724,-0.0153473
 1,0.12591637,0.00000018,0.00000068,-0.00000142,0.00000065,0.00000106,0
 .00000121,0.00000071,-0.00000050,-0.00000026,0.00000463,0.00000590,0.0
 0000065,0.00000074,-0.00001331,-0.00000488,0.00000046,0.00000088,-0.00
 000009,-0.00000014,0.00000019,0.00000040,0.00000013,0.00000060,0.00000
 007,0.00000046,0.00000063,-0.00000009,-0.00000196,-0.00000552,-0.00000
 043,-0.00006788,0.00000966,0.00002204,-0.00001493,-0.00001920,-0.00000
 124,0.00003323,0.00001496,-0.00000342,0.00001641,0.00000579,0.00000077
 ,0.00012968,-0.00018259,0.00002649,0.00018028,0.00031237,-0.00035209,0
 .00313849,0.00683351,0.00023967,0.00357244,0.00280903,-0.00738978,-0.0
 0013098,-0.00112201,0.00018767,0.02346304,-0.04579979,-0.03364799,-0.0
 0140520,-0.00402050,0.00012538,0.00216197,0.00701290,0.00078666,-0.000
 29644,-0.00098179,-0.00002413,-0.00185151,0.00448968,0.00404543,-0.027
 57078,0.03452042,-0.00000046,-0.00000077,-0.00000017,0.00000238,0.0000
 0256,0.00000020,0.00000598,-0.00000053,0.00000026,0.00000029,0.0000186
 5,0.00000031,0.00001804,-0.00002704,-0.00000172,0.00000901,0.00000467,
 0.00000118,0.00000004,0.00000217,-0.00000022,0.00000071,0.00000125,-0.
 00000008,0.00000106,0.00000190,-0.00000007,-0.00000256,-0.00001330,-0.
 00000016,-0.00016320,0.00004504,-0.00000861,-0.00002212,-0.00002655,-0
 .00000007,0.00004401,0.00002267,0.00000112,0.00002353,0.00000837,-0.00
 000002,0.00019057,-0.00006321,-0.00004516,-0.00025471,0.00006175,0.000
 14593,-0.00086073,0.00018346,0.00173860,-0.00329247,0.00091189,0.00436
 015,-0.00073525,0.00021048,0.00004220,0.11872100,-0.03368825,-0.273712
 94,0.00032258,-0.00005093,0.00058754,-0.00353788,0.00088968,-0.0029124
 9,0.00012424,-0.00002686,-0.00001709,0.01514584,-0.00425172,-0.0169213
 0,-0.12639012,0.03593423,0.28662291,0.00000113,-0.00000055,0.00000104,
 -0.00000316,-0.00000701,-0.00000015,-0.00000942,0.00000235,0.00000017,
 -0.00000345,-0.00003366,-0.00000241,-0.00002186,0.00006956,0.00000899,
 -0.00001341,-0.00001284,-0.00000014,-0.00000058,-0.00000427,-0.0000007
 5,-0.00000102,-0.00000211,-0.00000026,-0.00000158,-0.00000325,-0.00000
 016,0.00000645,0.00002378,-0.00000041,0.00026738,-0.00007805,0.0000392
 2,0.00005516,0.00007785,-0.00000126,-0.00011520,-0.00005897,-0.0000055
 2,-0.00005678,-0.00002394,0.00000114,-0.00062673,0.00013754,0.00010069
 ,-0.00027942,0.00017272,-0.00126192,-0.00392744,0.00315871,0.00101712,
 -0.00066595,-0.00013395,0.00063932,-0.00958975,0.00348877,-0.02717832,
 -0.00040933,0.00220344,0.00307029,0.00002971,-0.00029875,-0.00010560,-
 0.12445716,0.02233689,-0.11947292,0.00079351,-0.00140682,0.00034430,0.
 01110316,-0.00185137,0.01522391,0.00037570,-0.00011248,0.00071812,0.12
 714600,0.00000017,0.00000062,0.00000156,0.00000065,0.00000106,-0.00000
 123,0.00000068,-0.00000047,0.00000027,0.00000458,0.00000583,-0.0000006
 3,0.00000076,-0.00001298,0.00000513,0.00000047,0.00000090,-0.00000022,
 -0.00000012,0.00000019,-0.00000041,0.00000013,0.00000059,-0.00000007,0
 .00000046,0.00000062,0.00000009,-0.00000197,-0.00000553,0.00000034,-0.
 00006723,0.00000927,-0.00002230,-0.00001467,-0.00001897,0.00000112,0.0
 0003288,0.00001476,0.00000356,0.00001619,0.00000573,-0.00000075,0.0001
 2894,-0.00018305,-0.00002569,0.00018288,0.00031645,0.00035067,0.003146
 30,0.00682715,-0.00031553,-0.00012334,-0.00112565,-0.00017192,0.003647
 10,0.00288280,0.00738987,0.00219989,0.00699000,-0.00090872,-0.00029790
 ,-0.00098069,0.00003663,0.02235704,-0.04506297,0.03093417,-0.00140854,
 -0.00402082,-0.00006595,-0.00204501,0.00448833,-0.00428745,-0.00012153
 ,-0.00002372,-0.00020100,-0.02638905,0.03373767,0.00000046,0.00000074,
 -0.00000020,-0.00000238,-0.00000255,0.00000022,-0.00000598,0.00000052,
 0.00000020,-0.00000035,-0.00001863,0.00000022,-0.00001806,0.00002698,-
 0.00000124,-0.00000899,-0.00000462,0.00000120,-0.00000004,-0.00000213,
 -0.00000024,-0.00000071,-0.00000125,-0.00000009,-0.00000106,-0.0000019
 0,-0.00000008,0.00000255,0.00001327,-0.00000003,0.00016343,-0.00004513
 ,-0.00000953,0.00002221,0.00002650,0.00000012,-0.00004407,-0.00002264,
 0.00000106,-0.00002361,-0.00000835,-0.00000007,-0.00019037,0.00006435,
 -0.00004466,0.00025536,-0.00006424,0.00014711,0.00085231,-0.00025625,0
 .00173545,0.00074014,-0.00019775,0.00003954,0.00332159,-0.00091189,0.0
 0439935,0.00350041,-0.00101439,-0.00292524,-0.00012138,0.00003951,-0.0
 0001686,-0.11970339,0.03096642,-0.27320708,-0.00030817,0.00011033,0.00
 058759,-0.01526990,0.00402179,-0.01692250,-0.00072423,0.00019130,-0.00
 096319,0.12747816,-0.03292035,0.28609538,0.00000011,0.00000045,-0.0000
 0002,-0.00000171,-0.00000266,0.,-0.00000411,0.00000095,0.,-0.00000212,
 -0.00001519,-0.00000003,-0.00000866,0.00002726,0.00000007,-0.00000677,
 -0.00000562,0.00000007,0.00000006,-0.00000192,-0.00000001,-0.00000072,
 -0.00000124,0.,-0.00000095,-0.00000142,0.,0.00000228,0.00001168,0.0000
 0003,0.00013784,-0.00002749,-0.00000027,0.00002430,0.00003232,0.000000
 10,-0.00004938,-0.00002649,-0.00000005,-0.00002569,-0.00000999,-0.0000
 0002,-0.00024876,0.00011426,0.00000009,0.00008510,-0.00036800,0.000002
 52,0.00039413,-0.00037984,-0.00000191,0.00104429,0.00179690,-0.0027242
 4,0.00106945,0.00182584,0.00267542,-0.00888754,0.00367690,0.00329502,-
 0.00057780,0.00010894,0.00017382,-0.00876514,0.00360203,-0.00326805,-0
 .00057146,0.00010518,-0.00017196,-0.32294592,0.07706151,0.00022808,0.0
 0040675,-0.00125120,-0.00006791,0.00040404,-0.00124975,0.00008606,0.33
 852839,-0.00000038,0.00000047,0.00000008,0.00000041,0.00000023,-0.0000
 0004,0.00000275,-0.00000100,0.00000003,0.00000098,0.00000679,-0.000000
 02,0.00001775,-0.00000863,0.00000008,0.00000226,-0.00000206,-0.0000001
 2,-0.00000025,-0.00000009,0.,-0.00000003,0.00000040,0.,0.00000037,0.00
 000097,0.,-0.00000260,-0.00000181,-0.00000002,-0.00003502,0.00005340,-
 0.00000029,-0.00000834,-0.00000059,0.00000001,0.00000720,-0.00000186,0
 .00000006,0.00000562,-0.00000027,-0.00000001,0.00010002,0.00011357,-0.
 00000072,-0.00035511,-0.00118276,0.00000969,-0.00038947,-0.00092706,-0
 .00000199,0.00178433,0.00723066,0.00068008,0.00180544,0.00721497,-0.00
 082163,0.00348911,0.00358711,-0.00090595,0.00010664,-0.00019846,-0.000
 04697,0.00380330,0.00350962,0.00089807,0.00012121,-0.00020183,0.000050
 38,0.07706919,-0.06113756,-0.00018328,-0.00124741,-0.00384936,0.000051
 40,-0.00125455,-0.00384712,0.00001034,-0.08502342,0.04964227,0.,0.,0.0
 0000049,0.,0.,-0.00000034,0.,0.,0.00000039,0.,0.,-0.00000083,-0.000000
 11,-0.00000002,0.00000031,0.00000003,0.00000004,-0.00000015,0.,0.,-0.0
 0000007,0.,0.,0.00000002,0.,0.,0.00000002,0.00000002,-0.00000002,-0.00
 000076,-0.00000022,-0.00000029,-0.00000858,-0.00000002,-0.00000010,0.0
 0000007,0.00000011,0.00000010,0.00000127,0.00000004,0.00000004,-0.0000
 0016,0.00000015,-0.00000100,-0.00000063,0.00000234,0.00000861,0.000182
 08,-0.00000104,0.00000095,-0.00107230,-0.00239859,0.00057187,-0.004451
 51,0.00235057,-0.00071464,-0.00446032,-0.02704155,0.00736467,0.0045267
 6,-0.00127722,0.00034437,0.00009278,0.02706488,-0.00737245,0.00448068,
 0.00127850,-0.00034122,0.00009110,0.00023109,-0.00018440,-0.05941840,0
 .00063044,-0.00013614,0.00108288,-0.00061266,0.00019880,0.00108355,-0.
 00022678,0.00026081,0.05787165\\0.00000779,-0.00000997,0.00000095,0.00
 000210,-0.00001048,0.00000037,0.00000839,-0.00001209,-0.00000044,-0.00
 000219,-0.00002717,-0.00000058,0.00000194,-0.00000207,-0.00000001,0.00
 000208,-0.00000283,0.00000121,0.00000805,-0.00000221,0.00000049,0.0000
 0707,-0.00000916,0.00000114,0.00000255,-0.00001361,0.00000070,-0.00000
 043,-0.00000542,0.00000014,-0.00001557,-0.00001538,-0.00000405,0.00003
 518,-0.00000218,0.00000594,-0.00002643,-0.00000661,0.00000018,-0.00001
 676,-0.00000212,-0.00000459,0.00000408,0.00000806,0.00000042,-0.000003
 29,0.00000038,-0.00000036,-0.00000368,0.00000815,0.00000078,-0.0000048
 9,0.00000600,-0.00000313,-0.00000429,0.00000765,0.00000155,0.00000053,
 0.00001065,-0.00000013,-0.00000139,0.00000733,0.00000027,0.00000059,0.
 00001242,0.00000035,-0.00000200,0.00000855,-0.00000046,-0.00000028,0.0
 0001128,-0.00000046,0.00000034,0.00001190,-0.00000025,-0.00000017,0.00
 001325,-0.00000012,0.00000067,0.00001568,0.00000008\\\@


 SUCCESS IS COUNTED SWEETEST
 BY THOSE WHO NE'ER SUCCEED.
 TO COMPREHEND NECTAR
 REQUIRES SOREST NEED.
           EMILY DICKINSON
 Job cpu time:       0 days  6 hours  3 minutes 49.2 seconds.
 Elapsed time:       0 days  0 hours 15 minutes 14.9 seconds.
 File lengths (MBytes):  RWF=   1136 Int=      0 D2E=      0 Chk=     40 Scr=     16
 Normal termination of Gaussian 16 at Fri Mar  8 12:57:21 2019.
