Job Start Time: Fri Mar  8 12:21:47 MST 2019
SLURM Job ID: 1963761
SLURM Job Name: TolSH
 Entering Gaussian System, Link 0=/projects/rpaton@colostate.edu/g16/g16
 Initial command:
 /projects/rpaton@colostate.edu/g16/l1.exe "/gpfs/summit/scratch/jvalegre@colostate.edu/1963761/Gau-300724.inp" -scrdir="/gpfs/summit/scratch/jvalegre@colostate.edu/1963761/"
 Entering Link 1 = /projects/rpaton@colostate.edu/g16/l1.exe PID=    300725.
  
 Copyright (c) 1988-2017, Gaussian, Inc.  All Rights Reserved.
  
 This is part of the Gaussian(R) 16 program.  It is based on
 the Gaussian(R) 09 system (copyright 2009, Gaussian, Inc.),
 the Gaussian(R) 03 system (copyright 2003, Gaussian, Inc.),
 the Gaussian(R) 98 system (copyright 1998, Gaussian, Inc.),
 the Gaussian(R) 94 system (copyright 1995, Gaussian, Inc.),
 the Gaussian 92(TM) system (copyright 1992, Gaussian, Inc.),
 the Gaussian 90(TM) system (copyright 1990, Gaussian, Inc.),
 the Gaussian 88(TM) system (copyright 1988, Gaussian, Inc.),
 the Gaussian 86(TM) system (copyright 1986, Carnegie Mellon
 University), and the Gaussian 82(TM) system (copyright 1983,
 Carnegie Mellon University). Gaussian is a federally registered
 trademark of Gaussian, Inc.
  
 This software contains proprietary and confidential information,
 including trade secrets, belonging to Gaussian, Inc.
  
 This software is provided under written license and may be
 used, copied, transmitted, or stored only in accord with that
 written license.
  
 The following legend is applicable only to US Government
 contracts under FAR:
  
                    RESTRICTED RIGHTS LEGEND
  
 Use, reproduction and disclosure by the US Government is
 subject to restrictions as set forth in subparagraphs (a)
 and (c) of the Commercial Computer Software - Restricted
 Rights clause in FAR 52.227-19.
  
 Gaussian, Inc.
 340 Quinnipiac St., Bldg. 40, Wallingford CT 06492
  
  
 ---------------------------------------------------------------
 Warning -- This program may not be used in any manner that
 competes with the business of Gaussian, Inc. or will provide
 assistance to any competitor of Gaussian, Inc.  The licensee
 of this program is prohibited from giving any competitor of
 Gaussian, Inc. access to this program.  By using this program,
 the user acknowledges that Gaussian, Inc. is engaged in the
 business of creating and licensing software in the field of
 computational chemistry and represents and warrants to the
 licensee that it is not a competitor of Gaussian, Inc. and that
 it will not use this program in any manner prohibited above.
 ---------------------------------------------------------------
  

 Cite this work as:
 Gaussian 16, Revision B.01,
 M. J. Frisch, G. W. Trucks, H. B. Schlegel, G. E. Scuseria, 
 M. A. Robb, J. R. Cheeseman, G. Scalmani, V. Barone, 
 G. A. Petersson, H. Nakatsuji, X. Li, M. Caricato, A. V. Marenich, 
 J. Bloino, B. G. Janesko, R. Gomperts, B. Mennucci, H. P. Hratchian, 
 J. V. Ortiz, A. F. Izmaylov, J. L. Sonnenberg, D. Williams-Young, 
 F. Ding, F. Lipparini, F. Egidi, J. Goings, B. Peng, A. Petrone, 
 T. Henderson, D. Ranasinghe, V. G. Zakrzewski, J. Gao, N. Rega, 
 G. Zheng, W. Liang, M. Hada, M. Ehara, K. Toyota, R. Fukuda, 
 J. Hasegawa, M. Ishida, T. Nakajima, Y. Honda, O. Kitao, H. Nakai, 
 T. Vreven, K. Throssell, J. A. Montgomery, Jr., J. E. Peralta, 
 F. Ogliaro, M. J. Bearpark, J. J. Heyd, E. N. Brothers, K. N. Kudin, 
 V. N. Staroverov, T. A. Keith, R. Kobayashi, J. Normand, 
 K. Raghavachari, A. P. Rendell, J. C. Burant, S. S. Iyengar, 
 J. Tomasi, M. Cossi, J. M. Millam, M. Klene, C. Adamo, R. Cammi, 
 J. W. Ochterski, R. L. Martin, K. Morokuma, O. Farkas, 
 J. B. Foresman, and D. J. Fox, Gaussian, Inc., Wallingford CT, 2016.
 
 ******************************************
 Gaussian 16:  ES64L-G16RevB.01 20-Dec-2017
                 8-Mar-2019 
 ******************************************
 %chk=Aro_anti_DATS_NH_TS_opt.chk
 %mem=98GB
 %nprocshared=24
 Will use up to   24 processors via shared memory.
 ----------------------------------------------------------------------
 # opt=maxcycles=200 freq=noraman wb97xd/6-311+g(d,p) geom=connectivity
  scrf=(solvent=n,n-DiMethylAcetamide,smd)
 ----------------------------------------------------------------------
 1/6=200,18=20,19=15,26=3,38=1,57=2/1,3;
 2/9=110,12=2,17=6,18=5,40=1/2;
 3/5=4,6=6,7=111,11=2,25=1,30=1,70=32201,71=1,72=147,74=-58/1,2,3;
 4//1;
 5/5=2,38=5,53=147/2;
 6/7=2,8=2,9=2,10=2,28=1/1;
 7//1,2,3,16;
 1/6=200,18=20,19=15,26=3/3(2);
 2/9=110/2;
 99//99;
 2/9=110/2;
 3/5=4,6=6,7=111,11=2,25=1,30=1,70=32205,71=1,72=147,74=-58/1,2,3;
 4/5=5,16=3,69=1/1;
 5/5=2,38=5,53=147/2;
 7//1,2,3,16;
 1/6=200,18=20,19=15,26=3/3(-5);
 2/9=110/2;
 6/7=2,8=2,9=2,10=2,19=2,28=1/1;
 99/9=1/99;
 -------------------
 Title Card Required
 -------------------
 Symbolic Z-matrix:
 Charge =  0 Multiplicity = 1
 H                     2.99346  -1.13087   0.52295 
 C                     0.29114  -1.19914  -0.01907 
 C                     0.99484   0.00311   0.00744 
 C                     0.28667   1.20232   0.01624 
 C                    -1.10198   1.19275  -0.0015 
 C                    -1.81965  -0.00172  -0.01038 
 C                    -1.09686  -1.19407  -0.01676 
 H                     0.82368  -2.14364  -0.04746 
 H                     0.81955   2.14652   0.04368 
 H                    -1.6359    2.1381    0.00011 
 H                    -1.62757  -2.14119  -0.03209 
 S                     2.77585   0.07288  -0.03105 
 C                    -3.3257   -0.00569   0.01328 
 H                    -3.69751  -0.01606   1.04281 
 H                    -3.73209   0.88216  -0.47626 
 H                    -3.728    -0.88643  -0.49242 
 

 GradGradGradGradGradGradGradGradGradGradGradGradGradGradGradGradGradGrad
 Berny optimization.
 Initialization pass.
                           ----------------------------
                           !    Initial Parameters    !
                           ! (Angstroms and Degrees)  !
 --------------------------                            --------------------------
 ! Name  Definition              Value          Derivative Info.                !
 --------------------------------------------------------------------------------
 ! R1    R(1,12)                 1.3429         estimate D2E/DX2                !
 ! R2    R(2,3)                  1.3933         estimate D2E/DX2                !
 ! R3    R(2,7)                  1.388          estimate D2E/DX2                !
 ! R4    R(2,8)                  1.0847         estimate D2E/DX2                !
 ! R5    R(3,4)                  1.3927         estimate D2E/DX2                !
 ! R6    R(3,12)                 1.7828         estimate D2E/DX2                !
 ! R7    R(4,5)                  1.3888         estimate D2E/DX2                !
 ! R8    R(4,9)                  1.0845         estimate D2E/DX2                !
 ! R9    R(5,6)                  1.3935         estimate D2E/DX2                !
 ! R10   R(5,10)                 1.0857         estimate D2E/DX2                !
 ! R11   R(6,7)                  1.3943         estimate D2E/DX2                !
 ! R12   R(6,13)                 1.5062         estimate D2E/DX2                !
 ! R13   R(7,11)                 1.0858         estimate D2E/DX2                !
 ! R14   R(13,14)                1.0947         estimate D2E/DX2                !
 ! R15   R(13,15)                1.0923         estimate D2E/DX2                !
 ! R16   R(13,16)                1.0924         estimate D2E/DX2                !
 ! A1    A(3,2,7)              120.1237         estimate D2E/DX2                !
 ! A2    A(3,2,8)              120.2587         estimate D2E/DX2                !
 ! A3    A(7,2,8)              119.6167         estimate D2E/DX2                !
 ! A4    A(2,3,4)              119.0975         estimate D2E/DX2                !
 ! A5    A(2,3,12)             122.5416         estimate D2E/DX2                !
 ! A6    A(4,3,12)             118.3204         estimate D2E/DX2                !
 ! A7    A(3,4,5)              120.1591         estimate D2E/DX2                !
 ! A8    A(3,4,9)              119.9974         estimate D2E/DX2                !
 ! A9    A(5,4,9)              119.8422         estimate D2E/DX2                !
 ! A10   A(4,5,6)              121.3954         estimate D2E/DX2                !
 ! A11   A(4,5,10)             119.0584         estimate D2E/DX2                !
 ! A12   A(6,5,10)             119.5442         estimate D2E/DX2                !
 ! A13   A(5,6,7)              117.7789         estimate D2E/DX2                !
 ! A14   A(5,6,13)             121.1379         estimate D2E/DX2                !
 ! A15   A(7,6,13)             121.0726         estimate D2E/DX2                !
 ! A16   A(2,7,6)              121.433          estimate D2E/DX2                !
 ! A17   A(2,7,11)             119.0496         estimate D2E/DX2                !
 ! A18   A(6,7,11)             119.5135         estimate D2E/DX2                !
 ! A19   A(1,12,3)              96.7707         estimate D2E/DX2                !
 ! A20   A(6,13,14)            110.7579         estimate D2E/DX2                !
 ! A21   A(6,13,15)            111.2741         estimate D2E/DX2                !
 ! A22   A(6,13,16)            111.2897         estimate D2E/DX2                !
 ! A23   A(14,13,15)           107.6286         estimate D2E/DX2                !
 ! A24   A(14,13,16)           107.6173         estimate D2E/DX2                !
 ! A25   A(15,13,16)           108.1109         estimate D2E/DX2                !
 ! D1    D(7,2,3,4)             -0.9349         estimate D2E/DX2                !
 ! D2    D(7,2,3,12)          -178.5789         estimate D2E/DX2                !
 ! D3    D(8,2,3,4)            178.7068         estimate D2E/DX2                !
 ! D4    D(8,2,3,12)             1.0628         estimate D2E/DX2                !
 ! D5    D(3,2,7,6)              1.0662         estimate D2E/DX2                !
 ! D6    D(3,2,7,11)          -179.6627         estimate D2E/DX2                !
 ! D7    D(8,2,7,6)           -178.5778         estimate D2E/DX2                !
 ! D8    D(8,2,7,11)             0.6932         estimate D2E/DX2                !
 ! D9    D(2,3,4,5)             -0.0105         estimate D2E/DX2                !
 ! D10   D(2,3,4,9)            179.5811         estimate D2E/DX2                !
 ! D11   D(12,3,4,5)           177.7333         estimate D2E/DX2                !
 ! D12   D(12,3,4,9)            -2.675          estimate D2E/DX2                !
 ! D13   D(2,3,12,1)           -26.7986         estimate D2E/DX2                !
 ! D14   D(4,3,12,1)           155.54           estimate D2E/DX2                !
 ! D15   D(3,4,5,6)              0.8625         estimate D2E/DX2                !
 ! D16   D(3,4,5,10)          -179.6597         estimate D2E/DX2                !
 ! D17   D(9,4,5,6)           -178.7298         estimate D2E/DX2                !
 ! D18   D(9,4,5,10)             0.748          estimate D2E/DX2                !
 ! D19   D(4,5,6,7)             -0.7383         estimate D2E/DX2                !
 ! D20   D(4,5,6,13)           178.0934         estimate D2E/DX2                !
 ! D21   D(10,5,6,7)           179.7864         estimate D2E/DX2                !
 ! D22   D(10,5,6,13)           -1.382          estimate D2E/DX2                !
 ! D23   D(5,6,7,2)             -0.2258         estimate D2E/DX2                !
 ! D24   D(5,6,7,11)          -179.4936         estimate D2E/DX2                !
 ! D25   D(13,6,7,2)          -179.0583         estimate D2E/DX2                !
 ! D26   D(13,6,7,11)            1.674          estimate D2E/DX2                !
 ! D27   D(5,6,13,14)          -89.5553         estimate D2E/DX2                !
 ! D28   D(5,6,13,15)           30.1232         estimate D2E/DX2                !
 ! D29   D(5,6,13,16)          150.7702         estimate D2E/DX2                !
 ! D30   D(7,6,13,14)           89.2378         estimate D2E/DX2                !
 ! D31   D(7,6,13,15)         -151.0838         estimate D2E/DX2                !
 ! D32   D(7,6,13,16)          -30.4367         estimate D2E/DX2                !
 --------------------------------------------------------------------------------
 Trust Radius=3.00D-01 FncErr=1.00D-07 GrdErr=1.00D-06 EigMax=2.50D+02 EigMin=1.00D-04
 Number of steps in this run=    100 maximum allowed number of steps=    100.
 GradGradGradGradGradGradGradGradGradGradGradGradGradGradGradGradGradGrad

                          Input orientation:                          
 ---------------------------------------------------------------------
 Center     Atomic      Atomic             Coordinates (Angstroms)
 Number     Number       Type             X           Y           Z
 ---------------------------------------------------------------------
      1          1           0        2.993456   -1.130868    0.522951
      2          6           0        0.291138   -1.199141   -0.019069
      3          6           0        0.994835    0.003105    0.007437
      4          6           0        0.286671    1.202324    0.016237
      5          6           0       -1.101979    1.192752   -0.001496
      6          6           0       -1.819645   -0.001715   -0.010380
      7          6           0       -1.096861   -1.194069   -0.016764
      8          1           0        0.823677   -2.143642   -0.047464
      9          1           0        0.819547    2.146518    0.043675
     10          1           0       -1.635901    2.138102    0.000112
     11          1           0       -1.627574   -2.141194   -0.032094
     12         16           0        2.775852    0.072876   -0.031050
     13          6           0       -3.325699   -0.005686    0.013284
     14          1           0       -3.697513   -0.016064    1.042807
     15          1           0       -3.732094    0.882157   -0.476256
     16          1           0       -3.727998   -0.886431   -0.492419
 ---------------------------------------------------------------------
                    Distance matrix (angstroms):
                    1          2          3          4          5
     1  H    0.000000
     2  C    2.756986   0.000000
     3  C    2.355023   1.393301   0.000000
     4  C    3.609325   2.401729   1.392731   0.000000
     5  C    4.737810   2.768074   2.410803   1.388796   0.000000
     6  C    4.972461   2.426790   2.814541   2.426311   1.393512
     7  C    4.126255   1.388010   2.410187   2.767300   2.386875
     8  H    2.461509   1.084659   2.154259   3.389384   3.852504
     9  H    3.961924   3.387711   2.150874   1.084533   2.145687
    10  H    5.691263   3.853704   3.388073   2.138276   1.085708
    11  H    4.762641   2.137543   3.387715   3.853023   3.375260
    12  S    1.342858   2.791411   1.782799   2.733845   4.036405
    13  C    6.438751   3.808791   4.320547   3.809004   2.526144
    14  H    6.803095   4.293785   4.805256   4.290925   3.047721
    15  H    7.091101   4.552715   4.832241   4.061469   2.690608
    16  H    6.802108   4.058978   4.831799   4.554031   3.385260
                    6          7          8          9         10
     6  C    0.000000
     7  C    1.394333   0.000000
     8  H    3.402408   2.142685   0.000000
     9  H    3.403404   3.851726   4.291130   0.000000
    10  H    2.147717   3.375531   4.938129   2.455849   0.000000
    11  H    2.148193   1.085789   2.451300   4.937471   4.279425
    12  S    4.596149   4.074710   2.953677   2.851790   4.871313
    13  C    1.506245   2.526040   4.668176   4.670757   2.729729
    14  H    2.153090   3.045288   5.114337   5.106746   3.158780
    15  H    2.157714   3.386193   5.485834   4.752512   2.489648
    16  H    2.157984   2.691425   4.743027   5.492389   3.710425
                   11         12         13         14         15
    11  H    0.000000
    12  S    4.928719   0.000000
    13  C    2.728751   6.102218   0.000000
    14  H    3.155351   6.562434   1.094656   0.000000
    15  H    3.710382   6.573166   1.092278   1.765092   0.000000
    16  H    2.489600   6.590387   1.092379   1.765046   1.768667
                   16
    16  H    0.000000
 Stoichiometry    C7H8S
 Framework group  C1[X(C7H8S)]
 Deg. of freedom    42
 Full point group                 C1      NOp   1
 Largest Abelian subgroup         C1      NOp   1
 Largest concise Abelian subgroup C1      NOp   1
                         Standard orientation:                         
 ---------------------------------------------------------------------
 Center     Atomic      Atomic             Coordinates (Angstroms)
 Number     Number       Type             X           Y           Z
 ---------------------------------------------------------------------
      1          1           0       -2.993456    1.130869    0.522951
      2          6           0       -0.291138    1.199141   -0.019069
      3          6           0       -0.994835   -0.003105    0.007437
      4          6           0       -0.286671   -1.202324    0.016237
      5          6           0        1.101979   -1.192752   -0.001496
      6          6           0        1.819645    0.001715   -0.010380
      7          6           0        1.096861    1.194069   -0.016764
      8          1           0       -0.823677    2.143642   -0.047464
      9          1           0       -0.819547   -2.146518    0.043675
     10          1           0        1.635901   -2.138102    0.000112
     11          1           0        1.627574    2.141194   -0.032094
     12         16           0       -2.775852   -0.072875   -0.031050
     13          6           0        3.325699    0.005686    0.013284
     14          1           0        3.697513    0.016064    1.042807
     15          1           0        3.732094   -0.882157   -0.476256
     16          1           0        3.727998    0.886431   -0.492419
 ---------------------------------------------------------------------
 Rotational constants (GHZ):           5.4826894           0.9710399           0.8300528
 Standard basis: 6-311+G(d,p) (5D, 7F)
 There are   240 symmetry adapted cartesian basis functions of A   symmetry.
 There are   232 symmetry adapted basis functions of A   symmetry.
   232 basis functions,   366 primitive gaussians,   240 cartesian basis functions
    33 alpha electrons       33 beta electrons
       nuclear repulsion energy       395.4705757890 Hartrees.
 NAtoms=   16 NActive=   16 NUniq=   16 SFac= 1.00D+00 NAtFMM=   60 NAOKFM=F Big=F
 Integral buffers will be    131072 words long.
 Raffenetti 2 integral format.
 Two-electron integral symmetry is turned on.
 Nuclear repulsion after empirical dispersion term =      395.4631276852 Hartrees.
 ------------------------------------------------------------------------------
 Polarizable Continuum Model (PCM)
 =================================
 Model                : PCM.
 Atomic radii         : SMD-Coulomb.
 Polarization charges : Total charges.
 Charge compensation  : None.
 Solution method      : On-the-fly selection.
 Cavity type          : VdW (van der Waals Surface) (Alpha=1.000).
 Cavity algorithm     : GePol (No added spheres)
                        Default sphere list used, NSphG=   16.
                        Lebedev-Laikov grids with approx.  5.0 points / Ang**2.
                        Smoothing algorithm: York/Karplus (Gamma=1.0000).
                        Polarization charges: spherical gaussians, with
                                              point-specific exponents (IZeta= 3).
                        Self-potential: point-specific (ISelfS= 7).
                        Self-field    : sphere-specific E.n sum rule (ISelfD= 2).
 1st derivatives      : Analytical E(r).r(x)/FMM algorithm (CHGder, D1EAlg=3).
                        Cavity 1st derivative terms included.
 Solvent              : n,n-DiMethylAcetamide, Eps=  37.781000 Eps(inf)=   2.067844
 ------------------------------------------------------------------------------
 Spheres list:
 ISph  on   Nord     Re0    Alpha      Xe            Ye            Ze
    1   H      1    1.2000  1.000     -2.993456      1.130869      0.522951
    2   C      2    1.8500  1.000     -0.291138      1.199141     -0.019069
    3   C      3    1.8500  1.000     -0.994835     -0.003105      0.007437
    4   C      4    1.8500  1.000     -0.286671     -1.202324      0.016237
    5   C      5    1.8500  1.000      1.101979     -1.192752     -0.001496
    6   C      6    1.8500  1.000      1.819645      0.001715     -0.010380
    7   C      7    1.8500  1.000      1.096861      1.194069     -0.016764
    8   H      8    1.2000  1.000     -0.823677      2.143642     -0.047464
    9   H      9    1.2000  1.000     -0.819547     -2.146518      0.043675
   10   H     10    1.2000  1.000      1.635901     -2.138102      0.000112
   11   H     11    1.2000  1.000      1.627574      2.141194     -0.032094
   12   S     12    2.4900  1.000     -2.775852     -0.072875     -0.031050
   13   C     13    1.8500  1.000      3.325699      0.005686      0.013284
   14   H     14    1.2000  1.000      3.697513      0.016064      1.042807
   15   H     15    1.2000  1.000      3.732094     -0.882157     -0.476256
   16   H     16    1.2000  1.000      3.727998      0.886431     -0.492419
 ------------------------------------------------------------------------------
 ------------------------------------------------------------------------------
 Atomic radii for non-electrostatic terms: SMD-CDS.
 ------------------------------------------------------------------------------
 Nuclear repulsion after PCM non-electrostatic terms =      395.4604973585 Hartrees.
 One-electron integrals computed using PRISM.
 NBasis=   232 RedAO= T EigKep=  2.60D-06  NBF=   232
 NBsUse=   232 1.00D-06 EigRej= -1.00D+00 NBFU=   232
 ExpMin= 4.05D-02 ExpMax= 9.34D+04 ExpMxC= 3.17D+03 IAcc=3 IRadAn=         5 AccDes= 0.00D+00
 Harris functional with IExCor= 4639 and IRadAn=       5 diagonalized for initial guess.
 HarFok:  IExCor= 4639 AccDes= 0.00D+00 IRadAn=         5 IDoV= 1 UseB2=F ITyADJ=14
 ICtDFT=  3500011 ScaDFX=  1.000000  1.000000  1.000000  1.000000
 FoFCou: FMM=F IPFlag=           0 FMFlag=      100000 FMFlg1=           0
         NFxFlg=           0 DoJE=T BraDBF=F KetDBF=T FulRan=T
         wScrn=  0.000000 ICntrl=       500 IOpCl=  0 I1Cent=   200000004 NGrid=           0
         NMat0=    1 NMatS0=      1 NMatT0=    0 NMatD0=    1 NMtDS0=    0 NMtDT0=    0
 Petite list used in FoFCou.
 Requested convergence on RMS density matrix=1.00D-08 within 128 cycles.
 Requested convergence on MAX density matrix=1.00D-06.
 Requested convergence on             energy=1.00D-06.
 No special actions if energy rises.
 Inv3:  Mode=1 IEnd=     5721483.
 Iteration    1 A*A^-1 deviation from unit magnitude is 5.55D-15 for    409.
 Iteration    1 A*A^-1 deviation from orthogonality  is 2.60D-15 for    808     56.
 Iteration    1 A^-1*A deviation from unit magnitude is 5.55D-15 for    409.
 Iteration    1 A^-1*A deviation from orthogonality  is 1.67D-15 for   1369   1227.
 Error on total polarization charges =  0.03629
 SCF Done:  E(RwB97XD) =  -669.744183112     A.U. after   16 cycles
            NFock= 16  Conv=0.74D-08     -V/T= 2.0026
 SMD-CDS (non-electrostatic) energy       (kcal/mol) =      -1.65
 (included in total energy above)

 **********************************************************************

            Population analysis using the SCF Density.

 **********************************************************************

 Orbital symmetries:
       Occupied  (A) (A) (A) (A) (A) (A) (A) (A) (A) (A) (A) (A)
                 (A) (A) (A) (A) (A) (A) (A) (A) (A) (A) (A) (A)
                 (A) (A) (A) (A) (A) (A) (A) (A) (A)
       Virtual   (A) (A) (A) (A) (A) (A) (A) (A) (A) (A) (A) (A)
                 (A) (A) (A) (A) (A) (A) (A) (A) (A) (A) (A) (A)
                 (A) (A) (A) (A) (A) (A) (A) (A) (A) (A) (A) (A)
                 (A) (A) (A) (A) (A) (A) (A) (A) (A) (A) (A) (A)
                 (A) (A) (A) (A) (A) (A) (A) (A) (A) (A) (A) (A)
                 (A) (A) (A) (A) (A) (A) (A) (A) (A) (A) (A) (A)
                 (A) (A) (A) (A) (A) (A) (A) (A) (A) (A) (A) (A)
                 (A) (A) (A) (A) (A) (A) (A) (A) (A) (A) (A) (A)
                 (A) (A) (A) (A) (A) (A) (A) (A) (A) (A) (A) (A)
                 (A) (A) (A) (A) (A) (A) (A) (A) (A) (A) (A) (A)
                 (A) (A) (A) (A) (A) (A) (A) (A) (A) (A) (A) (A)
                 (A) (A) (A) (A) (A) (A) (A) (A) (A) (A) (A) (A)
                 (A) (A) (A) (A) (A) (A) (A) (A) (A) (A) (A) (A)
                 (A) (A) (A) (A) (A) (A) (A) (A) (A) (A) (A) (A)
                 (A) (A) (A) (A) (A) (A) (A) (A) (A) (A) (A) (A)
                 (A) (A) (A) (A) (A) (A) (A) (A) (A) (A) (A) (A)
                 (A) (A) (A) (A) (A) (A) (A)
 The electronic state is 1-A.
 Alpha  occ. eigenvalues --  -89.02264 -10.32637 -10.29711 -10.29228 -10.29182
 Alpha  occ. eigenvalues --  -10.28736 -10.28719 -10.27127  -8.06435  -6.01345
 Alpha  occ. eigenvalues --   -6.00960  -6.00363  -0.97516  -0.90127  -0.85235
 Alpha  occ. eigenvalues --   -0.83309  -0.76275  -0.70931  -0.67414  -0.59077
 Alpha  occ. eigenvalues --   -0.56363  -0.54134  -0.50890  -0.50674  -0.50021
 Alpha  occ. eigenvalues --   -0.46827  -0.46467  -0.44597  -0.42300  -0.41477
 Alpha  occ. eigenvalues --   -0.37107  -0.33837  -0.29550
 Alpha virt. eigenvalues --    0.04597   0.04982   0.05920   0.07309   0.08324
 Alpha virt. eigenvalues --    0.08433   0.10162   0.10243   0.10477   0.10975
 Alpha virt. eigenvalues --    0.11105   0.12745   0.13144   0.14258   0.14460
 Alpha virt. eigenvalues --    0.15701   0.16069   0.16937   0.17534   0.19307
 Alpha virt. eigenvalues --    0.19624   0.20214   0.20288   0.20916   0.22249
 Alpha virt. eigenvalues --    0.22672   0.22744   0.23922   0.24556   0.25363
 Alpha virt. eigenvalues --    0.25666   0.26399   0.27681   0.28110   0.28203
 Alpha virt. eigenvalues --    0.28571   0.29809   0.29946   0.30620   0.31493
 Alpha virt. eigenvalues --    0.32803   0.33529   0.33957   0.34756   0.35006
 Alpha virt. eigenvalues --    0.37685   0.38984   0.39746   0.41818   0.42564
 Alpha virt. eigenvalues --    0.45159   0.45714   0.51120   0.52085   0.53819
 Alpha virt. eigenvalues --    0.54667   0.57549   0.59661   0.61145   0.61771
 Alpha virt. eigenvalues --    0.63253   0.64071   0.65705   0.65952   0.66909
 Alpha virt. eigenvalues --    0.69332   0.70497   0.70967   0.72160   0.73066
 Alpha virt. eigenvalues --    0.73908   0.75802   0.77244   0.77507   0.79737
 Alpha virt. eigenvalues --    0.80903   0.82209   0.82732   0.85084   0.87190
 Alpha virt. eigenvalues --    0.88357   0.91214   0.92973   0.94424   0.94593
 Alpha virt. eigenvalues --    0.95863   0.98505   1.00499   1.00997   1.04376
 Alpha virt. eigenvalues --    1.05805   1.06528   1.08597   1.09530   1.13404
 Alpha virt. eigenvalues --    1.14932   1.16367   1.17169   1.22144   1.22423
 Alpha virt. eigenvalues --    1.35516   1.39336   1.44982   1.45346   1.48287
 Alpha virt. eigenvalues --    1.52447   1.56307   1.57927   1.59448   1.61226
 Alpha virt. eigenvalues --    1.62074   1.64419   1.64627   1.66061   1.69097
 Alpha virt. eigenvalues --    1.70252   1.71158   1.74330   1.76892   1.77883
 Alpha virt. eigenvalues --    1.81286   1.82734   1.84430   1.86390   1.89476
 Alpha virt. eigenvalues --    1.90912   1.91962   1.98349   2.00662   2.01626
 Alpha virt. eigenvalues --    2.02097   2.03867   2.06673   2.06932   2.07810
 Alpha virt. eigenvalues --    2.13552   2.15844   2.17045   2.17992   2.24294
 Alpha virt. eigenvalues --    2.27269   2.28560   2.32326   2.41472   2.44346
 Alpha virt. eigenvalues --    2.45765   2.50272   2.50704   2.54593   2.60099
 Alpha virt. eigenvalues --    2.65346   2.68481   2.69091   2.70739   2.73277
 Alpha virt. eigenvalues --    2.75216   2.77304   2.79039   2.81022   2.82363
 Alpha virt. eigenvalues --    2.84148   2.86826   2.88002   2.90550   2.93502
 Alpha virt. eigenvalues --    2.99115   2.99608   3.02087   3.03591   3.04709
 Alpha virt. eigenvalues --    3.19818   3.23540   3.27283   3.34321   3.44993
 Alpha virt. eigenvalues --    3.52760   3.59693   3.69535   3.75982   3.90518
 Alpha virt. eigenvalues --    3.91727   3.93259   4.08576   4.24178   4.24262
 Alpha virt. eigenvalues --    4.43434   4.94617   8.08198  17.44963  17.55276
 Alpha virt. eigenvalues --   17.62907  23.66876  24.04741  24.09146  24.10214
 Alpha virt. eigenvalues --   24.20444  24.24361  24.32971 189.33868
          Condensed to atoms (all electrons):
               1          2          3          4          5          6
     1  H    0.619032   0.091453  -0.098360  -0.043990   0.002185  -0.002190
     2  C    0.091453   8.287411  -0.913859  -1.179258  -0.565388   0.395393
     3  C   -0.098360  -0.913859   8.411221  -0.186885   0.401114  -1.140216
     4  C   -0.043990  -1.179258  -0.186885   8.554661  -0.848704   0.525385
     5  C    0.002185  -0.565388   0.401114  -0.848704   7.855811  -0.876793
     6  C   -0.002190   0.395393  -1.140216   0.525385  -0.876793   8.245727
     7  C   -0.021466  -0.090418  -0.331786  -1.071950  -0.084912  -0.402466
     8  H   -0.001073   0.416149  -0.032615   0.003853  -0.012956   0.017334
     9  H    0.000478   0.011319  -0.045628   0.394960  -0.004005   0.017711
    10  H    0.000002  -0.002692   0.005668  -0.022859   0.384934  -0.025365
    11  H    0.000022  -0.002288   0.004541  -0.007406  -0.003739  -0.021000
    12  S    0.344195  -0.144294  -1.114380   0.816170  -0.054539   0.039458
    13  C   -0.000109  -0.151248   0.161847  -0.413806   0.490535  -1.535901
    14  H   -0.000000  -0.003042  -0.006316  -0.001775  -0.038796   0.129244
    15  H    0.000000   0.004585   0.002847   0.032496   0.169441  -0.149376
    16  H    0.000000   0.031183   0.002226   0.002625  -0.124179  -0.161227
               7          8          9         10         11         12
     1  H   -0.021466  -0.001073   0.000478   0.000002   0.000022   0.344195
     2  C   -0.090418   0.416149   0.011319  -0.002692  -0.002288  -0.144294
     3  C   -0.331786  -0.032615  -0.045628   0.005668   0.004541  -1.114380
     4  C   -1.071950   0.003853   0.394960  -0.022859  -0.007406   0.816170
     5  C   -0.084912  -0.012956  -0.004005   0.384934  -0.003739  -0.054539
     6  C   -0.402466   0.017334   0.017711  -0.025365  -0.021000   0.039458
     7  C    8.117561  -0.032079  -0.017794  -0.006866   0.367232   0.051768
     8  H   -0.032079   0.456555  -0.000070   0.000024  -0.005237  -0.010425
     9  H   -0.017794  -0.000070   0.451775  -0.004976   0.000024  -0.008183
    10  H   -0.006866   0.000024  -0.004976   0.460760  -0.000103   0.000387
    11  H    0.367232  -0.005237   0.000024  -0.000103   0.459999   0.000536
    12  S    0.051768  -0.010425  -0.008183   0.000387   0.000536  16.648218
    13  C    0.196307   0.006845   0.006247   0.024714   0.020555  -0.056590
    14  H   -0.061155   0.000001   0.000010   0.000212   0.000220  -0.000040
    15  H   -0.116637   0.000005  -0.000006  -0.000061   0.000286   0.000105
    16  H    0.180322   0.000001   0.000005   0.000284  -0.000094   0.000034
              13         14         15         16
     1  H   -0.000109  -0.000000   0.000000   0.000000
     2  C   -0.151248  -0.003042   0.004585   0.031183
     3  C    0.161847  -0.006316   0.002847   0.002226
     4  C   -0.413806  -0.001775   0.032496   0.002625
     5  C    0.490535  -0.038796   0.169441  -0.124179
     6  C   -1.535901   0.129244  -0.149376  -0.161227
     7  C    0.196307  -0.061155  -0.116637   0.180322
     8  H    0.006845   0.000001   0.000005   0.000001
     9  H    0.006247   0.000010  -0.000006   0.000005
    10  H    0.024714   0.000212  -0.000061   0.000284
    11  H    0.020555   0.000220   0.000286  -0.000094
    12  S   -0.056590  -0.000040   0.000105   0.000034
    13  C    6.673194   0.347577   0.425631   0.437831
    14  H    0.347577   0.473487  -0.021397  -0.021683
    15  H    0.425631  -0.021397   0.504632  -0.026662
    16  H    0.437831  -0.021683  -0.026662   0.505548
 Mulliken charges:
               1
     1  H    0.109822
     2  C   -0.185007
     3  C    0.880581
     4  C   -0.553520
     5  C   -0.690007
     6  C    0.944282
     7  C   -0.675663
     8  H    0.193687
     9  H    0.198134
    10  H    0.185937
    11  H    0.186452
    12  S   -0.512421
    13  C   -0.633627
    14  H    0.203454
    15  H    0.174110
    16  H    0.173786
 Sum of Mulliken charges =  -0.00000
 Mulliken charges with hydrogens summed into heavy atoms:
               1
     2  C    0.008680
     3  C    0.880581
     4  C   -0.355386
     5  C   -0.504070
     6  C    0.944282
     7  C   -0.489211
    12  S   -0.402599
    13  C   -0.082276
 Electronic spatial extent (au):  <R**2>=           1353.1369
 Charge=             -0.0000 electrons
 Dipole moment (field-independent basis, Debye):
    X=              1.9929    Y=              1.1730    Z=              0.5548  Tot=              2.3781
 Quadrupole moment (field-independent basis, Debye-Ang):
   XX=            -51.9099   YY=            -47.8740   ZZ=            -60.0991
   XY=             -3.8980   XZ=             -1.6268   YZ=              1.1624
 Traceless Quadrupole moment (field-independent basis, Debye-Ang):
   XX=              1.3844   YY=              5.4203   ZZ=             -6.8048
   XY=             -3.8980   XZ=             -1.6268   YZ=              1.1624
 Octapole moment (field-independent basis, Debye-Ang**2):
  XXX=             19.7791  YYY=              2.2294  ZZZ=              1.5327  XYY=             -0.7843
  XXY=             13.1353  XXZ=              6.2171  XZZ=              2.3725  YZZ=              0.6936
  YYZ=             -0.1874  XYZ=             -3.8707
 Hexadecapole moment (field-independent basis, Debye-Ang**3):
 XXXX=          -1432.4123 YYYY=           -287.0435 ZZZZ=            -82.7841 XXXY=            -44.2434
 XXXZ=            -19.2311 YYYX=             -7.3251 YYYZ=              1.2498 ZZZX=              1.0040
 ZZZY=              1.6545 XXYY=           -273.5830 XXZZ=           -269.8509 YYZZ=            -74.8180
 XXYZ=             11.7190 YYXZ=             -4.7902 ZZXY=             -2.0558
 N-N= 3.954604973585D+02 E-N=-2.367907877104D+03  KE= 6.680039299478D+02
 D1PCM: PCM CHGder 1st derivatives, ID1Alg=3 FixD1E=F DoIter=F DoCFld=F I1PDM=0.
 Calling FoFJK, ICntrl=      2127 FMM=F ISym2X=0 I1Cent= 0 IOpClX= 0 NMat=1 NMatS=1 NMatT=0.
 ***** Axes restored to original set *****
 -------------------------------------------------------------------
 Center     Atomic                   Forces (Hartrees/Bohr)
 Number     Number              X              Y              Z
 -------------------------------------------------------------------
      1        1           0.000566533   -0.001329923    0.000046509
      2        6           0.001985129   -0.001546005   -0.000152233
      3        6          -0.001606043    0.000768782   -0.000390915
      4        6           0.001315951    0.000682308    0.000239461
      5        6          -0.000690088    0.001605129    0.000006109
      6        6          -0.002079101   -0.000031150    0.000055948
      7        6          -0.000679520   -0.001129417   -0.000066552
      8        1          -0.000014305   -0.000343621    0.000337924
      9        1          -0.000370345    0.000679361   -0.000207549
     10        1          -0.000016051    0.000081792    0.000042307
     11        1           0.000059610   -0.000078085    0.000025406
     12       16           0.000700976    0.000580843    0.000140410
     13        6           0.000653437    0.000054858   -0.000821730
     14        1          -0.000062416   -0.000013998    0.000298323
     15        1           0.000088419    0.000454238    0.000223164
     16        1           0.000147814   -0.000435110    0.000223418
 -------------------------------------------------------------------
 Cartesian Forces:  Max     0.002079101 RMS     0.000744564

 GradGradGradGradGradGradGradGradGradGradGradGradGradGradGradGradGradGrad
 Berny optimization.
 FormGI is forming the generalized inverse of G from B-inverse, IUseBI=4.
 Internal  Forces:  Max     0.001704596 RMS     0.000567386
 Search for a local minimum.
 Step number   1 out of a maximum of  100
 All quantities printed in internal units (Hartrees-Bohrs-Radians)
 Mixed Optimization -- En-DIIS/RFO-DIIS
 Second derivative matrix not updated -- first step.
 ITU=  0
     Eigenvalues ---    0.00598   0.00683   0.01554   0.01901   0.02174
     Eigenvalues ---    0.02193   0.02197   0.02208   0.02210   0.02217
     Eigenvalues ---    0.02221   0.07121   0.07214   0.15999   0.15999
     Eigenvalues ---    0.16000   0.16000   0.16000   0.16000   0.16000
     Eigenvalues ---    0.16000   0.22000   0.22961   0.23995   0.24979
     Eigenvalues ---    0.24994   0.26195   0.27520   0.31731   0.34280
     Eigenvalues ---    0.34539   0.34551   0.35304   0.35313   0.35437
     Eigenvalues ---    0.35452   0.42643   0.42785   0.46698   0.46730
     Eigenvalues ---    0.47066   0.47601
 RFO step:  Lambda=-2.16885227D-04 EMin= 5.97843231D-03
 Linear search not attempted -- first point.
 Iteration  1 RMS(Cart)=  0.02671524 RMS(Int)=  0.00144536
 Iteration  2 RMS(Cart)=  0.00132050 RMS(Int)=  0.00000485
 Iteration  3 RMS(Cart)=  0.00000184 RMS(Int)=  0.00000475
 Iteration  4 RMS(Cart)=  0.00000000 RMS(Int)=  0.00000475
 Variable       Old X    -DE/DX   Delta X   Delta X   Delta X     New X
                                 (Linear)    (Quad)   (Total)
    R1        2.53763   0.00131   0.00000   0.00498   0.00498   2.54262
    R2        2.63296   0.00104   0.00000   0.00220   0.00220   2.63516
    R3        2.62296   0.00137   0.00000   0.00288   0.00288   2.62584
    R4        2.04971   0.00028   0.00000   0.00080   0.00080   2.05051
    R5        2.63188   0.00146   0.00000   0.00310   0.00310   2.63498
    R6        3.36900   0.00123   0.00000   0.00447   0.00447   3.37347
    R7        2.62444   0.00120   0.00000   0.00253   0.00253   2.62697
    R8        2.04947   0.00040   0.00000   0.00114   0.00114   2.05061
    R9        2.63336   0.00154   0.00000   0.00332   0.00332   2.63668
   R10        2.05169   0.00008   0.00000   0.00022   0.00022   2.05191
   R11        2.63491   0.00170   0.00000   0.00368   0.00368   2.63859
   R12        2.84639  -0.00083   0.00000  -0.00261  -0.00261   2.84378
   R13        2.05184   0.00004   0.00000   0.00011   0.00011   2.05195
   R14        2.06860   0.00030   0.00000   0.00088   0.00088   2.06948
   R15        2.06411   0.00024   0.00000   0.00069   0.00069   2.06480
   R16        2.06430   0.00019   0.00000   0.00055   0.00055   2.06485
    A1        2.09655  -0.00062   0.00000  -0.00272  -0.00273   2.09383
    A2        2.09891   0.00049   0.00000   0.00254   0.00253   2.10144
    A3        2.08770   0.00012   0.00000   0.00022   0.00022   2.08792
    A4        2.07864   0.00088   0.00000   0.00359   0.00359   2.08223
    A5        2.13875  -0.00141   0.00000  -0.00558  -0.00559   2.13316
    A6        2.06508   0.00053   0.00000   0.00217   0.00216   2.06724
    A7        2.09717  -0.00033   0.00000  -0.00144  -0.00144   2.09573
    A8        2.09435   0.00083   0.00000   0.00492   0.00491   2.09926
    A9        2.09164  -0.00051   0.00000  -0.00345  -0.00345   2.08819
   A10        2.11875  -0.00025   0.00000  -0.00099  -0.00099   2.11776
   A11        2.07796   0.00009   0.00000   0.00031   0.00031   2.07827
   A12        2.08644   0.00015   0.00000   0.00068   0.00068   2.08712
   A13        2.05563   0.00028   0.00000   0.00131   0.00131   2.05694
   A14        2.11426  -0.00020   0.00000  -0.00092  -0.00092   2.11334
   A15        2.11312  -0.00008   0.00000  -0.00042  -0.00042   2.11270
   A16        2.11941   0.00003   0.00000   0.00028   0.00028   2.11969
   A17        2.07781  -0.00010   0.00000  -0.00069  -0.00069   2.07711
   A18        2.08590   0.00008   0.00000   0.00044   0.00044   2.08634
   A19        1.68897   0.00091   0.00000   0.00570   0.00570   1.69467
   A20        1.93309  -0.00010   0.00000  -0.00166  -0.00167   1.93142
   A21        1.94210  -0.00013   0.00000  -0.00027  -0.00028   1.94182
   A22        1.94237  -0.00021   0.00000  -0.00081  -0.00081   1.94156
   A23        1.87847  -0.00002   0.00000  -0.00104  -0.00104   1.87743
   A24        1.87828  -0.00001   0.00000  -0.00107  -0.00107   1.87720
   A25        1.88689   0.00049   0.00000   0.00497   0.00497   1.89186
    D1       -0.01632   0.00005   0.00000   0.00271   0.00272  -0.01360
    D2       -3.11679  -0.00006   0.00000  -0.00231  -0.00230  -3.11909
    D3        3.11902   0.00021   0.00000   0.00968   0.00968   3.12871
    D4        0.01855   0.00010   0.00000   0.00466   0.00467   0.02322
    D5        0.01861  -0.00003   0.00000  -0.00111  -0.00111   0.01750
    D6       -3.13571   0.00004   0.00000   0.00174   0.00174  -3.13397
    D7       -3.11677  -0.00019   0.00000  -0.00804  -0.00803  -3.12480
    D8        0.01210  -0.00012   0.00000  -0.00519  -0.00518   0.00692
    D9       -0.00018  -0.00004   0.00000  -0.00248  -0.00249  -0.00267
   D10        3.13428   0.00006   0.00000   0.00221   0.00222   3.13650
   D11        3.10203   0.00002   0.00000   0.00214   0.00215   3.10418
   D12       -0.04669   0.00012   0.00000   0.00684   0.00686  -0.03983
   D13       -0.46772   0.00071   0.00000   0.10714   0.10713  -0.36059
   D14        2.71468   0.00059   0.00000   0.10212   0.10212   2.81681
   D15        0.01505   0.00001   0.00000   0.00063   0.00063   0.01568
   D16       -3.13565   0.00001   0.00000   0.00076   0.00076  -3.13490
   D17       -3.11942  -0.00010   0.00000  -0.00409  -0.00408  -3.12350
   D18        0.01306  -0.00010   0.00000  -0.00396  -0.00395   0.00910
   D19       -0.01289   0.00002   0.00000   0.00099   0.00099  -0.01189
   D20        3.10832  -0.00001   0.00000  -0.00057  -0.00057   3.10775
   D21        3.13786   0.00001   0.00000   0.00086   0.00087   3.13873
   D22       -0.02412  -0.00001   0.00000  -0.00070  -0.00069  -0.02481
   D23       -0.00394  -0.00001   0.00000  -0.00078  -0.00078  -0.00472
   D24       -3.13275  -0.00008   0.00000  -0.00364  -0.00363  -3.13639
   D25       -3.12516   0.00001   0.00000   0.00078   0.00079  -3.12437
   D26        0.02922  -0.00005   0.00000  -0.00207  -0.00207   0.02715
   D27       -1.56303  -0.00000   0.00000   0.00000   0.00000  -1.56303
   D28        0.52575  -0.00019   0.00000  -0.00259  -0.00259   0.52316
   D29        2.63144   0.00021   0.00000   0.00299   0.00299   2.63443
   D30        1.55749  -0.00002   0.00000  -0.00159  -0.00159   1.55591
   D31       -2.63691  -0.00021   0.00000  -0.00418  -0.00418  -2.64109
   D32       -0.53122   0.00019   0.00000   0.00140   0.00140  -0.52982
         Item               Value     Threshold  Converged?
 Maximum Force            0.001705     0.000450     NO 
 RMS     Force            0.000567     0.000300     NO 
 Maximum Displacement     0.171926     0.001800     NO 
 RMS     Displacement     0.026752     0.001200     NO 
 Predicted change in Energy=-1.108830D-04
 GradGradGradGradGradGradGradGradGradGradGradGradGradGradGradGradGradGrad

                          Input orientation:                          
 ---------------------------------------------------------------------
 Center     Atomic      Atomic             Coordinates (Angstroms)
 Number     Number       Type             X           Y           Z
 ---------------------------------------------------------------------
      1          1           0        2.997055   -1.176774    0.431972
      2          6           0        0.294863   -1.195385   -0.000697
      3          6           0        0.993696    0.011078    0.024197
      4          6           0        0.283664    1.211131    0.025436
      5          6           0       -1.106157    1.198332   -0.001186
      6          6           0       -1.820774   -0.000002   -0.010838
      7          6           0       -1.094654   -1.192621   -0.007553
      8          1           0        0.829504   -2.139516   -0.014135
      9          1           0        0.811320    2.159035    0.049413
     10          1           0       -1.642552    2.142405   -0.006144
     11          1           0       -1.623080   -2.141136   -0.019777
     12         16           0        2.777426    0.078517    0.000271
     13          6           0       -3.325547   -0.007435    0.003938
     14          1           0       -3.701859   -0.015681    1.032340
     15          1           0       -3.730952    0.879701   -0.488511
     16          1           0       -3.722040   -0.892625   -0.499214
 ---------------------------------------------------------------------
                    Distance matrix (angstroms):
                    1          2          3          4          5
     1  H    0.000000
     2  C    2.736675   0.000000
     3  C    2.364470   1.394468   0.000000
     4  C    3.637286   2.406683   1.394372   0.000000
     5  C    4.760788   2.773579   2.412385   1.390135   0.000000
     6  C    4.979192   2.430013   2.814711   2.428336   1.395269
     7  C    4.115277   1.389536   2.410623   2.771077   2.390990
     8  H    2.413329   1.085083   2.157193   3.395046   3.858521
     9  H    4.006422   3.394315   2.155834   1.085136   2.145281
    10  H    5.721438   3.859333   3.390175   2.139761   1.085826
    11  H    4.741278   2.138531   3.388433   3.856865   3.379290
    12  S    1.345496   2.790332   1.785165   2.739032   4.041808
    13  C    6.444056   3.810330   4.319331   3.809432   2.525786
    14  H    6.825249   4.293327   4.802636   4.289909   3.046255
    15  H    7.095241   4.555340   4.831116   4.060927   2.688598
    16  H    6.789262   4.059026   4.829991   4.554856   3.385702
                    6          7          8          9         10
     6  C    0.000000
     7  C    1.396282   0.000000
     8  H    3.406099   2.144536   0.000000
     9  H    3.404848   3.856110   4.299059   0.000000
    10  H    2.149812   3.379733   4.944287   2.454557   0.000000
    11  H    2.150260   1.085847   2.452592   4.941919   4.283607
    12  S    4.598884   4.075397   2.951996   2.862961   4.878103
    13  C    1.504864   2.526200   4.670176   4.670047   2.730273
    14  H    2.151034   3.043696   5.112635   5.105323   3.158564
    15  H    2.156578   3.387611   5.489851   4.749557   2.487673
    16  H    2.156409   2.689775   4.744111   5.492265   3.711980
                   11         12         13         14         15
    11  H    0.000000
    12  S    4.928663   0.000000
    13  C    2.729768   6.103580   0.000000
    14  H    3.153701   6.561645   1.095121   0.000000
    15  H    3.713258   6.575697   1.092643   1.765090   0.000000
    16  H    2.488829   6.590574   1.092671   1.764964   1.772381
                   16
    16  H    0.000000
 Stoichiometry    C7H8S
 Framework group  C1[X(C7H8S)]
 Deg. of freedom    42
 Full point group                 C1      NOp   1
 Largest Abelian subgroup         C1      NOp   1
 Largest concise Abelian subgroup C1      NOp   1
                         Standard orientation:                         
 ---------------------------------------------------------------------
 Center     Atomic      Atomic             Coordinates (Angstroms)
 Number     Number       Type             X           Y           Z
 ---------------------------------------------------------------------
      1          1           0       -2.998973    1.181385    0.403264
      2          6           0       -0.294522    1.198768   -0.015100
      3          6           0       -0.993654   -0.007548    0.008486
      4          6           0       -0.283813   -1.207692    0.015878
      5          6           0        1.106131   -1.195135   -0.003396
      6          6           0        1.820965    0.003080   -0.011640
      7          6           0        1.095011    1.195802   -0.014580
      8          1           0       -0.828947    2.142942   -0.033252
      9          1           0       -0.811728   -2.155476    0.038941
     10          1           0        1.642407   -2.139289   -0.003631
     11          1           0        1.623633    2.144219   -0.025887
     12         16           0       -2.777242   -0.074793   -0.024768
     13          6           0        3.325639    0.010340    0.011102
     14          1           0        3.696492    0.020580    1.041468
     15          1           0        3.733521   -0.877830   -0.477424
     16          1           0        3.724924    0.894473   -0.491699
 ---------------------------------------------------------------------
 Rotational constants (GHZ):           5.4636542           0.9706131           0.8289580
 Standard basis: 6-311+G(d,p) (5D, 7F)
 There are   240 symmetry adapted cartesian basis functions of A   symmetry.
 There are   232 symmetry adapted basis functions of A   symmetry.
   232 basis functions,   366 primitive gaussians,   240 cartesian basis functions
    33 alpha electrons       33 beta electrons
       nuclear repulsion energy       395.1653208886 Hartrees.
 NAtoms=   16 NActive=   16 NUniq=   16 SFac= 1.00D+00 NAtFMM=   60 NAOKFM=F Big=F
 Integral buffers will be    131072 words long.
 Raffenetti 2 integral format.
 Two-electron integral symmetry is turned on.
 Nuclear repulsion after empirical dispersion term =      395.1578693650 Hartrees.
 ------------------------------------------------------------------------------
 Polarizable Continuum Model (PCM)
 =================================
 Model                : PCM.
 Atomic radii         : SMD-Coulomb.
 Polarization charges : Total charges.
 Charge compensation  : None.
 Solution method      : On-the-fly selection.
 Cavity type          : VdW (van der Waals Surface) (Alpha=1.000).
 Cavity algorithm     : GePol (No added spheres)
                        Default sphere list used, NSphG=   16.
                        Lebedev-Laikov grids with approx.  5.0 points / Ang**2.
                        Smoothing algorithm: York/Karplus (Gamma=1.0000).
                        Polarization charges: spherical gaussians, with
                                              point-specific exponents (IZeta= 3).
                        Self-potential: point-specific (ISelfS= 7).
                        Self-field    : sphere-specific E.n sum rule (ISelfD= 2).
 1st derivatives      : Analytical E(r).r(x)/FMM algorithm (CHGder, D1EAlg=3).
                        Cavity 1st derivative terms included.
 Solvent              : n,n-DiMethylAcetamide, Eps=  37.781000 Eps(inf)=   2.067844
 ------------------------------------------------------------------------------
 Spheres list:
 ISph  on   Nord     Re0    Alpha      Xe            Ye            Ze
    1   H      1    1.2000  1.000     -2.998973      1.181385      0.403264
    2   C      2    1.8500  1.000     -0.294522      1.198768     -0.015100
    3   C      3    1.8500  1.000     -0.993654     -0.007548      0.008486
    4   C      4    1.8500  1.000     -0.283813     -1.207692      0.015878
    5   C      5    1.8500  1.000      1.106131     -1.195135     -0.003396
    6   C      6    1.8500  1.000      1.820965      0.003080     -0.011640
    7   C      7    1.8500  1.000      1.095011      1.195802     -0.014580
    8   H      8    1.2000  1.000     -0.828947      2.142942     -0.033252
    9   H      9    1.2000  1.000     -0.811728     -2.155476      0.038941
   10   H     10    1.2000  1.000      1.642407     -2.139289     -0.003631
   11   H     11    1.2000  1.000      1.623633      2.144219     -0.025887
   12   S     12    2.4900  1.000     -2.777242     -0.074793     -0.024768
   13   C     13    1.8500  1.000      3.325639      0.010340      0.011102
   14   H     14    1.2000  1.000      3.696492      0.020580      1.041468
   15   H     15    1.2000  1.000      3.733521     -0.877830     -0.477424
   16   H     16    1.2000  1.000      3.724924      0.894473     -0.491699
 ------------------------------------------------------------------------------
 ------------------------------------------------------------------------------
 Atomic radii for non-electrostatic terms: SMD-CDS.
 ------------------------------------------------------------------------------
 Nuclear repulsion after PCM non-electrostatic terms =      395.1552428817 Hartrees.
 One-electron integrals computed using PRISM.
 NBasis=   232 RedAO= T EigKep=  2.64D-06  NBF=   232
 NBsUse=   232 1.00D-06 EigRej= -1.00D+00 NBFU=   232
 Initial guess from the checkpoint file:  "Aro_anti_DATS_NH_TS_opt.chk"
 B after Tr=     0.000000    0.000000   -0.000000
         Rot=    1.000000    0.000381    0.000003   -0.000428 Ang=   0.07 deg.
 ExpMin= 4.05D-02 ExpMax= 9.34D+04 ExpMxC= 3.17D+03 IAcc=3 IRadAn=         5 AccDes= 0.00D+00
 Harris functional with IExCor= 4639 and IRadAn=       5 diagonalized for initial guess.
 HarFok:  IExCor= 4639 AccDes= 0.00D+00 IRadAn=         5 IDoV= 1 UseB2=F ITyADJ=14
 ICtDFT=  3500011 ScaDFX=  1.000000  1.000000  1.000000  1.000000
 FoFCou: FMM=F IPFlag=           0 FMFlag=      100000 FMFlg1=           0
         NFxFlg=           0 DoJE=T BraDBF=F KetDBF=T FulRan=T
         wScrn=  0.000000 ICntrl=       500 IOpCl=  0 I1Cent=   200000004 NGrid=           0
         NMat0=    1 NMatS0=      1 NMatT0=    0 NMatD0=    1 NMtDS0=    0 NMtDT0=    0
 Petite list used in FoFCou.
 Requested convergence on RMS density matrix=1.00D-08 within 128 cycles.
 Requested convergence on MAX density matrix=1.00D-06.
 Requested convergence on             energy=1.00D-06.
 No special actions if energy rises.
 Inv3:  Mode=1 IEnd=     5787963.
 Iteration    1 A*A^-1 deviation from unit magnitude is 4.88D-15 for   1369.
 Iteration    1 A*A^-1 deviation from orthogonality  is 3.58D-15 for   1382    268.
 Iteration    1 A^-1*A deviation from unit magnitude is 4.66D-15 for   1357.
 Iteration    1 A^-1*A deviation from orthogonality  is 1.65D-15 for   1236    207.
 Error on total polarization charges =  0.03631
 SCF Done:  E(RwB97XD) =  -669.744339788     A.U. after   14 cycles
            NFock= 14  Conv=0.59D-08     -V/T= 2.0027
 SMD-CDS (non-electrostatic) energy       (kcal/mol) =      -1.65
 (included in total energy above)
 D1PCM: PCM CHGder 1st derivatives, ID1Alg=3 FixD1E=F DoIter=F DoCFld=F I1PDM=0.
 Calling FoFJK, ICntrl=      2127 FMM=F ISym2X=0 I1Cent= 0 IOpClX= 0 NMat=1 NMatS=1 NMatT=0.
 ***** Axes restored to original set *****
 -------------------------------------------------------------------
 Center     Atomic                   Forces (Hartrees/Bohr)
 Number     Number              X              Y              Z
 -------------------------------------------------------------------
      1        1          -0.000329057   -0.000029000   -0.000340623
      2        6           0.000366972   -0.000012675    0.000373396
      3        6          -0.000481627   -0.000155572   -0.000307063
      4        6           0.000686418   -0.000203783   -0.000144352
      5        6           0.000189670   -0.000223427    0.000207970
      6        6          -0.000033872   -0.000247480   -0.000001347
      7        6          -0.000166784    0.000393574   -0.000101235
      8        1          -0.000111963    0.000037712    0.000049980
      9        1          -0.000115266    0.000077814   -0.000152740
     10        1           0.000032598   -0.000046800    0.000017211
     11        1          -0.000020888    0.000025149   -0.000050391
     12       16           0.000077397    0.000420161    0.000458279
     13        6           0.000011448   -0.000028903   -0.000278216
     14        1          -0.000098484   -0.000003051    0.000062720
     15        1           0.000005202    0.000004086    0.000107415
     16        1          -0.000011763   -0.000007803    0.000098996
 -------------------------------------------------------------------
 Cartesian Forces:  Max     0.000686418 RMS     0.000220809

 GradGradGradGradGradGradGradGradGradGradGradGradGradGradGradGradGradGrad
 Berny optimization.
 Using GEDIIS/GDIIS optimizer.
 FormGI is forming the generalized inverse of G from B-inverse, IUseBI=4.
 Internal  Forces:  Max     0.000792240 RMS     0.000171178
 Search for a local minimum.
 Step number   2 out of a maximum of  100
 All quantities printed in internal units (Hartrees-Bohrs-Radians)
 Mixed Optimization -- En-DIIS/RFO-DIIS
 Swapping is turned off.
 Update second derivatives using D2CorX and points    1    2
 DE= -1.57D-04 DEPred=-1.11D-04 R= 1.41D+00
 TightC=F SS=  1.41D+00  RLast= 1.50D-01 DXNew= 5.0454D-01 4.5062D-01
 Trust test= 1.41D+00 RLast= 1.50D-01 DXMaxT set to 4.51D-01
 ITU=  1  0
     Eigenvalues ---    0.00274   0.00683   0.01555   0.01889   0.02176
     Eigenvalues ---    0.02178   0.02195   0.02206   0.02208   0.02218
     Eigenvalues ---    0.02259   0.07106   0.07238   0.15795   0.15999
     Eigenvalues ---    0.15999   0.16000   0.16000   0.16000   0.16000
     Eigenvalues ---    0.17169   0.22056   0.22783   0.24108   0.24993
     Eigenvalues ---    0.25560   0.26762   0.29074   0.32162   0.34270
     Eigenvalues ---    0.34543   0.34604   0.35304   0.35319   0.35441
     Eigenvalues ---    0.35575   0.42652   0.42749   0.46641   0.47055
     Eigenvalues ---    0.47374   0.54434
 En-DIIS/RFO-DIIS/Sim-DIIS IScMMF=       -3 using points:     2    1
 RFO step:  Lambda=-1.47059117D-04.
 DidBck=F Rises=F RFO-DIIS coefs:    2.51598   -1.51598
 Iteration  1 RMS(Cart)=  0.03839637 RMS(Int)=  0.00330876
 Iteration  2 RMS(Cart)=  0.00310741 RMS(Int)=  0.00001167
 Iteration  3 RMS(Cart)=  0.00001188 RMS(Int)=  0.00000971
 Iteration  4 RMS(Cart)=  0.00000000 RMS(Int)=  0.00000971
 Variable       Old X    -DE/DX   Delta X   Delta X   Delta X     New X
                                 (Linear)    (Quad)   (Total)
    R1        2.54262  -0.00013   0.00756  -0.00608   0.00148   2.54410
    R2        2.63516  -0.00013   0.00334  -0.00277   0.00058   2.63574
    R3        2.62584   0.00012   0.00437  -0.00262   0.00175   2.62759
    R4        2.05051  -0.00009   0.00121  -0.00125  -0.00003   2.05048
    R5        2.63498  -0.00056   0.00470  -0.00521  -0.00050   2.63448
    R6        3.37347  -0.00024   0.00678  -0.00611   0.00067   3.37414
    R7        2.62697  -0.00002   0.00384  -0.00277   0.00107   2.62804
    R8        2.05061   0.00001   0.00173  -0.00116   0.00057   2.05118
    R9        2.63668   0.00001   0.00503  -0.00344   0.00159   2.63826
   R10        2.05191  -0.00006   0.00034  -0.00050  -0.00016   2.05176
   R11        2.63859  -0.00036   0.00558  -0.00512   0.00046   2.63905
   R12        2.84378   0.00009  -0.00396   0.00322  -0.00073   2.84305
   R13        2.05195  -0.00001   0.00017  -0.00017  -0.00000   2.05195
   R14        2.06948   0.00009   0.00133  -0.00048   0.00085   2.07033
   R15        2.06480  -0.00005   0.00105  -0.00094   0.00010   2.06490
   R16        2.06485  -0.00004   0.00084  -0.00075   0.00008   2.06493
    A1        2.09383  -0.00009  -0.00413   0.00225  -0.00189   2.09194
    A2        2.10144   0.00013   0.00383  -0.00151   0.00231   2.10374
    A3        2.08792  -0.00004   0.00033  -0.00073  -0.00042   2.08750
    A4        2.08223   0.00019   0.00544  -0.00253   0.00290   2.08514
    A5        2.13316   0.00019  -0.00848   0.00722  -0.00128   2.13188
    A6        2.06724  -0.00037   0.00327  -0.00458  -0.00134   2.06591
    A7        2.09573  -0.00017  -0.00218   0.00015  -0.00203   2.09370
    A8        2.09926   0.00023   0.00745  -0.00304   0.00440   2.10366
    A9        2.08819  -0.00006  -0.00524   0.00288  -0.00237   2.08582
   A10        2.11776   0.00021  -0.00150   0.00254   0.00104   2.11879
   A11        2.07827  -0.00011   0.00046  -0.00113  -0.00066   2.07760
   A12        2.08712  -0.00010   0.00104  -0.00138  -0.00034   2.08678
   A13        2.05694  -0.00018   0.00198  -0.00248  -0.00051   2.05642
   A14        2.11334   0.00012  -0.00139   0.00170   0.00031   2.11365
   A15        2.11270   0.00006  -0.00064   0.00082   0.00018   2.11288
   A16        2.11969   0.00005   0.00043   0.00020   0.00062   2.12031
   A17        2.07711   0.00001  -0.00105   0.00082  -0.00023   2.07688
   A18        2.08634  -0.00006   0.00066  -0.00102  -0.00036   2.08598
   A19        1.69467  -0.00079   0.00864  -0.01402  -0.00537   1.68929
   A20        1.93142   0.00006  -0.00253   0.00203  -0.00049   1.93093
   A21        1.94182   0.00001  -0.00042   0.00054   0.00012   1.94194
   A22        1.94156   0.00004  -0.00124   0.00145   0.00021   1.94176
   A23        1.87743  -0.00008  -0.00158  -0.00006  -0.00164   1.87580
   A24        1.87720  -0.00008  -0.00163   0.00002  -0.00161   1.87559
   A25        1.89186   0.00004   0.00753  -0.00416   0.00337   1.89523
    D1       -0.01360   0.00006   0.00412   0.00237   0.00649  -0.00711
    D2       -3.11909  -0.00003  -0.00349  -0.00126  -0.00474  -3.12383
    D3        3.12871   0.00003   0.01468  -0.00710   0.00759   3.13629
    D4        0.02322  -0.00006   0.00708  -0.01073  -0.00364   0.01958
    D5        0.01750  -0.00011  -0.00168  -0.00672  -0.00839   0.00911
    D6       -3.13397  -0.00006   0.00264  -0.00646  -0.00382  -3.13778
    D7       -3.12480  -0.00008  -0.01217   0.00267  -0.00948  -3.13428
    D8        0.00692  -0.00003  -0.00786   0.00294  -0.00491   0.00201
    D9       -0.00267   0.00003  -0.00377   0.00450   0.00072  -0.00195
   D10        3.13650   0.00002   0.00336  -0.00103   0.00233   3.13883
   D11        3.10418   0.00014   0.00326   0.00824   0.01152   3.11570
   D12       -0.03983   0.00013   0.01039   0.00270   0.01313  -0.02670
   D13       -0.36059   0.00048   0.16241   0.00443   0.16682  -0.19378
   D14        2.81681   0.00037   0.15481   0.00079   0.15562   2.97243
   D15        0.01568  -0.00009   0.00095  -0.00724  -0.00629   0.00939
   D16       -3.13490  -0.00003   0.00115  -0.00301  -0.00187  -3.13676
   D17       -3.12350  -0.00008  -0.00618  -0.00173  -0.00789  -3.13139
   D18        0.00910  -0.00002  -0.00599   0.00250  -0.00347   0.00563
   D19       -0.01189   0.00005   0.00150   0.00296   0.00446  -0.00743
   D20        3.10775   0.00005  -0.00086   0.00446   0.00360   3.11134
   D21        3.13873  -0.00001   0.00131  -0.00130   0.00002   3.13875
   D22       -0.02481  -0.00001  -0.00105   0.00020  -0.00085  -0.02566
   D23       -0.00472   0.00005  -0.00118   0.00405   0.00287  -0.00185
   D24       -3.13639   0.00000  -0.00551   0.00378  -0.00173  -3.13811
   D25       -3.12437   0.00004   0.00119   0.00254   0.00374  -3.12063
   D26        0.02715   0.00000  -0.00313   0.00226  -0.00086   0.02629
   D27       -1.56303  -0.00000   0.00001  -0.00110  -0.00109  -1.56412
   D28        0.52316  -0.00005  -0.00393   0.00053  -0.00340   0.51976
   D29        2.63443   0.00004   0.00453  -0.00341   0.00112   2.63555
   D30        1.55591  -0.00000  -0.00240   0.00041  -0.00200   1.55391
   D31       -2.64109  -0.00005  -0.00634   0.00203  -0.00430  -2.64539
   D32       -0.52982   0.00003   0.00212  -0.00190   0.00022  -0.52960
         Item               Value     Threshold  Converged?
 Maximum Force            0.000792     0.000450     NO 
 RMS     Force            0.000171     0.000300     YES
 Maximum Displacement     0.265193     0.001800     NO 
 RMS     Displacement     0.038566     0.001200     NO 
 Predicted change in Energy=-7.723671D-05
 GradGradGradGradGradGradGradGradGradGradGradGradGradGradGradGradGradGrad

                          Input orientation:                          
 ---------------------------------------------------------------------
 Center     Atomic      Atomic             Coordinates (Angstroms)
 Number     Number       Type             X           Y           Z
 ---------------------------------------------------------------------
      1          1           0        2.988190   -1.218713    0.291638
      2          6           0        0.298720   -1.190860    0.029891
      3          6           0        0.993319    0.018498    0.049345
      4          6           0        0.282732    1.217839    0.035994
      5          6           0       -1.107432    1.201108    0.001166
      6          6           0       -1.820334    0.000787   -0.009888
      7          6           0       -1.091538   -1.190385    0.006043
      8          1           0        0.834433   -2.134445    0.034897
      9          1           0        0.805696    2.168827    0.053337
     10          1           0       -1.645624    2.143962   -0.013404
     11          1           0       -1.618120   -2.139936   -0.005290
     12         16           0        2.777421    0.089474    0.053539
     13          6           0       -3.324774   -0.009653   -0.008650
     14          1           0       -3.709977   -0.015477    1.016952
     15          1           0       -3.727643    0.876279   -0.505448
     16          1           0       -3.715157   -0.898283   -0.510611
 ---------------------------------------------------------------------
                    Distance matrix (angstroms):
                    1          2          3          4          5
     1  H    0.000000
     2  C    2.702320   0.000000
     3  C    2.359853   1.394772   0.000000
     4  C    3.649883   2.408760   1.394106   0.000000
     5  C    4.765924   2.774815   2.411233   1.390701   0.000000
     6  C    4.969910   2.431460   2.814332   2.430269   1.396110
     7  C    4.089810   1.390463   2.410373   2.772915   2.391551
     8  H    2.354390   1.085065   2.158846   3.397379   3.859779
     9  H    4.036768   3.397804   2.158503   1.085436   2.144589
    10  H    5.733487   3.860490   3.389035   2.139790   1.085742
    11  H    4.706900   2.139219   3.388426   3.858704   3.379855
    12  S    1.346279   2.789941   1.785519   2.738063   4.041109
    13  C    6.434711   3.811357   4.318573   3.810883   2.526389
    14  H    6.843925   4.292490   4.801917   4.292444   3.047153
    15  H    7.080025   4.557549   4.830224   4.061149   2.688434
    16  H    6.758783   4.060660   4.829470   4.556300   3.386678
                    6          7          8          9         10
     6  C    0.000000
     7  C    1.396527   0.000000
     8  H    3.407200   2.145099   0.000000
     9  H    3.405941   3.858243   4.303408   0.000000
    10  H    2.150287   3.380127   4.945482   2.452355   0.000000
    11  H    2.150257   1.085847   2.452889   4.944063   4.283994
    12  S    4.599048   4.075431   2.953196   2.865555   4.877369
    13  C    1.504476   2.526199   4.670721   4.670161   2.730865
    14  H    2.150678   3.042790   5.109415   5.107939   3.160121
    15  H    2.156361   3.388477   5.492629   4.747009   2.486751
    16  H    2.156248   2.689913   4.745993   5.492115   3.712875
                   11         12         13         14         15
    11  H    0.000000
    12  S    4.928946   0.000000
    13  C    2.729612   6.103317   0.000000
    14  H    3.151852   6.559384   1.095571   0.000000
    15  H    3.714539   6.576275   1.092698   1.764439   0.000000
    16  H    2.488898   6.591472   1.092716   1.764320   1.774614
                   16
    16  H    0.000000
 Stoichiometry    C7H8S
 Framework group  C1[X(C7H8S)]
 Deg. of freedom    42
 Full point group                 C1      NOp   1
 Largest Abelian subgroup         C1      NOp   1
 Largest concise Abelian subgroup C1      NOp   1
                         Standard orientation:                         
 ---------------------------------------------------------------------
 Center     Atomic      Atomic             Coordinates (Angstroms)
 Number     Number       Type             X           Y           Z
 ---------------------------------------------------------------------
      1          1           0       -2.988934    1.232439    0.216244
      2          6           0       -0.296123    1.198892   -0.007761
      3          6           0       -0.993013   -0.009205    0.007610
      4          6           0       -0.284382   -1.209775    0.009769
      5          6           0        1.106160   -1.195517   -0.005707
      6          6           0        1.821219    0.003552   -0.012381
      7          6           0        1.094330    1.195995   -0.012176
      8          1           0       -0.830223    2.143380   -0.014631
      9          1           0       -0.809179   -2.159801    0.024225
     10          1           0        1.642874   -2.139322   -0.008369
     11          1           0        1.622658    2.144606   -0.020567
     12         16           0       -2.777120   -0.077196   -0.012799
     13          6           0        3.325510    0.011498    0.009832
     14          1           0        3.696362    0.021476    1.040679
     15          1           0        3.733749   -0.877415   -0.477162
     16          1           0        3.724401    0.897122   -0.490753
 ---------------------------------------------------------------------
 Rotational constants (GHZ):           5.4576131           0.9710682           0.8287765
 Standard basis: 6-311+G(d,p) (5D, 7F)
 There are   240 symmetry adapted cartesian basis functions of A   symmetry.
 There are   232 symmetry adapted basis functions of A   symmetry.
   232 basis functions,   366 primitive gaussians,   240 cartesian basis functions
    33 alpha electrons       33 beta electrons
       nuclear repulsion energy       395.1303866854 Hartrees.
 NAtoms=   16 NActive=   16 NUniq=   16 SFac= 1.00D+00 NAtFMM=   60 NAOKFM=F Big=F
 Integral buffers will be    131072 words long.
 Raffenetti 2 integral format.
 Two-electron integral symmetry is turned on.
 Nuclear repulsion after empirical dispersion term =      395.1229357473 Hartrees.
 ------------------------------------------------------------------------------
 Polarizable Continuum Model (PCM)
 =================================
 Model                : PCM.
 Atomic radii         : SMD-Coulomb.
 Polarization charges : Total charges.
 Charge compensation  : None.
 Solution method      : On-the-fly selection.
 Cavity type          : VdW (van der Waals Surface) (Alpha=1.000).
 Cavity algorithm     : GePol (No added spheres)
                        Default sphere list used, NSphG=   16.
                        Lebedev-Laikov grids with approx.  5.0 points / Ang**2.
                        Smoothing algorithm: York/Karplus (Gamma=1.0000).
                        Polarization charges: spherical gaussians, with
                                              point-specific exponents (IZeta= 3).
                        Self-potential: point-specific (ISelfS= 7).
                        Self-field    : sphere-specific E.n sum rule (ISelfD= 2).
 1st derivatives      : Analytical E(r).r(x)/FMM algorithm (CHGder, D1EAlg=3).
                        Cavity 1st derivative terms included.
 Solvent              : n,n-DiMethylAcetamide, Eps=  37.781000 Eps(inf)=   2.067844
 ------------------------------------------------------------------------------
 Spheres list:
 ISph  on   Nord     Re0    Alpha      Xe            Ye            Ze
    1   H      1    1.2000  1.000     -2.988934      1.232439      0.216244
    2   C      2    1.8500  1.000     -0.296123      1.198892     -0.007761
    3   C      3    1.8500  1.000     -0.993013     -0.009205      0.007610
    4   C      4    1.8500  1.000     -0.284382     -1.209775      0.009769
    5   C      5    1.8500  1.000      1.106160     -1.195517     -0.005707
    6   C      6    1.8500  1.000      1.821219      0.003552     -0.012381
    7   C      7    1.8500  1.000      1.094330      1.195995     -0.012176
    8   H      8    1.2000  1.000     -0.830223      2.143380     -0.014631
    9   H      9    1.2000  1.000     -0.809179     -2.159801      0.024225
   10   H     10    1.2000  1.000      1.642874     -2.139322     -0.008369
   11   H     11    1.2000  1.000      1.622658      2.144606     -0.020567
   12   S     12    2.4900  1.000     -2.777120     -0.077196     -0.012799
   13   C     13    1.8500  1.000      3.325510      0.011498      0.009832
   14   H     14    1.2000  1.000      3.696362      0.021476      1.040679
   15   H     15    1.2000  1.000      3.733749     -0.877415     -0.477162
   16   H     16    1.2000  1.000      3.724401      0.897122     -0.490753
 ------------------------------------------------------------------------------
 ------------------------------------------------------------------------------
 Atomic radii for non-electrostatic terms: SMD-CDS.
 ------------------------------------------------------------------------------
 Nuclear repulsion after PCM non-electrostatic terms =      395.1203040560 Hartrees.
 One-electron integrals computed using PRISM.
 NBasis=   232 RedAO= T EigKep=  2.65D-06  NBF=   232
 NBsUse=   232 1.00D-06 EigRej= -1.00D+00 NBFU=   232
 Initial guess from the checkpoint file:  "Aro_anti_DATS_NH_TS_opt.chk"
 B after Tr=    -0.000000   -0.000000    0.000000
         Rot=    1.000000    0.000270   -0.000012   -0.000036 Ang=   0.03 deg.
 ExpMin= 4.05D-02 ExpMax= 9.34D+04 ExpMxC= 3.17D+03 IAcc=3 IRadAn=         5 AccDes= 0.00D+00
 Harris functional with IExCor= 4639 and IRadAn=       5 diagonalized for initial guess.
 HarFok:  IExCor= 4639 AccDes= 0.00D+00 IRadAn=         5 IDoV= 1 UseB2=F ITyADJ=14
 ICtDFT=  3500011 ScaDFX=  1.000000  1.000000  1.000000  1.000000
 FoFCou: FMM=F IPFlag=           0 FMFlag=      100000 FMFlg1=           0
         NFxFlg=           0 DoJE=T BraDBF=F KetDBF=T FulRan=T
         wScrn=  0.000000 ICntrl=       500 IOpCl=  0 I1Cent=   200000004 NGrid=           0
         NMat0=    1 NMatS0=      1 NMatT0=    0 NMatD0=    1 NMtDS0=    0 NMtDT0=    0
 Petite list used in FoFCou.
 Requested convergence on RMS density matrix=1.00D-08 within 128 cycles.
 Requested convergence on MAX density matrix=1.00D-06.
 Requested convergence on             energy=1.00D-06.
 No special actions if energy rises.
 Inv3:  Mode=1 IEnd=     5771307.
 Iteration    1 A*A^-1 deviation from unit magnitude is 3.77D-15 for   1367.
 Iteration    1 A*A^-1 deviation from orthogonality  is 2.45D-15 for   1013    300.
 Iteration    1 A^-1*A deviation from unit magnitude is 4.22D-15 for   1367.
 Iteration    1 A^-1*A deviation from orthogonality  is 1.89D-15 for   1387   1239.
 Error on total polarization charges =  0.03626
 SCF Done:  E(RwB97XD) =  -669.744455112     A.U. after   14 cycles
            NFock= 14  Conv=0.59D-08     -V/T= 2.0027
 SMD-CDS (non-electrostatic) energy       (kcal/mol) =      -1.65
 (included in total energy above)
 D1PCM: PCM CHGder 1st derivatives, ID1Alg=3 FixD1E=F DoIter=F DoCFld=F I1PDM=0.
 Calling FoFJK, ICntrl=      2127 FMM=F ISym2X=0 I1Cent= 0 IOpClX= 0 NMat=1 NMatS=1 NMatT=0.
 ***** Axes restored to original set *****
 -------------------------------------------------------------------
 Center     Atomic                   Forces (Hartrees/Bohr)
 Number     Number              X              Y              Z
 -------------------------------------------------------------------
      1        1          -0.000040321    0.000494211   -0.000316335
      2        6          -0.000772843    0.000789429    0.000376657
      3        6           0.000887173   -0.000651423   -0.000376511
      4        6          -0.000727015   -0.000182090   -0.000078190
      5        6           0.000427615   -0.000672267    0.000150580
      6        6           0.000817725   -0.000107352    0.000017689
      7        6           0.000209846    0.000680658   -0.000012605
      8        1          -0.000036227    0.000102944   -0.000123291
      9        1           0.000079571   -0.000257280   -0.000154725
     10        1          -0.000016905    0.000007195   -0.000004941
     11        1           0.000001369   -0.000005662   -0.000059591
     12       16          -0.000496703   -0.000194302    0.000552722
     13        6          -0.000233640    0.000002742    0.000337153
     14        1           0.000003718    0.000001717   -0.000122874
     15        1          -0.000046854   -0.000198290   -0.000089376
     16        1          -0.000056510    0.000189770   -0.000096363
 -------------------------------------------------------------------
 Cartesian Forces:  Max     0.000887173 RMS     0.000367243

 GradGradGradGradGradGradGradGradGradGradGradGradGradGradGradGradGradGrad
 Berny optimization.
 Using GEDIIS/GDIIS optimizer.
 FormGI is forming the generalized inverse of G from B-inverse, IUseBI=4.
 Internal  Forces:  Max     0.000842524 RMS     0.000253236
 Search for a local minimum.
 Step number   3 out of a maximum of  100
 All quantities printed in internal units (Hartrees-Bohrs-Radians)
 Mixed Optimization -- En-DIIS/RFO-DIIS
 Swapping is turned off.
 Update second derivatives using D2CorX and points    1    2    3
 DE= -1.15D-04 DEPred=-7.72D-05 R= 1.49D+00
 TightC=F SS=  1.41D+00  RLast= 2.30D-01 DXNew= 7.5785D-01 6.9076D-01
 Trust test= 1.49D+00 RLast= 2.30D-01 DXMaxT set to 6.91D-01
 ITU=  1  1  0
     Eigenvalues ---    0.00098   0.00683   0.01557   0.01878   0.02165
     Eigenvalues ---    0.02182   0.02203   0.02207   0.02212   0.02230
     Eigenvalues ---    0.02275   0.07246   0.07254   0.15980   0.16000
     Eigenvalues ---    0.16000   0.16000   0.16000   0.16000   0.16303
     Eigenvalues ---    0.17740   0.22081   0.23271   0.24465   0.25004
     Eigenvalues ---    0.25649   0.26957   0.29907   0.32616   0.34338
     Eigenvalues ---    0.34544   0.34657   0.35304   0.35325   0.35455
     Eigenvalues ---    0.35724   0.42683   0.43043   0.46860   0.47123
     Eigenvalues ---    0.47683   0.63046
 En-DIIS/RFO-DIIS/Sim-DIIS IScMMF=       -3 using points:     3    2    1
 RFO step:  Lambda=-1.61400994D-04.
 DidBck=F Rises=F RFO-DIIS coefs:    1.88467   -0.24308   -0.64159
 Iteration  1 RMS(Cart)=  0.04659114 RMS(Int)=  0.00558668
 Iteration  2 RMS(Cart)=  0.00582760 RMS(Int)=  0.00005488
 Iteration  3 RMS(Cart)=  0.00006971 RMS(Int)=  0.00001705
 Iteration  4 RMS(Cart)=  0.00000001 RMS(Int)=  0.00001705
 Variable       Old X    -DE/DX   Delta X   Delta X   Delta X     New X
                                 (Linear)    (Quad)   (Total)
    R1        2.54410  -0.00054   0.00451  -0.00392   0.00059   2.54468
    R2        2.63574  -0.00054   0.00192  -0.00200  -0.00007   2.63567
    R3        2.62759  -0.00050   0.00340  -0.00229   0.00110   2.62870
    R4        2.05048  -0.00011   0.00048  -0.00053  -0.00005   2.05043
    R5        2.63448  -0.00036   0.00154  -0.00145   0.00011   2.63459
    R6        3.37414  -0.00052   0.00346  -0.00343   0.00003   3.37417
    R7        2.62804  -0.00061   0.00257  -0.00235   0.00022   2.62826
    R8        2.05118  -0.00019   0.00123  -0.00103   0.00021   2.05138
    R9        2.63826  -0.00067   0.00354  -0.00283   0.00069   2.63896
   R10        2.05176   0.00001   0.00000   0.00004   0.00005   2.05180
   R11        2.63905  -0.00081   0.00277  -0.00303  -0.00027   2.63878
   R12        2.84305   0.00033  -0.00232   0.00200  -0.00032   2.84273
   R13        2.05195   0.00000   0.00007  -0.00000   0.00007   2.05202
   R14        2.07033  -0.00012   0.00132  -0.00079   0.00052   2.07085
   R15        2.06490  -0.00010   0.00053  -0.00053   0.00000   2.06490
   R16        2.06493  -0.00009   0.00043  -0.00046  -0.00003   2.06490
    A1        2.09194   0.00026  -0.00342   0.00243  -0.00099   2.09095
    A2        2.10374  -0.00015   0.00366  -0.00189   0.00176   2.10551
    A3        2.08750  -0.00012  -0.00023  -0.00053  -0.00078   2.08673
    A4        2.08514  -0.00050   0.00487  -0.00385   0.00098   2.08612
    A5        2.13188   0.00084  -0.00472   0.00567   0.00087   2.13276
    A6        2.06591  -0.00034   0.00020  -0.00175  -0.00162   2.06428
    A7        2.09370   0.00022  -0.00272   0.00196  -0.00075   2.09295
[...]
   zz         0.903798D+02      0.133929D+02      0.149016D+02

 ----------------------------------------------------------------------

  
     1          3.20737070         -4.05290278         -3.28357967
     6          1.33728646         -1.70108523          0.83607424
     6          0.73153495         -0.77371565         -1.55402278
     6         -0.82804604          1.34010219         -1.76055587
     6         -1.75958661          2.50283238          0.40190901
     6         -1.16723574          1.60467088          2.80984675
     6          0.38980289         -0.51657234          2.98089220
     1          2.54050502         -3.34884855          1.03886156
     1         -1.32830929          2.08507434         -3.60464027
     1         -2.97626837          4.14319471          0.20450661
     1          0.87587524         -1.26823397          4.82735297
    16          1.87004697         -2.19513483         -4.38942213
     6         -2.13340835          2.91037895          5.14446578
     1         -0.80638388          4.37155142          5.76755968
     1         -3.94850949          3.82912584          4.79187397
     1         -2.36820994          1.57848695          6.70463481

 Electric dipole moment (dipole orientation):
 (Debye = 10**-18 statcoulomb cm , SI units = C m)
                  (au)            (Debye)         (10**-30 SI)
   Tot        0.895286D+00      0.227559D+01      0.759055D+01
   x          0.000000D+00      0.000000D+00      0.000000D+00
   y          0.000000D+00      0.000000D+00      0.000000D+00
   z          0.895286D+00      0.227559D+01      0.759055D+01

 Dipole polarizability, Alpha (dipole orientation).
 (esu units = cm**3 , SI units = C**2 m**2 J**-1)
 Alpha(0;0):
               (au)            (10**-24 esu)      (10**-40 SI)
   iso        0.141059D+03      0.209027D+02      0.232574D+02
   aniso      0.842909D+02      0.124906D+02      0.138977D+02
   xx         0.115293D+03      0.170846D+02      0.190092D+02
   yx        -0.337284D+02     -0.499804D+01     -0.556107D+01
   yy         0.135998D+03      0.201529D+02      0.224231D+02
   zx        -0.131050D+02     -0.194196D+01     -0.216073D+01
   zy         0.154624D+02      0.229129D+01      0.254940D+01
   zz         0.171885D+03      0.254708D+02      0.283400D+02

 ----------------------------------------------------------------------
 1\1\GINC-SSKY0946\Freq\RwB97XD\6-311+G(d,p)\C7H8S1\JVALEGRE@COLOSTATE.
 EDU\08-Mar-2019\0\\#N Geom=AllCheck Guess=TCheck SCRF=Check GenChk RwB
 97XD/6-311+G(d,p) Freq\\Title Card Required\\0,1\H,2.9949371824,-1.229
 0000242,0.1400702887\C,0.2980920712,-1.1891892083,0.0617781736\C,0.993
 8392421,0.0187061196,0.0754278721\C,0.2817093034,1.2171453531,0.045406
 443\C,-1.1072005923,1.2001994296,0.0040706824\C,-1.8202849255,0.000530
 3453,-0.0064065277\C,-1.0914237845,-1.1890824597,0.0201405877\H,0.8329
 172873,-2.1330473738,0.0799024743\H,0.8053596429,2.1676886509,0.050703
 2455\H,-1.6449159061,2.1431291195,-0.0221159484\H,-1.6169692911,-2.139
 2039121,0.0066746121\S,2.7746449286,0.0980156519,0.1252458288\C,-3.325
 2250674,-0.0096998328,-0.0185619483\H,-3.7205758797,-0.0109919981,1.00
 29136695\H,-3.7235063505,0.8732182487,-0.5241228021\H,-3.7114858606,-0
 .8993941095,-0.5216156512\\Version=ES64L-G16RevB.01\State=1-A\HF=-669.
 7445405\RMSD=1.338e-09\RMSF=1.108e-05\ZeroPoint=0.1273095\Thermal=0.13
 53658\Dipole=-0.7314867,-0.5161754,0.005227\DipoleDeriv=0.0266595,-0.1
 297328,-0.0038179,-0.033758,0.0531148,0.0001248,-0.0050219,-0.003325,0
 .192998,-0.3773673,0.0191228,-0.0068982,-0.1445105,0.0233323,0.0003238
 ,-0.0015556,0.0099026,-0.1717939,1.2175006,-0.0050524,0.0368548,-0.148
 1742,-0.1420862,-0.0035188,0.0444152,-0.0028236,-0.0855317,-0.3476162,
 -0.0041578,-0.0058551,0.1492785,0.040209,-0.0029363,-0.0038013,-0.0076
 187,-0.1809631,-0.0656821,0.0389158,0.011252,-0.113955,0.1091316,0.002
 5234,0.0171776,0.007201,-0.177207,0.452392,0.0052627,-0.0282793,-0.004
 603,-0.1530418,-0.0004207,-0.1109758,0.003385,-0.1130364,-0.0894019,-0
 .0403707,0.0115556,0.106392,0.1148106,-0.0065969,0.0139325,-0.0159802,
 -0.1754849,0.0292026,0.1100729,-0.0058067,0.0880149,-0.0126404,0.00312
 62,-0.0080872,0.0010324,0.1935605,0.0486334,-0.1136926,-0.0036909,-0.0
 880703,-0.0192447,-0.0004164,-0.0063487,0.0016076,0.1933204,0.0334636,
 0.1128455,-0.0067085,0.1066649,-0.0586998,0.0047003,-0.0101971,0.00734
 12,0.18929,0.0318636,-0.107476,-0.0053143,-0.1045252,-0.0606729,-0.001
 4178,-0.0087722,-0.0038336,0.1890199,-0.7016595,0.1139619,-0.0135467,0
 .1892858,-0.0009678,0.0037543,-0.0147999,0.0029741,-0.1909019,-0.09902
 44,-0.00142,0.0062039,-0.002271,0.1189942,0.000385,0.176786,0.0003646,
 0.1220026,-0.1033274,-0.0002528,0.0545181,-0.0008644,0.139649,0.000043
 9,0.0993056,0.0003021,-0.1091928,-0.0284348,0.026951,-0.0208987,0.0933
 533,-0.075068,0.1031641,-0.0918435,0.10114,0.0615563,-0.0272017,-0.024
 9776,-0.0195681,-0.0922577,-0.0768199,-0.1028388,-0.0902136,-0.1016697
 ,0.0623639\Polar=187.2731558,-1.5828919,145.5230959,1.9017771,-0.41130
 3,90.3798175\Quadrupole=1.1282909,4.4771104,-5.6054013,-3.2773494,0.09
 12103,-0.1567133\PG=C01 [X(C7H8S1)]\NImag=0\\0.03922469,-0.03924817,0.
 26620198,0.00134298,-0.00281989,0.00114096,0.00148588,-0.00251977,0.00
 004154,0.69332586,0.00133589,0.00069932,0.00004994,-0.03972239,0.72299
 005,0.00002339,-0.00007346,0.00068136,0.01652284,-0.00357295,0.1303231
 4,-0.00583161,0.00135764,-0.00009707,-0.16163557,-0.11622192,-0.002323
 21,0.53248403,0.02853509,0.00021470,0.00077364,-0.04937095,-0.28118059
 ,-0.00034674,0.00247669,0.65621826,-0.00028060,0.00001434,-0.00253122,
 -0.00250457,-0.00210561,-0.05846090,0.01212349,-0.00353115,0.11615462,
 -0.00674701,-0.00042870,-0.00022603,0.06820336,0.02616366,0.00162321,-
 0.16645123,0.05039291,-0.00320220,0.69749495,-0.00215088,0.00058603,-0
 .00003292,-0.02442114,-0.05679289,-0.00035968,0.11583727,-0.28046522,0
 .00501835,0.03752427,0.72198292,-0.00019084,-0.00001050,0.00095538,0.0
 0197782,0.00122722,0.00474573,-0.00391868,0.00333488,-0.06131684,0.016
 03205,-0.00429373,0.13243473,-0.00009910,-0.00027976,-0.00003863,-0.05
 816579,-0.03361223,-0.00145172,-0.02861393,0.08768278,-0.00178714,-0.3
 4763364,-0.03959922,-0.00804309,0.70228612,0.00164523,-0.00005686,0.00
 005969,-0.03322119,-0.02191232,-0.00092913,0.02896659,0.04159989,0.000
 52641,0.03305487,-0.13055171,0.00151460,-0.03268204,0.71945034,-0.0000
 4759,0.00000761,0.00131628,-0.00202622,-0.00118513,-0.00371860,-0.0012
 7654,0.00308454,0.00576764,-0.00804542,-0.00098239,-0.06064105,0.01626
 846,-0.00727637,0.13967992,0.00011868,-0.00007418,0.00000227,-0.026400
 54,0.02845628,-0.00078489,0.00474564,0.00084758,0.00059869,-0.02518873
 ,-0.02941134,-0.00035581,-0.17850801,-0.12060607,-0.00209794,0.6622846
 3,-0.00011950,0.00014334,-0.00000215,0.08387118,0.04242036,0.00240459,
 0.00066780,-0.08748571,0.00061093,-0.08462577,0.04108900,-0.00295353,-
 0.04627062,-0.27694551,0.00193323,-0.00016952,0.67247247,-0.00003286,-
 0.00003754,0.00006146,-0.00185973,-0.00029451,0.00561662,0.00048629,0.
 00057971,-0.00492121,-0.00074642,-0.00019678,0.00582948,-0.00215208,-0
 .00163067,-0.06982680,0.00889849,-0.00331983,0.17637952,-0.00012811,0.
 00015622,0.00001142,-0.34598225,0.03744928,-0.00852262,-0.02730020,-0.
 08937424,-0.00060343,-0.05886752,0.03321130,-0.00191056,0.07083810,0.0
 2679640,0.00254009,-0.18089426,0.04767554,-0.00279834,0.70001587,0.000
 35225,0.00007373,0.00000760,-0.03567985,-0.13042381,-0.00069194,-0.029
 66685,0.03892543,-0.00099019,0.03275353,-0.02132468,0.00113420,-0.0249
 7992,-0.05982114,-0.00072705,0.12218285,-0.27485035,0.00435389,0.03158
 725,0.72018565,-0.00000016,0.00000805,-0.00058968,-0.00760753,0.001829
 93,-0.06036710,-0.00082598,-0.00361731,0.00517913,-0.00247911,0.001394
 24,-0.00334693,0.00288622,0.00168726,0.00751988,-0.00372090,0.00086088
 ,-0.06979942,0.01579206,-0.00032849,0.13910197,-0.00025793,0.00018795,
 -0.00001060,-0.12602322,0.12152846,-0.00302296,0.00805062,-0.01489070,
 0.00022510,-0.00092493,-0.00342244,-0.00019395,-0.00084324,-0.00062541
 ,0.00000373,-0.00497686,-0.00135714,-0.00026603,-0.01032377,0.02847911
 ,-0.00046614,0.13338301,-0.00098290,0.00021492,-0.00003093,0.12051105,
 -0.27255513,0.00413603,0.01511299,-0.01721611,0.00048601,-0.00372916,-
 0.00307698,-0.00006889,-0.00085048,0.00019867,-0.00003744,-0.00091925,
 0.00183745,0.00002775,-0.00291440,0.00407490,-0.00007473,-0.12836705,0
 .28700952,-0.00001234,0.00000323,0.00008183,-0.00300609,0.00404990,-0.
 03692613,0.00015915,-0.00024601,0.00221503,-0.00016180,-0.00007264,0.0
 0652316,-0.00005269,-0.00004906,-0.00110520,-0.00052069,0.00010041,0.0
 0769787,-0.00034964,0.00074695,0.00379993,0.00351529,-0.00443835,0.025
 05557,-0.00006079,-0.00014049,0.00001424,-0.00131274,0.00324695,-0.000
 25560,0.01031606,0.01576029,0.00008207,-0.12378096,-0.11842068,-0.0013
 7356,-0.00991324,-0.02885950,-0.00007425,-0.00506135,0.00124788,-0.000
 28138,-0.00084710,0.00067802,-0.00000489,0.00064142,0.00074033,0.00001
 629,0.12899354,-0.00016571,0.00021066,-0.00002080,0.00372238,-0.002922
 75,0.00019784,-0.01498715,-0.01675528,-0.00022602,-0.11840634,-0.27522
 350,-0.00095033,0.00274788,0.00368731,0.00007003,0.00078152,0.00184822
 ,0.00004656,0.00083111,0.00024669,0.00001911,-0.00063909,-0.00089461,-
 0.00001932,0.12606638,0.28934447,0.00001925,-0.00001300,-0.00070155,-0
 .00023327,0.00019339,0.00675733,0.00041978,0.00052842,0.00243125,-0.00
 135858,-0.00083549,-0.03715467,-0.00037392,-0.00075410,0.00379139,-0.0
 0053210,-0.00002816,0.00773215,-0.00006234,0.00003077,-0.00113176,0.00
 002479,0.00003577,0.00010897,0.00173121,0.00094107,0.02505152,-0.00049
 221,-0.00001091,-0.00001611,-0.00076710,-0.00060144,0.00001138,-0.0045
 8503,-0.00090022,-0.00036040,-0.01103658,0.02785064,-0.00056661,-0.126
 48795,0.12005565,-0.00416242,0.00989758,-0.01397562,0.00022763,-0.0009
 0827,-0.00342548,-0.00021497,0.00005265,0.00011325,0.00002737,0.001140
 56,-0.00023306,0.00017052,0.13183121,-0.00001715,0.00002889,-0.0000002
 6,-0.00076482,0.00010613,-0.00003418,-0.00095241,0.00182447,0.00005881
 ,-0.00338092,0.00384865,-0.00015037,0.12011588,-0.27029787,0.00608455,
 0.01577089,-0.01764558,0.00079420,-0.00370582,-0.00330908,0.00002329,0
 .00015251,-0.00003056,-0.00000915,0.00031453,0.00070821,-0.00005780,-0
 .12862215,0.28449737,-0.00001417,-0.00000137,-0.00009955,-0.00002960,-
 0.00004254,-0.00106074,-0.00036213,0.00007505,0.00763798,-0.00033708,0
 .00081667,0.00364052,-0.00403586,0.00640532,-0.03892796,-0.00062961,-0
 .00027215,0.00449068,-0.00010912,-0.00016153,0.00684053,0.00002320,0.0
 0000189,-0.00090248,0.00015025,-0.00005834,-0.00447344,0.00466800,-0.0
 0663573,0.02643137,0.00011207,-0.00005535,0.00001065,-0.01068163,-0.02
 802664,-0.00019030,-0.00458247,0.00055238,-0.00036910,-0.00073979,0.00
 057726,0.00001101,-0.00100519,0.00345188,-0.00026589,0.00995317,0.0143
 3784,0.00004386,-0.12330347,-0.11824277,-0.00252563,0.00110105,0.00024
 693,0.00016501,0.00007955,-0.00010725,0.00003068,0.00054166,0.00074284
 ,0.00004701,0.12836144,-0.00004120,-0.00003080,0.00000081,0.00317721,0
 .00344517,0.00014469,0.00088267,0.00185367,0.00001503,0.00074585,0.000
 11693,0.00001963,0.00375696,-0.00320660,0.00010784,-0.01543633,-0.0177
 0062,-0.00049346,-0.11823236,-0.27319993,-0.00299614,-0.00029653,0.000
 69415,-0.00000971,-0.00014931,-0.00003418,-0.00000191,-0.00072299,-0.0
 0105932,0.00000882,0.12662549,0.28771105,0.00000674,-0.00000243,-0.000
 08626,-0.00037159,-0.00082312,0.00367565,-0.00037298,-0.00001162,0.007
 57698,-0.00003530,0.00002683,-0.00118552,-0.00016373,0.00029751,0.0069
 3792,-0.00042414,0.00056028,0.00447516,-0.00239579,-0.00331452,-0.0386
 4856,0.00015132,-0.00000950,-0.00441774,0.00002669,-0.00001369,-0.0009
 3111,0.00005718,0.00000471,-0.00009842,0.00291138,0.00319120,0.0261971
 6,-0.02720364,0.04117776,-0.00103686,-0.03327027,-0.00168149,-0.000922
 45,-0.15662223,-0.03162506,-0.00368858,-0.02549853,0.00401587,-0.00077
 021,0.00301854,0.00088215,-0.00001040,-0.00183478,-0.00003426,-0.00058
 117,0.00311943,-0.00256153,-0.00004034,0.00083868,0.00104576,0.0000734
 9,0.00050114,0.00039902,0.00001759,-0.00036323,0.00000475,-0.00002023,
 -0.00098470,0.00001478,-0.00004194,0.23970193,0.01096254,-0.26830986,0
 .00203022,-0.02523278,0.00139330,-0.00071120,-0.00347242,-0.05928365,0
 .00019325,0.02958035,0.00506786,0.00081367,-0.00157527,-0.00578575,-0.
 00001803,-0.00021670,0.00269299,-0.00000335,0.00238099,-0.00459411,0.0
 0017219,-0.00206635,-0.00027385,-0.00009516,0.00084045,-0.00020495,-0.
 00000080,0.00113354,0.00000517,0.00003718,-0.00075139,0.00007549,-0.00
 002077,-0.01175074,0.32909184,-0.00084281,0.00290199,-0.00013824,-0.00
 088520,-0.00012003,0.00185842,-0.00387513,-0.00060182,-0.01869693,-0.0
 0104651,0.00014398,0.00267977,0.00003672,0.00011543,0.00347344,-0.0001
 0953,-0.00003746,-0.00121867,-0.00004330,-0.00004029,0.00566001,0.0001
 0774,0.00000228,-0.00207242,0.00004607,-0.00001481,-0.00142265,-0.0000
 3989,0.00000697,0.00020649,-0.00005653,-0.00000833,0.00022253,0.006578
 72,-0.00236753,0.00998289,-0.00002779,-0.00001887,0.00000595,0.0023551
 5,0.00107805,-0.00049876,-0.00097475,-0.00002791,-0.00018441,0.0023490
 8,-0.00098532,-0.00050124,-0.02060601,-0.00308117,-0.00032037,-0.22658
 094,-0.00097184,-0.00127214,-0.02110691,0.00278449,-0.00034096,-0.0001
 1693,-0.00011268,0.00011011,-0.00010609,0.00010946,0.00010965,0.000931
 77,0.00120430,0.00051876,0.00091081,-0.00118280,0.00052709,-0.00003093
 ,0.00003022,0.00012514,0.49747065,-0.00009168,0.00002843,-0.00005870,0
 .00149410,-0.00462431,-0.00107208,0.00000214,-0.00014695,-0.00002485,-
 0.00145735,-0.00461326,0.00122534,-0.03000785,0.00313745,0.00020271,-0
 .00092052,-0.08884576,0.00013507,0.02976003,0.00350392,-0.00020722,0.0
 0130901,0.00003741,0.00011498,-0.00131078,0.00000969,-0.00011363,-0.00
 079005,0.00093266,-0.00077091,0.00077699,0.00094856,0.00072099,0.00010
 636,0.00014573,0.00006561,-0.00064131,0.58738125,0.00004441,0.00004380
 ,-0.00009115,-0.00082037,0.00091650,0.00675571,0.00013633,-0.00000290,
 -0.00090417,-0.00080205,-0.00076561,0.00672851,-0.00110719,0.00058190,
 0.00432507,-0.00532401,0.00009128,-0.07066676,-0.00149128,-0.00058452,
 0.00434245,-0.00012914,-0.00003841,0.00002515,-0.00011720,0.00003798,0
 .00002363,0.00023761,0.00023775,-0.00347337,0.00023314,-0.00029293,-0.
 00349142,0.00069364,-0.00005649,-0.00050469,0.00947610,-0.00022912,0.5
 4292212,-0.00004606,-0.00005152,0.00002122,-0.00056527,-0.00034620,-0.
 00145061,0.00043822,-0.00002182,0.00020408,-0.00059495,0.00031867,-0.0
 0143447,-0.00041390,0.00121876,-0.00029093,-0.01418151,-0.00006423,0.0
 3038563,-0.00039610,-0.00120865,-0.00028719,-0.00014957,0.00005599,0.0
 0000788,-0.00014759,-0.00006017,0.00001047,0.00007530,-0.00016088,0.00
 060884,0.00007452,0.00017450,0.00061447,-0.00073336,0.00006571,0.00005
 314,-0.07622664,-0.00007007,0.08750317,0.08560660,0.00000489,-0.000000
 72,0.00001365,-0.00122196,-0.00059950,0.00035520,-0.00000664,0.0013258
 4,-0.00003938,0.00121273,-0.00059045,-0.00032816,-0.00198815,-0.000526
 77,-0.00030970,-0.00010831,0.00008589,0.00023505,0.00199913,-0.0005118
 0,0.00027789,0.00000375,-0.00001459,-0.00003991,-0.00000634,-0.0000149
 2,0.00004157,-0.00003389,-0.00001661,0.00013463,0.00003429,-0.00001846
 ,-0.00012073,-0.00000335,-0.00004954,-0.00000961,-0.00007171,-0.044600
 60,0.00028537,0.00014578,0.04329803,0.00000056,0.00000098,0.00000070,0
 .00048155,-0.00001031,0.00001378,-0.00030047,-0.00001368,-0.00004974,0
 .00046465,0.00002532,0.00001603,-0.00017919,-0.00050503,0.00029463,-0.
 00004043,0.00001248,0.00430548,-0.00021374,0.00050585,0.00030904,0.000
 04710,0.00000233,0.00001931,0.00004635,-0.00000105,0.00002004,0.000063
 72,-0.00005464,-0.00017010,0.00006489,0.00005175,-0.00017564,0.0000558
 5,0.00000075,-0.00003894,0.08509240,0.00026894,-0.27796452,-0.09449814
 ,-0.00030198,0.29908580,-0.00000363,-0.00003385,0.00000226,-0.00046838
 ,0.00125882,0.00086332,0.00027972,-0.00010508,-0.00012148,-0.00010024,
 0.00030534,0.00035433,0.00154468,0.00136998,0.00040424,-0.01185303,0.0
 2791893,-0.01506431,-0.00544671,-0.00170977,-0.00057736,-0.00046840,0.
 00001792,0.00002774,0.00002187,-0.00003104,-0.00000059,0.00010668,-0.0
 0074349,-0.00019126,0.00006321,-0.00005013,-0.00028543,-0.00034198,0.0
 0000139,-0.00004067,-0.08018173,0.07435750,-0.04502930,0.00370363,-0.0
 0971287,0.00447711,0.08950618,-0.00000774,-0.00000230,0.00001552,-0.00
 008574,-0.00019246,0.00005404,-0.00018759,0.00027869,-0.00004891,0.000
 51425,0.00016166,-0.00049431,-0.00191859,0.00042658,-0.00043474,-0.000
 84645,0.00061273,-0.00205187,0.00044760,0.00059420,0.00050176,0.000067
 68,0.00000056,0.00000009,0.00006402,-0.00000483,0.00003438,0.00010655,
 0.00018043,0.00050751,-0.00005943,0.00022561,0.00003383,0.00002744,0.0
 0001382,0.00006451,0.07772113,-0.22533689,0.10217231,-0.00089385,0.001
 07995,-0.00083456,-0.08405341,0.24006905,-0.00001060,-0.00000938,0.000
 00074,0.00068081,0.00010289,0.00012542,0.00001673,-0.00051956,-0.00003
 548,-0.00036347,0.00020701,-0.00002490,0.00027865,-0.00004663,0.000614
 22,0.00253181,-0.00211138,-0.00008108,-0.00009612,0.00000227,0.0005156
 1,0.00001230,0.00000191,-0.00006708,-0.00002108,-0.00000575,-0.0000363
 3,-0.00016594,-0.00015220,-0.00006752,0.00006147,0.00011435,0.00001863
 ,-0.00014979,0.00003048,0.00000254,-0.04720730,0.10242736,-0.10433758,
 -0.01089344,0.02469966,-0.01286028,0.04851000,-0.11221244,0.10824248,-
 0.00004343,-0.00001799,-0.00002722,-0.00009748,-0.00030508,0.00037899,
 0.00028273,0.00006828,-0.00013152,-0.00048327,-0.00122961,0.00088380,-
 0.00539744,0.00163388,-0.00059854,-0.01151969,-0.02813066,-0.01498744,
 0.00153127,-0.00134267,0.00041286,0.00001742,0.00003172,0.00000092,-0.
 00046425,-0.00002793,0.00002687,0.00006296,0.00004194,-0.00028701,0.00
 009979,0.00073418,-0.00020398,-0.00029607,0.00007044,-0.00000798,-0.07
 805872,-0.07251650,-0.04350385,0.00355667,0.00975265,0.00443778,0.0036
 3813,0.00910414,0.00681597,0.08717139,-0.00001092,-0.00000144,0.000014
 56,-0.00053533,0.00014942,0.00049898,0.00019119,0.00029257,0.00004300,
 0.00008582,-0.00021438,-0.00001972,-0.00053938,0.00060429,-0.00051965,
 0.00066957,0.00027108,0.00185579,0.00193196,0.00043039,0.00044930,-0.0
 0006377,-0.00000575,-0.00003626,-0.00007174,-0.00000023,-0.00000050,0.
 00005618,0.00022703,-0.00004449,-0.00010306,0.00017928,-0.00051897,-0.
 00001745,0.00001550,-0.00010088,-0.07583403,-0.22795730,-0.10239691,0.
 00089798,0.00115424,0.00085285,-0.00879022,-0.01810680,-0.01252857,0.0
 8213320,0.24296209,-0.00000536,-0.00001244,-0.00000105,-0.00036039,-0.
 00021554,-0.00001968,0.00001044,0.00051456,-0.00004613,0.00068408,-0.0
 0009318,0.00011659,-0.00008482,0.00000285,0.00049922,0.00250878,0.0021
 5061,-0.00007448,0.00025271,0.00005700,0.00061489,-0.00002176,0.000004
 29,-0.00003576,0.00001477,-0.00000249,-0.00006478,0.00006292,-0.000115
 94,0.00002603,-0.00017163,0.00014836,-0.00006938,-0.00015731,-0.000004
 41,0.00000644,-0.04564001,-0.10268449,-0.10368898,-0.01055415,-0.02489
 354,-0.01280560,0.00667139,0.01269288,0.00799060,0.04679034,0.11245147
 ,0.10755208\\-0.00000326,-0.00000097,-0.00000071,-0.00002434,-0.000011
 89,0.00000427,-0.00001387,0.00002986,-0.00000509,0.00001790,-0.0000156
 6,0.00000162,-0.00002479,-0.00001752,-0.00000194,0.00001374,0.00003314
 ,-0.00000131,0.00002195,-0.00001531,0.00000325,0.00000066,0.00000037,-
 0.00000282,0.00000500,-0.00000426,-0.00000296,0.00000383,0.00000073,0.
 00000068,-0.00000432,0.00000334,-0.00000055,0.00001215,-0.00000855,0.0
 0000465,-0.00000471,0.00000032,0.00000852,0.00000155,-0.00000049,-0.00
 000231,0.00000050,0.00000179,-0.00000067,-0.00000198,0.00000510,-0.000
 00464\\\@


 ABALONE: AN EXPRESSION OF DISBELIEF.
 Job cpu time:       0 days  0 hours 36 minutes  2.0 seconds.
 Elapsed time:       0 days  0 hours  1 minutes 31.4 seconds.
 File lengths (MBytes):  RWF=    752 Int=      0 D2E=      0 Chk=     24 Scr=     16
 Normal termination of Gaussian 16 at Fri Mar  8 12:26:10 2019.
