/usr/local/Chem-Apps/rung09_d01
 Entering Gaussian System, Link 0=/usr/local/Chem-Apps/Gaussian/g09_d01/g09
 Initial command:
 /usr/local/Chem-Apps/Gaussian/g09_d01/l1.exe "/scratch/rp10/LSF_58055/Gau-421392.inp" -scrdir="/scratch/rp10/LSF_58055/"
 Entering Link 1 = /usr/local/Chem-Apps/Gaussian/g09_d01/l1.exe PID=    421393.
  
 Copyright (c) 1988,1990,1992,1993,1995,1998,2003,2009,2013,
            Gaussian, Inc.  All Rights Reserved.
  
 This is part of the Gaussian(R) 09 program.  It is based on
 the Gaussian(R) 03 system (copyright 2003, Gaussian, Inc.),
 the Gaussian(R) 98 system (copyright 1998, Gaussian, Inc.),
 the Gaussian(R) 94 system (copyright 1995, Gaussian, Inc.),
 the Gaussian 92(TM) system (copyright 1992, Gaussian, Inc.),
 the Gaussian 90(TM) system (copyright 1990, Gaussian, Inc.),
 the Gaussian 88(TM) system (copyright 1988, Gaussian, Inc.),
 the Gaussian 86(TM) system (copyright 1986, Carnegie Mellon
 University), and the Gaussian 82(TM) system (copyright 1983,
 Carnegie Mellon University). Gaussian is a federally registered
 trademark of Gaussian, Inc.
  
 This software contains proprietary and confidential information,
 including trade secrets, belonging to Gaussian, Inc.
  
 This software is provided under written license and may be
 used, copied, transmitted, or stored only in accord with that
 written license.
  
 The following legend is applicable only to US Government
 contracts under FAR:
  
                    RESTRICTED RIGHTS LEGEND
  
 Use, reproduction and disclosure by the US Government is
 subject to restrictions as set forth in subparagraphs (a)
 and (c) of the Commercial Computer Software - Restricted
 Rights clause in FAR 52.227-19.
  
 Gaussian, Inc.
 340 Quinnipiac St., Bldg. 40, Wallingford CT 06492
  
  
 ---------------------------------------------------------------
 Warning -- This program may not be used in any manner that
 competes with the business of Gaussian, Inc. or will provide
 assistance to any competitor of Gaussian, Inc.  The licensee
 of this program is prohibited from giving any competitor of
 Gaussian, Inc. access to this program.  By using this program,
 the user acknowledges that Gaussian, Inc. is engaged in the
 business of creating and licensing software in the field of
 computational chemistry and represents and warrants to the
 licensee that it is not a competitor of Gaussian, Inc. and that
 it will not use this program in any manner prohibited above.
 ---------------------------------------------------------------
  

 Cite this work as:
 Gaussian 09, Revision D.01,
 M. J. Frisch, G. W. Trucks, H. B. Schlegel, G. E. Scuseria, 
 M. A. Robb, J. R. Cheeseman, G. Scalmani, V. Barone, B. Mennucci, 
 G. A. Petersson, H. Nakatsuji, M. Caricato, X. Li, H. P. Hratchian, 
 A. F. Izmaylov, J. Bloino, G. Zheng, J. L. Sonnenberg, M. Hada, 
 M. Ehara, K. Toyota, R. Fukuda, J. Hasegawa, M. Ishida, T. Nakajima, 
 Y. Honda, O. Kitao, H. Nakai, T. Vreven, J. A. Montgomery, Jr., 
 J. E. Peralta, F. Ogliaro, M. Bearpark, J. J. Heyd, E. Brothers, 
 K. N. Kudin, V. N. Staroverov, T. Keith, R. Kobayashi, J. Normand, 
 K. Raghavachari, A. Rendell, J. C. Burant, S. S. Iyengar, J. Tomasi, 
 M. Cossi, N. Rega, J. M. Millam, M. Klene, J. E. Knox, J. B. Cross, 
 V. Bakken, C. Adamo, J. Jaramillo, R. Gomperts, R. E. Stratmann, 
 O. Yazyev, A. J. Austin, R. Cammi, C. Pomelli, J. W. Ochterski, 
 R. L. Martin, K. Morokuma, V. G. Zakrzewski, G. A. Voth, 
 P. Salvador, J. J. Dannenberg, S. Dapprich, A. D. Daniels, 
 O. Farkas, J. B. Foresman, J. V. Ortiz, J. Cioslowski, 
 and D. J. Fox, Gaussian, Inc., Wallingford CT, 2013.
 
 ******************************************
 Gaussian 09:  ES64L-G09RevD.01 24-Apr-2013
                19-Jun-2015 
 ******************************************
 %nprocshared=16
 Will use up to   16 processors via shared memory.
 %mem=16GB
 Default route:  CacheSize=163840
 ----------------------------------------------------------
 # opt(Ts,calcfc,noeigentest,maxstep=10) freq 6-31g(d) M06L
 ----------------------------------------------------------
 1/4=163840,5=1,8=10,10=4,11=1,14=-1,18=20,26=3,38=1/1,3;
 2/4=163840,9=110,12=2,17=6,18=5,40=1/2;
 3/4=163840,5=1,6=6,7=1,11=2,16=1,25=1,30=1,71=2,74=-53,140=1/1,2,3;
 4/4=163840/1;
 5/4=163840,5=2,38=5/2;
 8/4=163840,6=4,10=90,11=11/1;
 11/4=163840,6=1,8=1,9=11,15=111,16=1/1,2,10;
 10/4=163840,6=1,13=1/2;
 6/4=163840,7=2,8=2,9=2,10=2,28=1/1;
 7/4=163840,10=1,18=20,25=1/1,2,3,16;
 1/4=163840,5=1,8=10,10=4,11=1,14=-1,18=20,26=3/3(2);
 2/4=163840,9=110/2;
 99/4=163840/99;
 2/4=163840,9=110/2;
 3/4=163840,5=1,6=6,7=1,11=2,16=1,25=1,30=1,71=1,74=-53/1,2,3;
 4/4=163840,5=5,16=3,69=1/1;
 5/4=163840,5=2,38=5/2;
 7/4=163840/1,2,3,16;
 1/4=163840,5=1,8=10,11=1,14=-1,18=20,26=3/3(-5);
 2/4=163840,9=110/2;
 6/4=163840,7=2,8=2,9=2,10=2,19=2,28=1/1;
 99/4=163840,9=1/99;
 -------------------
 Title Card Required
 -------------------
 Symbolic Z-matrix:
 Charge =  1 Multiplicity = 1
 C                     0.36703   0.69275  -0.88106 
 C                     0.47951  -0.81183  -0.74136 
 H                     0.4273    0.96852  -1.93755 
 H                    -0.0569   -1.23793  -1.60086 
 O                    -1.37018   1.04927  -0.55897 
 H                    -1.45566   2.02195  -0.54094 
 C                    -2.40841   0.48863  -1.42947 
 N                     1.89303  -0.89098  -1.07898 
 C                     2.27417  -1.73883  -2.22057 
 C                     2.93459  -0.94968  -0.05495 
 H                     1.6657   -2.65738  -2.24312 
 H                     2.0851   -1.20111  -3.16123 
 H                     2.91642  -0.05119   0.57669 
 H                    -2.16128  -0.5766   -1.48972 
 H                     2.81045  -1.8277    0.6032 
 H                    -2.31288   0.94254  -2.42615 
 C                    -0.04732  -1.51822   0.48191 
 C                    -1.05402  -2.47344   0.29667 
 C                     0.41973  -1.29009   1.78285 
 C                    -1.60172  -3.16413   1.37311 
 H                    -1.40846  -2.68674  -0.71443 
 C                    -0.12859  -1.97702   2.86158 
 H                     1.22128  -0.57722   1.96139 
 C                    -1.14378  -2.90989   2.66209 
 H                    -2.38137  -3.90385   1.20371 
 H                     0.24817  -1.78853   3.86477 
 H                    -1.56711  -3.44584   3.50872 
 C                     1.01228   1.67032   0.01065 
 C                     0.61545   1.85988   1.34373 
 C                     2.06996   2.43253  -0.50872 
 C                     1.28666   2.77834   2.14295 
 H                    -0.22255   1.29261   1.74451 
 C                     2.75437   3.32701   0.30359 
 H                     2.37365   2.28626  -1.54504 
 C                     2.3625    3.50091   1.63007 
 H                     0.97028   2.92858   3.17264 
 H                     3.58665   3.89793  -0.10113 
 H                     2.8906    4.21019   2.26355 
 C                     3.75915  -2.04232  -1.99925 
 C                     4.18905  -1.06927  -0.90153 
 H                     4.34793  -1.94216  -2.9154 
 H                     3.87955  -3.07401  -1.64911 
 H                     4.44096  -0.08793  -1.32476 
 H                     5.05337  -1.42093  -0.33095 
 C                    -3.78954   0.70204  -0.8196 
 C                    -4.79642   0.15282  -1.83167 
 H                    -5.81438   0.24603  -1.43792 
 H                    -4.75974   0.69709  -2.78351 
 H                    -4.6218   -0.91026  -2.03964 
 C                    -3.89718  -0.06109   0.50049 
 H                    -3.78736  -1.14158   0.34535 
 H                    -3.12751   0.24843   1.2193 
 H                    -4.87541   0.11014   0.9634 
 C                    -4.03944   2.19512  -0.59645 
 H                    -3.89008   2.78018  -1.51422 
 H                    -5.07185   2.36437  -0.27272 
 H                    -3.40102   2.61163   0.19552 
 
 Add virtual bond connecting atoms O5         and C1         Dist= 3.41D+00.

 GradGradGradGradGradGradGradGradGradGradGradGradGradGradGradGradGradGrad
 Berny optimization.
 Initialization pass.
                           ----------------------------
                           !    Initial Parameters    !
                           ! (Angstroms and Degrees)  !
 --------------------------                            --------------------------
 ! Name  Definition              Value          Derivative Info.                !
 --------------------------------------------------------------------------------
 ! R1    R(1,2)                  1.5152         calculate D2E/DX2 analytically  !
 ! R2    R(1,3)                  1.0935         calculate D2E/DX2 analytically  !
 ! R3    R(1,5)                  1.8024         calculate D2E/DX2 analytically  !
 ! R4    R(1,28)                 1.4721         calculate D2E/DX2 analytically  !
 ! R5    R(2,4)                  1.0991         calculate D2E/DX2 analytically  !
 ! R6    R(2,8)                  1.4554         calculate D2E/DX2 analytically  !
 ! R7    R(2,17)                 1.5076         calculate D2E/DX2 analytically  !
 ! R8    R(5,6)                  0.9766         calculate D2E/DX2 analytically  !
 ! R9    R(5,7)                  1.4663         calculate D2E/DX2 analytically  !
 ! R10   R(7,14)                 1.0952         calculate D2E/DX2 analytically  !
 ! R11   R(7,16)                 1.0993         calculate D2E/DX2 analytically  !
 ! R12   R(7,45)                 1.5248         calculate D2E/DX2 analytically  !
 ! R13   R(8,9)                  1.4722         calculate D2E/DX2 analytically  !
 ! R14   R(8,10)                 1.4618         calculate D2E/DX2 analytically  !
 ! R15   R(9,11)                 1.102          calculate D2E/DX2 analytically  !
 ! R16   R(9,12)                 1.0999         calculate D2E/DX2 analytically  !
 ! R17   R(9,39)                 1.5318         calculate D2E/DX2 analytically  !
 ! R18   R(10,13)                1.0984         calculate D2E/DX2 analytically  !
 ! R19   R(10,15)                1.1043         calculate D2E/DX2 analytically  !
 ! R20   R(10,40)                1.5181         calculate D2E/DX2 analytically  !
 ! R21   R(17,18)                1.4001         calculate D2E/DX2 analytically  !
 ! R22   R(17,19)                1.4009         calculate D2E/DX2 analytically  !
 ! R23   R(18,20)                1.3913         calculate D2E/DX2 analytically  !
 ! R24   R(18,21)                1.0925         calculate D2E/DX2 analytically  !
 ! R25   R(19,22)                1.3915         calculate D2E/DX2 analytically  !
 ! R26   R(19,23)                1.0874         calculate D2E/DX2 analytically  !
 ! R27   R(20,24)                1.3913         calculate D2E/DX2 analytically  !
 ! R28   R(20,25)                1.088          calculate D2E/DX2 analytically  !
 ! R29   R(22,24)                1.3931         calculate D2E/DX2 analytically  !
 ! R30   R(22,26)                1.0881         calculate D2E/DX2 analytically  !
 ! R31   R(24,27)                1.0878         calculate D2E/DX2 analytically  !
 ! R32   R(28,29)                1.4038         calculate D2E/DX2 analytically  !
 ! R33   R(28,30)                1.4034         calculate D2E/DX2 analytically  !
 ! R34   R(29,31)                1.3903         calculate D2E/DX2 analytically  !
 ! R35   R(29,32)                1.0884         calculate D2E/DX2 analytically  !
 ! R36   R(30,33)                1.3886         calculate D2E/DX2 analytically  !
 ! R37   R(30,34)                1.0898         calculate D2E/DX2 analytically  !
 ! R38   R(31,35)                1.3938         calculate D2E/DX2 analytically  !
 ! R39   R(31,36)                1.0876         calculate D2E/DX2 analytically  !
 ! R40   R(33,35)                1.394          calculate D2E/DX2 analytically  !
 ! R41   R(33,37)                1.0874         calculate D2E/DX2 analytically  !
 ! R42   R(35,38)                1.0878         calculate D2E/DX2 analytically  !
 ! R43   R(39,40)                1.5286         calculate D2E/DX2 analytically  !
 ! R44   R(39,41)                1.0936         calculate D2E/DX2 analytically  !
 ! R45   R(39,42)                1.0961         calculate D2E/DX2 analytically  !
 ! R46   R(40,43)                1.098          calculate D2E/DX2 analytically  !
 ! R47   R(40,44)                1.0937         calculate D2E/DX2 analytically  !
 ! R48   R(45,46)                1.5296         calculate D2E/DX2 analytically  !
 ! R49   R(45,50)                1.5286         calculate D2E/DX2 analytically  !
 ! R50   R(45,54)                1.5302         calculate D2E/DX2 analytically  !
 ! R51   R(46,47)                1.0954         calculate D2E/DX2 analytically  !
 ! R52   R(46,48)                1.0971         calculate D2E/DX2 analytically  !
 ! R53   R(46,49)                1.0972         calculate D2E/DX2 analytically  !
 ! R54   R(50,51)                1.0971         calculate D2E/DX2 analytically  !
 ! R55   R(50,52)                1.0977         calculate D2E/DX2 analytically  !
 ! R56   R(50,53)                1.0957         calculate D2E/DX2 analytically  !
 ! R57   R(54,55)                1.0986         calculate D2E/DX2 analytically  !
 ! R58   R(54,56)                1.0951         calculate D2E/DX2 analytically  !
 ! R59   R(54,57)                1.0992         calculate D2E/DX2 analytically  !
 ! A1    A(2,1,3)              109.5962         calculate D2E/DX2 analytically  !
 ! A2    A(2,1,5)              104.5653         calculate D2E/DX2 analytically  !
 ! A3    A(2,1,28)             124.8202         calculate D2E/DX2 analytically  !
 ! A4    A(3,1,5)              100.1297         calculate D2E/DX2 analytically  !
 ! A5    A(3,1,28)             113.1778         calculate D2E/DX2 analytically  !
 ! A6    A(5,1,28)             100.5364         calculate D2E/DX2 analytically  !
 ! A7    A(1,2,4)              106.0591         calculate D2E/DX2 analytically  !
 ! A8    A(1,2,8)               96.0102         calculate D2E/DX2 analytically  !
 ! A9    A(1,2,17)             120.9385         calculate D2E/DX2 analytically  !
 ! A10   A(4,2,8)              105.7541         calculate D2E/DX2 analytically  !
 ! A11   A(4,2,17)             106.3985         calculate D2E/DX2 analytically  !
 ! A12   A(8,2,17)             120.1402         calculate D2E/DX2 analytically  !
 ! A13   A(1,5,6)              106.5391         calculate D2E/DX2 analytically  !
 ! A14   A(1,5,7)              120.0481         calculate D2E/DX2 analytically  !
 ! A15   A(6,5,7)              109.2575         calculate D2E/DX2 analytically  !
 ! A16   A(5,7,14)             104.1694         calculate D2E/DX2 analytically  !
 ! A17   A(5,7,16)             108.5921         calculate D2E/DX2 analytically  !
 ! A18   A(5,7,45)             110.5111         calculate D2E/DX2 analytically  !
 ! A19   A(14,7,16)            109.3976         calculate D2E/DX2 analytically  !
 ! A20   A(14,7,45)            111.2555         calculate D2E/DX2 analytically  !
 ! A21   A(16,7,45)            112.553          calculate D2E/DX2 analytically  !
 ! A22   A(2,8,9)              117.5568         calculate D2E/DX2 analytically  !
 ! A23   A(2,8,10)             122.1184         calculate D2E/DX2 analytically  !
 ! A24   A(9,8,10)             109.6103         calculate D2E/DX2 analytically  !
 ! A25   A(8,9,11)             110.6679         calculate D2E/DX2 analytically  !
 ! A26   A(8,9,12)             109.7017         calculate D2E/DX2 analytically  !
 ! A27   A(8,9,39)             104.6582         calculate D2E/DX2 analytically  !
 ! A28   A(11,9,12)            107.1627         calculate D2E/DX2 analytically  !
 ! A29   A(11,9,39)            111.9056         calculate D2E/DX2 analytically  !
 ! A30   A(12,9,39)            112.7737         calculate D2E/DX2 analytically  !
 ! A31   A(8,10,13)            110.9888         calculate D2E/DX2 analytically  !
 ! A32   A(8,10,15)            111.6745         calculate D2E/DX2 analytically  !
 ! A33   A(8,10,40)            101.6118         calculate D2E/DX2 analytically  !
 ! A34   A(13,10,15)           107.8051         calculate D2E/DX2 analytically  !
 ! A35   A(13,10,40)           113.5016         calculate D2E/DX2 analytically  !
 ! A36   A(15,10,40)           111.2607         calculate D2E/DX2 analytically  !
 ! A37   A(2,17,18)            117.6182         calculate D2E/DX2 analytically  !
 ! A38   A(2,17,19)            124.1029         calculate D2E/DX2 analytically  !
 ! A39   A(18,17,19)           118.2733         calculate D2E/DX2 analytically  !
 ! A40   A(17,18,20)           121.2908         calculate D2E/DX2 analytically  !
 ! A41   A(17,18,21)           119.2716         calculate D2E/DX2 analytically  !
 ! A42   A(20,18,21)           119.4348         calculate D2E/DX2 analytically  !
 ! A43   A(17,19,22)           120.5406         calculate D2E/DX2 analytically  !
 ! A44   A(17,19,23)           120.3277         calculate D2E/DX2 analytically  !
 ! A45   A(22,19,23)           119.1305         calculate D2E/DX2 analytically  !
 ! A46   A(18,20,24)           119.7685         calculate D2E/DX2 analytically  !
 ! A47   A(18,20,25)           119.9436         calculate D2E/DX2 analytically  !
 ! A48   A(24,20,25)           120.287          calculate D2E/DX2 analytically  !
 ! A49   A(19,22,24)           120.4467         calculate D2E/DX2 analytically  !
 ! A50   A(19,22,26)           119.525          calculate D2E/DX2 analytically  !
 ! A51   A(24,22,26)           120.0253         calculate D2E/DX2 analytically  !
 ! A52   A(20,24,22)           119.6621         calculate D2E/DX2 analytically  !
 ! A53   A(20,24,27)           120.1949         calculate D2E/DX2 analytically  !
 ! A54   A(22,24,27)           120.1384         calculate D2E/DX2 analytically  !
 ! A55   A(1,28,29)            122.7515         calculate D2E/DX2 analytically  !
 ! A56   A(1,28,30)            117.8297         calculate D2E/DX2 analytically  !
 ! A57   A(29,28,30)           119.4183         calculate D2E/DX2 analytically  !
 ! A58   A(28,29,31)           119.9105         calculate D2E/DX2 analytically  !
 ! A59   A(28,29,32)           119.7993         calculate D2E/DX2 analytically  !
 ! A60   A(31,29,32)           120.2882         calculate D2E/DX2 analytically  !
 ! A61   A(28,30,33)           120.3194         calculate D2E/DX2 analytically  !
 ! A62   A(28,30,34)           119.2792         calculate D2E/DX2 analytically  !
 ! A63   A(33,30,34)           120.3575         calculate D2E/DX2 analytically  !
 ! A64   A(29,31,35)           120.2398         calculate D2E/DX2 analytically  !
 ! A65   A(29,31,36)           119.6733         calculate D2E/DX2 analytically  !
 ! A66   A(35,31,36)           120.0866         calculate D2E/DX2 analytically  !
 ! A67   A(30,33,35)           119.896          calculate D2E/DX2 analytically  !
 ! A68   A(30,33,37)           119.8485         calculate D2E/DX2 analytically  !
 ! A69   A(35,33,37)           120.2515         calculate D2E/DX2 analytically  !
 ! A70   A(31,35,33)           120.1624         calculate D2E/DX2 analytically  !
 ! A71   A(31,35,38)           119.8992         calculate D2E/DX2 analytically  !
 ! A72   A(33,35,38)           119.9351         calculate D2E/DX2 analytically  !
 ! A73   A(9,39,40)            104.4942         calculate D2E/DX2 analytically  !
 ! A74   A(9,39,41)            112.5038         calculate D2E/DX2 analytically  !
 ! A75   A(9,39,42)            109.8237         calculate D2E/DX2 analytically  !
 ! A76   A(40,39,41)           113.0714         calculate D2E/DX2 analytically  !
 ! A77   A(40,39,42)           109.8072         calculate D2E/DX2 analytically  !
 ! A78   A(41,39,42)           107.1376         calculate D2E/DX2 analytically  !
 ! A79   A(10,40,39)           102.6045         calculate D2E/DX2 analytically  !
 ! A80   A(10,40,43)           109.5193         calculate D2E/DX2 analytically  !
 ! A81   A(10,40,44)           112.7933         calculate D2E/DX2 analytically  !
 ! A82   A(39,40,43)           110.8945         calculate D2E/DX2 analytically  !
 ! A83   A(39,40,44)           113.0922         calculate D2E/DX2 analytically  !
 ! A84   A(43,40,44)           107.8862         calculate D2E/DX2 analytically  !
 ! A85   A(7,45,46)            106.3403         calculate D2E/DX2 analytically  !
 ! A86   A(7,45,50)            109.8354         calculate D2E/DX2 analytically  !
 ! A87   A(7,45,54)            110.0485         calculate D2E/DX2 analytically  !
 ! A88   A(46,45,50)           110.2301         calculate D2E/DX2 analytically  !
 ! A89   A(46,45,54)           109.8364         calculate D2E/DX2 analytically  !
 ! A90   A(50,45,54)           110.4681         calculate D2E/DX2 analytically  !
 ! A91   A(45,46,47)           110.0796         calculate D2E/DX2 analytically  !
 ! A92   A(45,46,48)           111.9578         calculate D2E/DX2 analytically  !
 ! A93   A(45,46,49)           111.6254         calculate D2E/DX2 analytically  !
 ! A94   A(47,46,48)           107.5003         calculate D2E/DX2 analytically  !
 ! A95   A(47,46,49)           107.365          calculate D2E/DX2 analytically  !
 ! A96   A(48,46,49)           108.1139         calculate D2E/DX2 analytically  !
 ! A97   A(45,50,51)           111.2549         calculate D2E/DX2 analytically  !
 ! A98   A(45,50,52)           112.0473         calculate D2E/DX2 analytically  !
 ! A99   A(45,50,53)           110.469          calculate D2E/DX2 analytically  !
 ! A100  A(51,50,52)           107.4652         calculate D2E/DX2 analytically  !
 ! A101  A(51,50,53)           107.6399         calculate D2E/DX2 analytically  !
 ! A102  A(52,50,53)           107.7756         calculate D2E/DX2 analytically  !
 ! A103  A(45,54,55)           112.0617         calculate D2E/DX2 analytically  !
 ! A104  A(45,54,56)           110.3566         calculate D2E/DX2 analytically  !
 ! A105  A(45,54,57)           112.3303         calculate D2E/DX2 analytically  !
 ! A106  A(55,54,56)           107.0261         calculate D2E/DX2 analytically  !
 ! A107  A(55,54,57)           108.732          calculate D2E/DX2 analytically  !
 ! A108  A(56,54,57)           106.0212         calculate D2E/DX2 analytically  !
 ! D1    D(3,1,2,4)            -36.9378         calculate D2E/DX2 analytically  !
 ! D2    D(3,1,2,8)             71.387          calculate D2E/DX2 analytically  !
 ! D3    D(3,1,2,17)          -157.9391         calculate D2E/DX2 analytically  !
 ! D4    D(5,1,2,4)             69.6445         calculate D2E/DX2 analytically  !
 ! D5    D(5,1,2,8)            177.9693         calculate D2E/DX2 analytically  !
 ! D6    D(5,1,2,17)           -51.3568         calculate D2E/DX2 analytically  !
 ! D7    D(28,1,2,4)          -176.0963         calculate D2E/DX2 analytically  !
 ! D8    D(28,1,2,8)           -67.7716         calculate D2E/DX2 analytically  !
 ! D9    D(28,1,2,17)           62.9023         calculate D2E/DX2 analytically  !
 ! D10   D(2,1,5,6)            173.6887         calculate D2E/DX2 analytically  !
 ! D11   D(2,1,5,7)            -61.6136         calculate D2E/DX2 analytically  !
 ! D12   D(3,1,5,6)            -72.8309         calculate D2E/DX2 analytically  !
 ! D13   D(3,1,5,7)             51.8668         calculate D2E/DX2 analytically  !
 ! D14   D(28,1,5,6)            43.2669         calculate D2E/DX2 analytically  !
 ! D15   D(28,1,5,7)           167.9646         calculate D2E/DX2 analytically  !
 ! D16   D(2,1,28,29)          -69.5354         calculate D2E/DX2 analytically  !
 ! D17   D(2,1,28,30)          110.2196         calculate D2E/DX2 analytically  !
 ! D18   D(3,1,28,29)          152.5457         calculate D2E/DX2 analytically  !
 ! D19   D(3,1,28,30)          -27.6993         calculate D2E/DX2 analytically  !
 ! D20   D(5,1,28,29)           46.6294         calculate D2E/DX2 analytically  !
 ! D21   D(5,1,28,30)         -133.6156         calculate D2E/DX2 analytically  !
 ! D22   D(1,2,8,9)           -122.3016         calculate D2E/DX2 analytically  !
 ! D23   D(1,2,8,10)            96.9339         calculate D2E/DX2 analytically  !
 ! D24   D(4,2,8,9)            -13.7164         calculate D2E/DX2 analytically  !
 ! D25   D(4,2,8,10)          -154.4809         calculate D2E/DX2 analytically  !
 ! D26   D(17,2,8,9)           106.4817         calculate D2E/DX2 analytically  !
 ! D27   D(17,2,8,10)          -34.2829         calculate D2E/DX2 analytically  !
 ! D28   D(1,2,17,18)          119.4412         calculate D2E/DX2 analytically  !
 ! D29   D(1,2,17,19)          -61.4357         calculate D2E/DX2 analytically  !
 ! D30   D(4,2,17,18)           -1.3952         calculate D2E/DX2 analytically  !
 ! D31   D(4,2,17,19)          177.7279         calculate D2E/DX2 analytically  !
 ! D32   D(8,2,17,18)         -121.272          calculate D2E/DX2 analytically  !
 ! D33   D(8,2,17,19)           57.8511         calculate D2E/DX2 analytically  !
 ! D34   D(1,5,7,14)            49.7494         calculate D2E/DX2 analytically  !
 ! D35   D(1,5,7,16)           -66.7591         calculate D2E/DX2 analytically  !
 ! D36   D(1,5,7,45)           169.3309         calculate D2E/DX2 analytically  !
 ! D37   D(6,5,7,14)           173.1477         calculate D2E/DX2 analytically  !
 ! D38   D(6,5,7,16)            56.6392         calculate D2E/DX2 analytically  !
 ! D39   D(6,5,7,45)           -67.2707         calculate D2E/DX2 analytically  !
 ! D40   D(5,7,45,46)          177.0707         calculate D2E/DX2 analytically  !
 ! D41   D(5,7,45,50)          -63.6655         calculate D2E/DX2 analytically  !
 ! D42   D(5,7,45,54)           58.1615         calculate D2E/DX2 analytically  !
 ! D43   D(14,7,45,46)         -67.718          calculate D2E/DX2 analytically  !
 ! D44   D(14,7,45,50)          51.5458         calculate D2E/DX2 analytically  !
 ! D45   D(14,7,45,54)         173.3729         calculate D2E/DX2 analytically  !
 ! D46   D(16,7,45,46)          55.4722         calculate D2E/DX2 analytically  !
 ! D47   D(16,7,45,50)         174.736          calculate D2E/DX2 analytically  !
 ! D48   D(16,7,45,54)         -63.4369         calculate D2E/DX2 analytically  !
 ! D49   D(2,8,9,11)           -38.4698         calculate D2E/DX2 analytically  !
 ! D50   D(2,8,9,12)            79.5693         calculate D2E/DX2 analytically  !
 ! D51   D(2,8,9,39)          -159.1886         calculate D2E/DX2 analytically  !
 ! D52   D(10,8,9,11)          106.8713         calculate D2E/DX2 analytically  !
 ! D53   D(10,8,9,12)         -135.0896         calculate D2E/DX2 analytically  !
 ! D54   D(10,8,9,39)          -13.8475         calculate D2E/DX2 analytically  !
 ! D55   D(2,8,10,13)          -60.9167         calculate D2E/DX2 analytically  !
 ! D56   D(2,8,10,15)           59.4079         calculate D2E/DX2 analytically  !
 ! D57   D(2,8,10,40)          178.0945         calculate D2E/DX2 analytically  !
 ! D58   D(9,8,10,13)          155.6159         calculate D2E/DX2 analytically  !
 ! D59   D(9,8,10,15)          -84.0595         calculate D2E/DX2 analytically  !
 ! D60   D(9,8,10,40)           34.6271         calculate D2E/DX2 analytically  !
 ! D61   D(8,9,39,40)          -12.633          calculate D2E/DX2 analytically  !
 ! D62   D(8,9,39,41)         -135.6726         calculate D2E/DX2 analytically  !
 ! D63   D(8,9,39,42)          105.0923         calculate D2E/DX2 analytically  !
 ! D64   D(11,9,39,40)        -132.5267         calculate D2E/DX2 analytically  !
 ! D65   D(11,9,39,41)         104.4337         calculate D2E/DX2 analytically  !
 ! D66   D(11,9,39,42)         -14.8014         calculate D2E/DX2 analytically  !
 ! D67   D(12,9,39,40)         106.559          calculate D2E/DX2 analytically  !
 ! D68   D(12,9,39,41)         -16.4806         calculate D2E/DX2 analytically  !
 ! D69   D(12,9,39,42)        -135.7157         calculate D2E/DX2 analytically  !
 ! D70   D(8,10,40,39)         -40.9681         calculate D2E/DX2 analytically  !
 ! D71   D(8,10,40,43)          76.8723         calculate D2E/DX2 analytically  !
 ! D72   D(8,10,40,44)        -162.9672         calculate D2E/DX2 analytically  !
 ! D73   D(13,10,40,39)       -160.1838         calculate D2E/DX2 analytically  !
 ! D74   D(13,10,40,43)        -42.3435         calculate D2E/DX2 analytically  !
 ! D75   D(13,10,40,44)         77.8171         calculate D2E/DX2 analytically  !
 ! D76   D(15,10,40,39)         78.0142         calculate D2E/DX2 analytically  !
 ! D77   D(15,10,40,43)       -164.1455         calculate D2E/DX2 analytically  !
 ! D78   D(15,10,40,44)        -43.9849         calculate D2E/DX2 analytically  !
 ! D79   D(2,17,18,20)        -179.5502         calculate D2E/DX2 analytically  !
 ! D80   D(2,17,18,21)           1.0661         calculate D2E/DX2 analytically  !
 ! D81   D(19,17,18,20)          1.2742         calculate D2E/DX2 analytically  !
 ! D82   D(19,17,18,21)       -178.1096         calculate D2E/DX2 analytically  !
 ! D83   D(2,17,19,22)         179.4563         calculate D2E/DX2 analytically  !
 ! D84   D(2,17,19,23)          -0.9416         calculate D2E/DX2 analytically  !
 ! D85   D(18,17,19,22)         -1.4259         calculate D2E/DX2 analytically  !
 ! D86   D(18,17,19,23)        178.1763         calculate D2E/DX2 analytically  !
 ! D87   D(17,18,20,24)         -0.1781         calculate D2E/DX2 analytically  !
 ! D88   D(17,18,20,25)       -179.8393         calculate D2E/DX2 analytically  !
 ! D89   D(21,18,20,24)        179.2046         calculate D2E/DX2 analytically  !
 ! D90   D(21,18,20,25)         -0.4566         calculate D2E/DX2 analytically  !
 ! D91   D(17,19,22,24)          0.4951         calculate D2E/DX2 analytically  !
 ! D92   D(17,19,22,26)        179.869          calculate D2E/DX2 analytically  !
 ! D93   D(23,19,22,24)       -179.1117         calculate D2E/DX2 analytically  !
 ! D94   D(23,19,22,26)          0.2622         calculate D2E/DX2 analytically  !
 ! D95   D(18,20,24,22)         -0.786          calculate D2E/DX2 analytically  !
 ! D96   D(18,20,24,27)        179.997          calculate D2E/DX2 analytically  !
 ! D97   D(25,20,24,22)        178.874          calculate D2E/DX2 analytically  !
 ! D98   D(25,20,24,27)         -0.3429         calculate D2E/DX2 analytically  !
 ! D99   D(19,22,24,20)          0.6302         calculate D2E/DX2 analytically  !
 ! D100  D(19,22,24,27)        179.8476         calculate D2E/DX2 analytically  !
 ! D101  D(26,22,24,20)       -178.7406         calculate D2E/DX2 analytically  !
 ! D102  D(26,22,24,27)          0.4768         calculate D2E/DX2 analytically  !
 ! D103  D(1,28,29,31)         178.5223         calculate D2E/DX2 analytically  !
 ! D104  D(1,28,29,32)          -1.9985         calculate D2E/DX2 analytically  !
 ! D105  D(30,28,29,31)         -1.229          calculate D2E/DX2 analytically  !
 ! D106  D(30,28,29,32)        178.2502         calculate D2E/DX2 analytically  !
 ! D107  D(1,28,30,33)        -177.1297         calculate D2E/DX2 analytically  !
 ! D108  D(1,28,30,34)           0.4706         calculate D2E/DX2 analytically  !
 ! D109  D(29,28,30,33)          2.6338         calculate D2E/DX2 analytically  !
 ! D110  D(29,28,30,34)       -179.7659         calculate D2E/DX2 analytically  !
 ! D111  D(28,29,31,35)         -0.7415         calculate D2E/DX2 analytically  !
 ! D112  D(28,29,31,36)        179.4548         calculate D2E/DX2 analytically  !
 ! D113  D(32,29,31,35)        179.7819         calculate D2E/DX2 analytically  !
 ! D114  D(32,29,31,36)         -0.0219         calculate D2E/DX2 analytically  !
 ! D115  D(28,30,33,35)         -2.0559         calculate D2E/DX2 analytically  !
 ! D116  D(28,30,33,37)        178.6734         calculate D2E/DX2 analytically  !
 ! D117  D(34,30,33,35)       -179.6301         calculate D2E/DX2 analytically  !
 ! D118  D(34,30,33,37)          1.0992         calculate D2E/DX2 analytically  !
 ! D119  D(29,31,35,33)          1.3373         calculate D2E/DX2 analytically  !
 ! D120  D(29,31,35,38)       -179.3311         calculate D2E/DX2 analytically  !
 ! D121  D(36,31,35,33)       -178.8598         calculate D2E/DX2 analytically  !
 ! D122  D(36,31,35,38)          0.4719         calculate D2E/DX2 analytically  !
 ! D123  D(30,33,35,31)          0.0652         calculate D2E/DX2 analytically  !
 ! D124  D(30,33,35,38)       -179.2662         calculate D2E/DX2 analytically  !
 ! D125  D(37,33,35,31)        179.3329         calculate D2E/DX2 analytically  !
 ! D126  D(37,33,35,38)          0.0015         calculate D2E/DX2 analytically  !
 ! D127  D(9,39,40,10)          33.1845         calculate D2E/DX2 analytically  !
 ! D128  D(9,39,40,43)         -83.6772         calculate D2E/DX2 analytically  !
 ! D129  D(9,39,40,44)         154.9803         calculate D2E/DX2 analytically  !
 ! D130  D(41,39,40,10)        155.855          calculate D2E/DX2 analytically  !
 ! D131  D(41,39,40,43)         38.9933         calculate D2E/DX2 analytically  !
 ! D132  D(41,39,40,44)        -82.3492         calculate D2E/DX2 analytically  !
 ! D133  D(42,39,40,10)        -84.552          calculate D2E/DX2 analytically  !
 ! D134  D(42,39,40,43)        158.5862         calculate D2E/DX2 analytically  !
 ! D135  D(42,39,40,44)         37.2437         calculate D2E/DX2 analytically  !
 ! D136  D(7,45,46,47)         178.1418         calculate D2E/DX2 analytically  !
 ! D137  D(7,45,46,48)         -62.3472         calculate D2E/DX2 analytically  !
 ! D138  D(7,45,46,49)          59.0145         calculate D2E/DX2 analytically  !
 ! D139  D(50,45,46,47)         59.1362         calculate D2E/DX2 analytically  !
 ! D140  D(50,45,46,48)        178.6472         calculate D2E/DX2 analytically  !
 ! D141  D(50,45,46,49)        -59.9911         calculate D2E/DX2 analytically  !
 ! D142  D(54,45,46,47)        -62.8102         calculate D2E/DX2 analytically  !
 ! D143  D(54,45,46,48)         56.7008         calculate D2E/DX2 analytically  !
 ! D144  D(54,45,46,49)        178.0626         calculate D2E/DX2 analytically  !
 ! D145  D(7,45,50,51)         -62.2582         calculate D2E/DX2 analytically  !
 ! D146  D(7,45,50,52)          58.0712         calculate D2E/DX2 analytically  !
 ! D147  D(7,45,50,53)         178.2527         calculate D2E/DX2 analytically  !
 ! D148  D(46,45,50,51)         54.5935         calculate D2E/DX2 analytically  !
 ! D149  D(46,45,50,52)        174.9229         calculate D2E/DX2 analytically  !
 ! D150  D(46,45,50,53)        -64.8955         calculate D2E/DX2 analytically  !
 ! D151  D(54,45,50,51)        176.1654         calculate D2E/DX2 analytically  !
 ! D152  D(54,45,50,52)        -63.5052         calculate D2E/DX2 analytically  !
 ! D153  D(54,45,50,53)         56.6763         calculate D2E/DX2 analytically  !
 ! D154  D(7,45,54,55)          54.0194         calculate D2E/DX2 analytically  !
 ! D155  D(7,45,54,56)         173.1865         calculate D2E/DX2 analytically  !
 ! D156  D(7,45,54,57)         -68.7374         calculate D2E/DX2 analytically  !
 ! D157  D(46,45,54,55)        -62.726          calculate D2E/DX2 analytically  !
 ! D158  D(46,45,54,56)         56.4411         calculate D2E/DX2 analytically  !
 ! D159  D(46,45,54,57)        174.5172         calculate D2E/DX2 analytically  !
 ! D160  D(50,45,54,55)        175.4696         calculate D2E/DX2 analytically  !
 ! D161  D(50,45,54,56)        -65.3633         calculate D2E/DX2 analytically  !
 ! D162  D(50,45,54,57)         52.7128         calculate D2E/DX2 analytically  !
 --------------------------------------------------------------------------------
 Trust Radius=1.00D-01 FncErr=1.00D-07 GrdErr=1.00D-06
 Number of steps in this run=    339 maximum allowed number of steps=    342.
 Search for a saddle point of order  1.
 GradGradGradGradGradGradGradGradGradGradGradGradGradGradGradGradGradGrad

 Stoichiometry    C23H32NO(1+)
 Framework group  C1[X(C23H32NO)]
 Deg. of freedom   165
 Full point group                 C1      NOp   1
 Largest Abelian subgroup         C1      NOp   1
 Largest concise Abelian subgroup C1      NOp   1
                         Standard orientation:                         
 ---------------------------------------------------------------------
 Center     Atomic      Atomic             Coordinates (Angstroms)
 Number     Number       Type             X           Y           Z
 ---------------------------------------------------------------------
      1          6           0        0.367029    0.692750   -0.881064
      2          6           0        0.479511   -0.811831   -0.741364
      3          1           0        0.427295    0.968520   -1.937547
      4          1           0       -0.056897   -1.237931   -1.600855
      5          8           0       -1.370179    1.049272   -0.558974
      6          1           0       -1.455658    2.021945   -0.540936
      7          6           0       -2.408409    0.488625   -1.429467
      8          7           0        1.893034   -0.890975   -1.078980
      9          6           0        2.274168   -1.738827   -2.220572
     10          6           0        2.934587   -0.949679   -0.054949
     11          1           0        1.665703   -2.657383   -2.243116
     12          1           0        2.085096   -1.201109   -3.161228
     13          1           0        2.916416   -0.051191    0.576690
     14          1           0       -2.161285   -0.576603   -1.489719
     15          1           0        2.810446   -1.827695    0.603204
     16          1           0       -2.312878    0.942542   -2.426152
     17          6           0       -0.047317   -1.518222    0.481914
     18          6           0       -1.054024   -2.473442    0.296673
     19          6           0        0.419727   -1.290093    1.782848
     20          6           0       -1.601715   -3.164127    1.373109
     21          1           0       -1.408458   -2.686744   -0.714432
     22          6           0       -0.128593   -1.977024    2.861582
     23          1           0        1.221276   -0.577220    1.961387
     24          6           0       -1.143782   -2.909888    2.662093
     25          1           0       -2.381366   -3.903850    1.203712
     26          1           0        0.248174   -1.788534    3.864772
     27          1           0       -1.567114   -3.445835    3.508724
     28          6           0        1.012281    1.670323    0.010647
     29          6           0        0.615445    1.859876    1.343728
     30          6           0        2.069962    2.432532   -0.508722
     31          6           0        1.286662    2.778343    2.142947
     32          1           0       -0.222553    1.292611    1.744508
     33          6           0        2.754369    3.327007    0.303586
     34          1           0        2.373645    2.286255   -1.545044
     35          6           0        2.362504    3.500915    1.630066
     36          1           0        0.970278    2.928577    3.172636
     37          1           0        3.586650    3.897932   -0.101126
     38          1           0        2.890597    4.210189    2.263553
     39          6           0        3.759154   -2.042321   -1.999253
     40          6           0        4.189048   -1.069274   -0.901532
     41          1           0        4.347926   -1.942163   -2.915400
     42          1           0        3.879549   -3.074006   -1.649110
     43          1           0        4.440963   -0.087934   -1.324758
     44          1           0        5.053369   -1.420925   -0.330945
     45          6           0       -3.789541    0.702040   -0.819600
     46          6           0       -4.796416    0.152823   -1.831669
     47          1           0       -5.814384    0.246029   -1.437921
     48          1           0       -4.759744    0.697092   -2.783510
     49          1           0       -4.621799   -0.910262   -2.039636
     50          6           0       -3.897183   -0.061094    0.500491
     51          1           0       -3.787363   -1.141583    0.345352
     52          1           0       -3.127507    0.248428    1.219300
     53          1           0       -4.875414    0.110144    0.963400
     54          6           0       -4.039435    2.195116   -0.596447
     55          1           0       -3.890081    2.780180   -1.514219
     56          1           0       -5.071854    2.364368   -0.272719
     57          1           0       -3.401015    2.611628    0.195522
 ---------------------------------------------------------------------
 Rotational constants (GHZ):      0.2546081      0.1753769      0.1467812
 Standard basis: 6-31G(d) (6D, 7F)
 There are   439 symmetry adapted cartesian basis functions of A   symmetry.
 There are   439 symmetry adapted basis functions of A   symmetry.
   439 basis functions,   828 primitive gaussians,   439 cartesian basis functions
    92 alpha electrons       92 beta electrons
       nuclear repulsion energy      2329.9603265788 Hartrees.
 NAtoms=   57 NActive=   57 NUniq=   57 SFac= 1.00D+00 NAtFMM=   60 NAOKFM=F Big=F
 Integral buffers will be    131072 words long.
 Raffenetti 2 integral format.
 Two-electron integral symmetry is turned on.
 One-electron integrals computed using PRISM.
 NBasis=   439 RedAO= T EigKep=  4.40D-04  NBF=   439
 NBsUse=   439 1.00D-06 EigRej= -1.00D+00 NBFU=   439
 ExpMin= 1.61D-01 ExpMax= 5.48D+03 ExpMxC= 8.25D+02 IAcc=1 IRadAn=         1 AccDes= 0.00D+00
 Harris functional with IExCor= 1009 and IRadAn=       1 diagonalized for initial guess.
 HarFok:  IExCor= 1009 AccDes= 0.00D+00 IRadAn=         1 IDoV= 1 UseB2=F ITyADJ=14
 ICtDFT=  3500011 ScaDFX=  1.000000  1.000000  1.000000  1.000000
 FoFCou: FMM=F IPFlag=           0 FMFlag=      100000 FMFlg1=           0
         NFxFlg=           0 DoJE=T BraDBF=F KetDBF=T FulRan=T
         wScrn=  0.000000 ICntrl=     500 IOpCl=  0 I1Cent=   200000004 NGrid=           0
         NMat0=    1 NMatS0=      1 NMatT0=    0 NMatD0=    1 NMtDS0=    0 NMtDT0=    0
 Petite list used in FoFCou.
 Requested convergence on RMS density matrix=1.00D-08 within 128 cycles.
 Requested convergence on MAX density matrix=1.00D-06.
 Requested convergence on             energy=1.00D-06.
 No special actions if energy rises.
 Integral accuracy reduced to 1.0D-05 until final iterations.
 EnCoef did     2 forward-backward iterations
 Initial convergence to 1.0D-05 achieved.  Increase integral accuracy.
 SCF Done:  E(RM06L) =  -1025.26652852     A.U. after   19 cycles
            NFock= 19  Conv=0.60D-08     -V/T= 2.0082
 DoSCS=F DFT=T ScalE2(SS,OS)=  1.000000  1.000000
 Range of M.O.s used for correlation:     1   439
 NBasis=   439 NAE=    92 NBE=    92 NFC=     0 NFV=     0
 NROrb=    439 NOA=    92 NOB=    92 NVA=   347 NVB=   347
 Symmetrizing basis deriv contribution to polar:
 IMax=3 JMax=2 DiffMx= 0.00D+00
 G2DrvN: will do    58 centers at a time, making    1 passes.
 Calling FoFCou, ICntrl=  3507 FMM=F I1Cent=   0 AccDes= 0.00D+00.
 End of G2Drv F.D. properties file   721 does not exist.
 End of G2Drv F.D. properties file   722 does not exist.
 End of G2Drv F.D. properties file   788 does not exist.
          IDoAtm=11111111111111111111111111111111111111111111111111
          IDoAtm=1111111
          Differentiating once with respect to nuclear coordinates.
          There are   174 degrees of freedom in the 1st order CPHF.  IDoFFX=6 NUNeed=     0.
    168 vectors produced by pass  0 Test12= 3.19D-14 1.00D-09 XBig12= 2.31D-01 2.70D-01.
 AX will form   168 AO Fock derivatives at one time.
    168 vectors produced by pass  1 Test12= 3.19D-14 1.00D-09 XBig12= 4.92D-02 4.76D-02.
    168 vectors produced by pass  2 Test12= 3.19D-14 1.00D-09 XBig12= 1.67D-04 1.21D-03.
    168 vectors produced by pass  3 Test12= 3.19D-14 1.00D-09 XBig12= 1.01D-06 5.92D-05.
    168 vectors produced by pass  4 Test12= 3.19D-14 1.00D-09 XBig12= 1.36D-09 1.66D-06.
    107 vectors produced by pass  5 Test12= 3.19D-14 1.00D-09 XBig12= 7.56D-13 4.61D-08.
      2 vectors produced by pass  6 Test12= 3.19D-14 1.00D-09 XBig12= 7.87D-16 1.77D-09.
 InvSVY:  IOpt=1 It=  1 EMax= 9.44D-16
 Solved reduced A of dimension   949 with   174 vectors.
 End of Minotr F.D. properties file   721 does not exist.
 End of Minotr F.D. properties file   722 does not exist.
 End of Minotr F.D. properties file   788 does not exist.

 **********************************************************************

            Population analysis using the SCF density.

 **********************************************************************

 Orbital symmetries:
       Occupied  (A) (A) (A) (A) (A) (A) (A) (A) (A) (A) (A) (A)
                 (A) (A) (A) (A) (A) (A) (A) (A) (A) (A) (A) (A)
                 (A) (A) (A) (A) (A) (A) (A) (A) (A) (A) (A) (A)
                 (A) (A) (A) (A) (A) (A) (A) (A) (A) (A) (A) (A)
                 (A) (A) (A) (A) (A) (A) (A) (A) (A) (A) (A) (A)
                 (A) (A) (A) (A) (A) (A) (A) (A) (A) (A) (A) (A)
                 (A) (A) (A) (A) (A) (A) (A) (A) (A) (A) (A) (A)
                 (A) (A) (A) (A) (A) (A) (A) (A)
       Virtual   (A) (A) (A) (A) (A) (A) (A) (A) (A) (A) (A) (A)
                 (A) (A) (A) (A) (A) (A) (A) (A) (A) (A) (A) (A)
                 (A) (A) (A) (A) (A) (A) (A) (A) (A) (A) (A) (A)
                 (A) (A) (A) (A) (A) (A) (A) (A) (A) (A) (A) (A)
                 (A) (A) (A) (A) (A) (A) (A) (A) (A) (A) (A) (A)
                 (A) (A) (A) (A) (A) (A) (A) (A) (A) (A) (A) (A)
                 (A) (A) (A) (A) (A) (A) (A) (A) (A) (A) (A) (A)
                 (A) (A) (A) (A) (A) (A) (A) (A) (A) (A) (A) (A)
                 (A) (A) (A) (A) (A) (A) (A) (A) (A) (A) (A) (A)
                 (A) (A) (A) (A) (A) (A) (A) (A) (A) (A) (A) (A)
                 (A) (A) (A) (A) (A) (A) (A) (A) (A) (A) (A) (A)
                 (A) (A) (A) (A) (A) (A) (A) (A) (A) (A) (A) (A)
                 (A) (A) (A) (A) (A) (A) (A) (A) (A) (A) (A) (A)
                 (A) (A) (A) (A) (A) (A) (A) (A) (A) (A) (A) (A)
                 (A) (A) (A) (A) (A) (A) (A) (A) (A) (A) (A) (A)
                 (A) (A) (A) (A) (A) (A) (A) (A) (A) (A) (A) (A)
                 (A) (A) (A) (A) (A) (A) (A) (A) (A) (A) (A) (A)
                 (A) (A) (A) (A) (A) (A) (A) (A) (A) (A) (A) (A)
                 (A) (A) (A) (A) (A) (A) (A) (A) (A) (A) (A) (A)
                 (A) (A) (A) (A) (A) (A) (A) (A) (A) (A) (A) (A)
                 (A) (A) (A) (A) (A) (A) (A) (A) (A) (A) (A) (A)
                 (A) (A) (A) (A) (A) (A) (A) (A) (A) (A) (A) (A)
                 (A) (A) (A) (A) (A) (A) (A) (A) (A) (A) (A) (A)
                 (A) (A) (A) (A) (A) (A) (A) (A) (A) (A) (A) (A)
                 (A) (A) (A) (A) (A) (A) (A) (A) (A) (A) (A) (A)
                 (A) (A) (A) (A) (A) (A) (A) (A) (A) (A) (A) (A)
                 (A) (A) (A) (A) (A) (A) (A) (A) (A) (A) (A) (A)
                 (A) (A) (A) (A) (A) (A) (A) (A) (A) (A) (A) (A)
                 (A) (A) (A) (A) (A) (A) (A) (A) (A) (A) (A)
 The electronic state is 1-A.
 Alpha  occ. eigenvalues --  -19.20559 -14.31674 -10.28569 -10.25850 -10.23984
 Alpha  occ. eigenvalues --  -10.20776 -10.20166 -10.19871 -10.19508 -10.19506
 Alpha  occ. eigenvalues --  -10.19435 -10.18773 -10.18667 -10.18665 -10.18582
 Alpha  occ. eigenvalues --  -10.17638 -10.17373 -10.17043 -10.16973 -10.16948
 Alpha  occ. eigenvalues --  -10.16825 -10.16233 -10.16131 -10.16115 -10.15815
 Alpha  occ. eigenvalues --   -1.19702  -1.03032  -0.95341  -0.93046  -0.91386
 Alpha  occ. eigenvalues --   -0.89889  -0.85828  -0.83646  -0.82651  -0.81828
 Alpha  occ. eigenvalues --   -0.80258  -0.79726  -0.79583  -0.76658  -0.76101
 Alpha  occ. eigenvalues --   -0.73439  -0.69642  -0.68268  -0.68006  -0.67440
 Alpha  occ. eigenvalues --   -0.65612  -0.65221  -0.63926  -0.61909  -0.60339
 Alpha  occ. eigenvalues --   -0.60062  -0.57919  -0.57573  -0.56490  -0.56037
 Alpha  occ. eigenvalues --   -0.55812  -0.54190  -0.53529  -0.52832  -0.52142
 Alpha  occ. eigenvalues --   -0.51315  -0.50795  -0.50406  -0.50260  -0.50164
 Alpha  occ. eigenvalues --   -0.49483  -0.48796  -0.48522  -0.46914  -0.46275
 Alpha  occ. eigenvalues --   -0.45896  -0.45771  -0.45439  -0.45009  -0.44734
 Alpha  occ. eigenvalues --   -0.44319  -0.43949  -0.43432  -0.42713  -0.42268
 Alpha  occ. eigenvalues --   -0.41844  -0.41550  -0.41501  -0.41166  -0.40969
 Alpha  occ. eigenvalues --   -0.40824  -0.39371  -0.35655  -0.35448  -0.33553
 Alpha  occ. eigenvalues --   -0.33396  -0.30585
 Alpha virt. eigenvalues --   -0.19859  -0.14997  -0.13819  -0.13199  -0.12895
 Alpha virt. eigenvalues --   -0.07703  -0.06337  -0.04127  -0.03112  -0.02442
 Alpha virt. eigenvalues --   -0.02190  -0.01166  -0.00619  -0.00136   0.00352
 Alpha virt. eigenvalues --    0.00613   0.01250   0.01449   0.02070   0.02268
 Alpha virt. eigenvalues --    0.02836   0.03195   0.03579   0.03726   0.04219
 Alpha virt. eigenvalues --    0.04311   0.04741   0.05131   0.05594   0.05899
 Alpha virt. eigenvalues --    0.06423   0.07042   0.07488   0.07575   0.08017
 Alpha virt. eigenvalues --    0.08217   0.08466   0.08805   0.09303   0.09560
 Alpha virt. eigenvalues --    0.10002   0.10601   0.10815   0.10953   0.11663
 Alpha virt. eigenvalues --    0.12327   0.12934   0.13274   0.13548   0.14958
 Alpha virt. eigenvalues --    0.15458   0.16943   0.17813   0.18319   0.18672
 Alpha virt. eigenvalues --    0.19771   0.20301   0.21860   0.22293   0.24030
 Alpha virt. eigenvalues --    0.24930   0.32177   0.34725   0.36190   0.37514
 Alpha virt. eigenvalues --    0.38870   0.38986   0.39391   0.39906   0.40089
 Alpha virt. eigenvalues --    0.41245   0.42007   0.42374   0.42722   0.42954
 Alpha virt. eigenvalues --    0.43527   0.43739   0.44365   0.44905   0.45997
 Alpha virt. eigenvalues --    0.46493   0.46862   0.47014   0.47735   0.47980
 Alpha virt. eigenvalues --    0.48505   0.49109   0.49412   0.49437   0.49620
 Alpha virt. eigenvalues --    0.49984   0.50336   0.50694   0.51167   0.51487
 Alpha virt. eigenvalues --    0.51815   0.53256   0.53393   0.54052   0.54774
 Alpha virt. eigenvalues --    0.55846   0.56518   0.57145   0.57689   0.57900
 Alpha virt. eigenvalues --    0.58905   0.59778   0.61550   0.61795   0.62546
 Alpha virt. eigenvalues --    0.63370   0.64258   0.65992   0.66046   0.67244
 Alpha virt. eigenvalues --    0.68149   0.68855   0.69684   0.70533   0.70703
 Alpha virt. eigenvalues --    0.71186   0.71453   0.71871   0.72178   0.72655
 Alpha virt. eigenvalues --    0.72941   0.73468   0.73963   0.74328   0.74580
 Alpha virt. eigenvalues --    0.74847   0.75704   0.76148   0.76672   0.76774
 Alpha virt. eigenvalues --    0.77148   0.77778   0.78022   0.78589   0.78834
 Alpha virt. eigenvalues --    0.79492   0.79889   0.80093   0.80906   0.81084
 Alpha virt. eigenvalues --    0.81982   0.82510   0.82665   0.83287   0.83976
 Alpha virt. eigenvalues --    0.84698   0.85104   0.86607   0.87056   0.87205
 Alpha virt. eigenvalues --    0.88219   0.88570   0.89493   0.90773   0.91091
 Alpha virt. eigenvalues --    0.92644   0.93446   0.94250   0.97577   0.98093
 Alpha virt. eigenvalues --    0.99662   1.01775   1.02384   1.03474   1.04357
 Alpha virt. eigenvalues --    1.05509   1.07063   1.07247   1.07471   1.10204
 Alpha virt. eigenvalues --    1.10831   1.12080   1.13802   1.15378   1.16268
 Alpha virt. eigenvalues --    1.18187   1.20028   1.22878   1.24890   1.26096
 Alpha virt. eigenvalues --    1.27075   1.28240   1.29453   1.30835   1.31555
 Alpha virt. eigenvalues --    1.32298   1.33324   1.33965   1.34811   1.35185
 Alpha virt. eigenvalues --    1.35937   1.36120   1.36611   1.37697   1.38746
 Alpha virt. eigenvalues --    1.39535   1.40380   1.42647   1.43903   1.46431
 Alpha virt. eigenvalues --    1.47444   1.49333   1.51644   1.55147   1.57125
 Alpha virt. eigenvalues --    1.57376   1.58169   1.60380   1.63179   1.65600
 Alpha virt. eigenvalues --    1.67141   1.67878   1.68485   1.68843   1.69741
 Alpha virt. eigenvalues --    1.70717   1.71163   1.72412   1.72774   1.73104
 Alpha virt. eigenvalues --    1.73935   1.74852   1.75005   1.76133   1.77106
 Alpha virt. eigenvalues --    1.78288   1.78454   1.80129   1.81138   1.81211
 Alpha virt. eigenvalues --    1.82729   1.83379   1.83863   1.85197   1.87042
 Alpha virt. eigenvalues --    1.88150   1.88776   1.89930   1.91074   1.91584
 Alpha virt. eigenvalues --    1.92058   1.93161   1.93800   1.93869   1.95217
 Alpha virt. eigenvalues --    1.95897   1.98317   1.98644   2.01123   2.01675
 Alpha virt. eigenvalues --    2.02410   2.03561   2.03836   2.04545   2.04917
 Alpha virt. eigenvalues --    2.05643   2.05938   2.06970   2.07240   2.08106
 Alpha virt. eigenvalues --    2.08487   2.09005   2.09903   2.10693   2.12103
 Alpha virt. eigenvalues --    2.13347   2.14454   2.15532   2.17481   2.18376
 Alpha virt. eigenvalues --    2.19024   2.19697   2.21061   2.21697   2.24856
 Alpha virt. eigenvalues --    2.24940   2.25431   2.27267   2.32881   2.33865
 Alpha virt. eigenvalues --    2.35318   2.37863   2.41113   2.42643   2.45264
 Alpha virt. eigenvalues --    2.45724   2.47125   2.48916   2.49531   2.51482
 Alpha virt. eigenvalues --    2.51777   2.55517   2.56304   2.56472   2.58932
 Alpha virt. eigenvalues --    2.59509   2.62432   2.62785   2.63607   2.64185
 Alpha virt. eigenvalues --    2.65123   2.66154   2.66794   2.67448   2.69215
 Alpha virt. eigenvalues --    2.70509   2.71925   2.74179   2.79230   2.80472
 Alpha virt. eigenvalues --    2.84503   2.88892   2.90317   3.01178   3.03729
 Alpha virt. eigenvalues --    3.31517   3.33629   3.89266   4.05501   4.07069
 Alpha virt. eigenvalues --    4.08916   4.10928   4.12459   4.14325   4.16048
 Alpha virt. eigenvalues --    4.17613   4.20792   4.24219   4.27172   4.29252
 Alpha virt. eigenvalues --    4.31171   4.33082   4.34552   4.37417   4.38318
 Alpha virt. eigenvalues --    4.45250   4.53257   4.58580   4.64285   4.66172
 Alpha virt. eigenvalues --    4.70930   4.72795
          Condensed to atoms (all electrons):
 Mulliken charges:
               1
     1  C    0.009468
     2  C   -0.089925
     3  H    0.215916
     4  H    0.160273
     5  O   -0.598291
     6  H    0.471280
     7  C   -0.078471
     8  N   -0.446853
     9  C   -0.146145
    10  C   -0.149259
    11  H    0.171468
    12  H    0.174963
    13  H    0.166270
    14  H    0.177429
    15  H    0.172225
    16  H    0.190861
    17  C    0.191318
    18  C   -0.232554
    19  C   -0.213282
    20  C   -0.168737
    21  H    0.162846
    22  C   -0.172966
    23  H    0.166729
    24  C   -0.166310
    25  H    0.201334
    26  H    0.200475
    27  H    0.205678
    28  C    0.091857
    29  C   -0.208453
    30  C   -0.200088
    31  C   -0.171895
    32  H    0.197776
    33  C   -0.172043
    34  H    0.194725
    35  C   -0.158848
    36  H    0.213426
    37  H    0.216276
    38  H    0.217853
    39  C   -0.368674
    40  C   -0.330718
    41  H    0.202005
    42  H    0.194664
    43  H    0.174147
    44  H    0.200828
    45  C    0.092567
    46  C   -0.539544
    47  H    0.204453
    48  H    0.182369
    49  H    0.180036
    50  C   -0.511649
    51  H    0.170108
    52  H    0.167703
    53  H    0.196079
    54  C   -0.565768
    55  H    0.179397
    56  H    0.216104
    57  H    0.159571
 Sum of Mulliken charges =   1.00000
 Mulliken charges with hydrogens summed into heavy atoms:
               1
     1  C    0.225385
     2  C    0.070348
     5  O   -0.127011
     7  C    0.289819
     8  N   -0.446853
     9  C    0.200285
    10  C    0.189235
    17  C    0.191318
    18  C   -0.069708
    19  C   -0.046553
    20  C    0.032597
    22  C    0.027509
    24  C    0.039367
    28  C    0.091857
    29  C   -0.010677
    30  C   -0.005363
    31  C    0.041531
    33  C    0.044232
    35  C    0.059005
    39  C    0.027994
    40  C    0.044257
    45  C    0.092567
    46  C    0.027314
    50  C    0.022240
    54  C   -0.010697
 APT charges:
               1
     1  C   -0.333597
     2  C   -0.438326
     3  H    0.536004
     4  H    0.415122
     5  O   -0.723036
     6  H    0.749372
     7  C   -0.536969
     8  N   -0.171463
     9  C   -0.747137
    10  C   -0.507775
    11  H    0.386780
    12  H    0.451596
    13  H    0.252769
    14  H    0.243466
    15  H    0.389233
    16  H    0.539462
    17  C   -0.401322
    18  C   -0.583429
    19  C   -0.580996
    20  C   -0.515949
    21  H    0.421443
    22  C   -0.532312
    23  H    0.314305
    24  C   -0.487221
    25  H    0.849919
    26  H    0.720479
    27  H    0.985693
    28  C   -0.489527
    29  C   -0.607127
    30  C   -0.587215
    31  C   -0.532919
    32  H    0.229268
    33  C   -0.489324
    34  H    0.485333
    35  C   -0.488587
    36  H    0.705893
    37  H    0.976363
    38  H    1.073950
    39  C   -1.521398
    40  C   -1.212290
    41  H    0.878906
    42  H    0.602267
    43  H    0.399875
    44  H    0.830373
    45  C    0.011420
    46  C   -1.845495
    47  H    0.911127
    48  H    0.571153
    49  H    0.298933
    50  C   -1.118563
    51  H    0.297235
    52  H    0.036077
    53  H    0.866108
    54  C   -1.575311
    55  H    0.504069
    56  H    0.959333
    57  H    0.133967
 Sum of APT charges =   1.00000
 APT charges with hydrogens summed into heavy atoms:
               1
     1  C    0.202408
     2  C   -0.023205
     5  O    0.026336
     7  C    0.245959
     8  N   -0.171463
     9  C    0.091239
    10  C    0.134227
    17  C   -0.401322
    18  C   -0.161986
    19  C   -0.266691
    20  C    0.333969
    22  C    0.188166
    24  C    0.498472
    28  C   -0.489527
    29  C   -0.377859
    30  C   -0.101882
    31  C    0.172974
    33  C    0.487040
    35  C    0.585363
    39  C   -0.040225
    40  C    0.017957
    45  C    0.011420
    46  C   -0.064283
    50  C    0.080857
    54  C    0.022057
 Electronic spatial extent (au):  <R**2>=           8734.6394
 Charge=              1.0000 electrons
 Dipole moment (field-independent basis, Debye):
    X=             -0.9822    Y=              2.5468    Z=             -1.8521  Tot=              3.2987
 Quadrupole moment (field-independent basis, Debye-Ang):
   XX=           -107.1820   YY=           -122.5299   ZZ=           -126.2226
   XY=              3.1979   XZ=              2.3103   YZ=              0.7997
 Traceless Quadrupole moment (field-independent basis, Debye-Ang):
   XX=             11.4629   YY=             -3.8851   ZZ=             -7.5778
   XY=              3.1979   XZ=              2.3103   YZ=              0.7997
 Octapole moment (field-independent basis, Debye-Ang**2):
  XXX=            -32.2014  YYY=             27.2771  ZZZ=             15.9791  XYY=             16.5853
  XXY=             23.2678  XXZ=            -32.2625  XZZ=              4.8638  YZZ=              0.1127
  YYZ=             19.2736  XYZ=             30.0447
 Hexadecapole moment (field-independent basis, Debye-Ang**3):
 XXXX=          -5384.0741 YYYY=          -3337.7865 ZZZZ=          -1891.9891 XXXY=            -67.5651
 XXXZ=              0.8602 YYYX=            183.7958 YYYZ=             39.9571 ZZZX=            -10.2219
 ZZZY=            -20.6412 XXYY=          -1356.1236 XXZZ=          -1281.9549 YYZZ=           -799.7021
 XXYZ=             20.7647 YYXZ=              3.3080 ZZXY=             29.5809
 N-N= 2.329960326579D+03 E-N=-7.013543401621D+03  KE= 1.016927931610D+03
  Exact polarizability:   0.000   0.000   0.000   0.000   0.000   0.000
 Approx polarizability: 437.921  86.312 400.036  -9.348  25.790 466.792
 Calling FoFJK, ICntrl=    100547 FMM=F ISym2X=0 I1Cent= 0 IOpClX= 0 NMat=1 NMatS=1 NMatT=0.
 ***** Axes restored to original set *****
 -------------------------------------------------------------------
 Center     Atomic                   Forces (Hartrees/Bohr)
 Number     Number              X              Y              Z
 -------------------------------------------------------------------
      1        6           0.000002237   -0.000008440    0.000003147
      2        6          -0.000001526    0.000012772   -0.000015595
      3        1          -0.000012933    0.000001763   -0.000000559
      4        1          -0.000001088   -0.000002279    0.000000194
      5        8          -0.000006756    0.000002415    0.000012788
      6        1           0.000006724    0.000001226   -0.000007908
      7        6           0.000001079    0.000000746    0.000000987
      8        7           0.000000634   -0.000032514    0.000023807
      9        6           0.000000333    0.000001371   -0.000004217
     10        6          -0.000005101    0.000004058   -0.000000590
     11        1          -0.000001467   -0.000004249    0.000002667
     12        1          -0.000005269   -0.000002086   -0.000001535
     13        1           0.000002926   -0.000004693   -0.000004822
     14        1           0.000001207    0.000001272   -0.000002615
     15        1           0.000005243   -0.000006908   -0.000008829
     16        1          -0.000003016    0.000002103    0.000000692
     17        6          -0.000003670    0.000002928    0.000003871
     18        6          -0.000002355   -0.000002738   -0.000000268
     19        6          -0.000007971    0.000005884    0.000006504
     20        6          -0.000001256   -0.000000476    0.000003351
     21        1          -0.000004002    0.000002149    0.000003061
     22        6           0.000003546   -0.000000058    0.000001151
     23        1           0.000000808   -0.000002833    0.000000868
     24        6          -0.000000534    0.000001743    0.000003818
     25        1          -0.000003903    0.000003809    0.000003171
     26        1          -0.000001102    0.000003072    0.000001294
     27        1          -0.000001861    0.000004102    0.000002945
     28        6           0.000006137    0.000004802   -0.000009945
     29        6          -0.000002577    0.000005821   -0.000006267
     30        6           0.000010363   -0.000012490    0.000000920
     31        6           0.000004137   -0.000000249   -0.000001730
     32        1           0.000004810    0.000002666    0.000000745
     33        6           0.000005171   -0.000002100   -0.000003584
     34        1          -0.000002832    0.000008426   -0.000004670
     35        6           0.000004677    0.000001150   -0.000000887
     36        1           0.000004734    0.000000309   -0.000002951
     37        1           0.000003278   -0.000003479   -0.000004439
     38        1           0.000004369   -0.000001383   -0.000004989
     39        6          -0.000004620   -0.000001279   -0.000007402
     40        6           0.000008139   -0.000010724    0.000002860
     41        1          -0.000000679   -0.000010142   -0.000001442
     42        1          -0.000007671   -0.000006851    0.000003213
     43        1          -0.000005413   -0.000019048    0.000000798
     44        1           0.000001298   -0.000000806   -0.000002365
     45        6           0.000001870    0.000002599    0.000000550
     46        6           0.000000829    0.000003050    0.000001860
     47        1          -0.000001125    0.000005146    0.000002186
     48        1           0.000000187    0.000003782    0.000003161
     49        1          -0.000001930    0.000004125    0.000000502
     50        6          -0.000002066    0.000001893    0.000002447
     51        1          -0.000002251    0.000005700    0.000003152
     52        1          -0.000002072    0.000011778   -0.000003740
     53        1           0.000001710    0.000006954    0.000002459
     54        6           0.000002050    0.000004797    0.000003802
     55        1           0.000001519    0.000002145   -0.000000855
     56        1           0.000002517    0.000005955    0.000000365
     57        1           0.000004514    0.000003313   -0.000001131
 -------------------------------------------------------------------
 Cartesian Forces:  Max     0.000032514 RMS     0.000005706
 FormGI is forming the generalized inverse of G from B-inverse, IUseBI=4.

 GradGradGradGradGradGradGradGradGradGradGradGradGradGradGradGradGradGrad
 Berny optimization.
 Internal  Forces:  Max     0.000035128 RMS     0.000005436
 Search for a saddle point.
 Step number   1 out of a maximum of  339
 All quantities printed in internal units (Hartrees-Bohrs-Radians)
 Swapping is turned off.
 Second derivative matrix not updated -- analytic derivatives used.
 ITU=  0
     Eigenvalues ---   -0.01939   0.00051   0.00134   0.00256   0.00332
     Eigenvalues ---    0.00361   0.00449   0.00564   0.00585   0.00751
     Eigenvalues ---    0.00897   0.00911   0.01071   0.01278   0.01396
     Eigenvalues ---    0.01487   0.01674   0.01714   0.01747   0.01787
     Eigenvalues ---    0.01893   0.02116   0.02190   0.02282   0.02328
     Eigenvalues ---    0.02447   0.02476   0.02536   0.02604   0.02653
     Eigenvalues ---    0.02705   0.02717   0.02782   0.02804   0.03067
     Eigenvalues ---    0.04086   0.04158   0.04210   0.04251   0.04297
     Eigenvalues ---    0.04437   0.04461   0.04510   0.04546   0.04584
     Eigenvalues ---    0.04650   0.04696   0.04756   0.04808   0.04939
     Eigenvalues ---    0.04972   0.05014   0.05147   0.05440   0.05597
     Eigenvalues ---    0.06191   0.06208   0.06563   0.06819   0.06887
     Eigenvalues ---    0.07227   0.07617   0.07791   0.08015   0.08269
     Eigenvalues ---    0.09438   0.09553   0.10104   0.10994   0.11011
     Eigenvalues ---    0.11176   0.11451   0.11475   0.11588   0.11974
     Eigenvalues ---    0.12015   0.12215   0.12255   0.12338   0.12359
     Eigenvalues ---    0.12578   0.12791   0.12844   0.12950   0.13388
     Eigenvalues ---    0.14308   0.14714   0.14892   0.14978   0.15381
     Eigenvalues ---    0.16408   0.17277   0.17760   0.18097   0.18956
     Eigenvalues ---    0.19046   0.19237   0.19335   0.19375   0.19601
     Eigenvalues ---    0.20698   0.21197   0.22961   0.23827   0.24504
     Eigenvalues ---    0.25027   0.25430   0.26045   0.27095   0.28722
     Eigenvalues ---    0.28964   0.29123   0.29746   0.29938   0.30385
     Eigenvalues ---    0.30531   0.30582   0.31147   0.31987   0.32269
     Eigenvalues ---    0.33181   0.33291   0.33711   0.33864   0.34048
     Eigenvalues ---    0.34142   0.34206   0.34249   0.34439   0.34477
     Eigenvalues ---    0.34503   0.34564   0.34640   0.34705   0.34749
     Eigenvalues ---    0.34929   0.34971   0.35062   0.35225   0.35239
     Eigenvalues ---    0.35284   0.35552   0.35979   0.36087   0.36295
     Eigenvalues ---    0.36350   0.36592   0.36659   0.36713   0.36779
     Eigenvalues ---    0.36889   0.37363   0.39513   0.40977   0.41992
     Eigenvalues ---    0.42264   0.42916   0.46485   0.47251   0.47523
     Eigenvalues ---    0.48031   0.48345   0.48377   0.51693   0.51829
 Eigenvectors required to have negative eigenvalues:
                          R3        D17       D9        D16       A8
   1                   -0.75047  -0.22676   0.21656  -0.21411   0.19594
                          D8        D1        D7        D26       A2
   1                    0.16793  -0.12897   0.12548  -0.10596   0.10326
 RFO step:  Lambda0=6.000360278D-11 Lambda=-1.28244391D-07.
 Linear search not attempted -- option 19 set.
 Iteration  1 RMS(Cart)=  0.00075415 RMS(Int)=  0.00000035
 Iteration  2 RMS(Cart)=  0.00000048 RMS(Int)=  0.00000006
 Variable       Old X    -DE/DX   Delta X   Delta X   Delta X     New X
                                 (Linear)    (Quad)   (Total)
    R1        2.86338   0.00002   0.00000   0.00007   0.00007   2.86345
    R2        2.06650   0.00000   0.00000   0.00002   0.00002   2.06652
    R3        3.40609   0.00001   0.00000  -0.00045  -0.00045   3.40564
    R4        2.78191   0.00001   0.00000   0.00006   0.00006   2.78197
    R5        2.07700   0.00000   0.00000   0.00000   0.00000   2.07700
    R6        2.75038   0.00002   0.00000  -0.00007  -0.00007   2.75031
    R7        2.84901   0.00001   0.00000   0.00004   0.00004   2.84905
    R8        1.84548   0.00000   0.00000   0.00001   0.00001   1.84549
    R9        2.77089   0.00000   0.00000   0.00009   0.00009   2.77097
   R10        2.06958   0.00000   0.00000  -0.00001  -0.00001   2.06958
   R11        2.07745   0.00000   0.00000   0.00000   0.00000   2.07745
   R12        2.88145   0.00000   0.00000  -0.00001  -0.00001   2.88144
   R13        2.78204   0.00000   0.00000   0.00000   0.00000   2.78204
   R14        2.76244   0.00000   0.00000  -0.00003  -0.00003   2.76241
   R15        2.08255   0.00000   0.00000  -0.00002  -0.00002   2.08252
   R16        2.07846   0.00000   0.00000   0.00003   0.00003   2.07849
   R17        2.89460   0.00000   0.00000  -0.00007  -0.00007   2.89453
   R18        2.07576   0.00000   0.00000   0.00001   0.00001   2.07577
   R19        2.08683   0.00000   0.00000  -0.00001  -0.00001   2.08683
   R20        2.86882   0.00000   0.00000   0.00002   0.00002   2.86884
   R21        2.64576   0.00000   0.00000   0.00000   0.00000   2.64577
   R22        2.64737   0.00001   0.00000   0.00000   0.00000   2.64737
   R23        2.62918   0.00000   0.00000   0.00001   0.00001   2.62919
   R24        2.06444   0.00000   0.00000   0.00000   0.00000   2.06444
   R25        2.62950   0.00000   0.00000   0.00000   0.00000   2.62950
   R26        2.05498   0.00000   0.00000   0.00000   0.00000   2.05498
   R27        2.62925   0.00000   0.00000   0.00001   0.00001   2.62925
   R28        2.05602   0.00000   0.00000   0.00000   0.00000   2.05602
   R29        2.63252   0.00000   0.00000   0.00000   0.00000   2.63252
   R30        2.05613   0.00000   0.00000   0.00000   0.00000   2.05613
   R31        2.05558   0.00000   0.00000   0.00000   0.00000   2.05558
   R32        2.65270   0.00000   0.00000   0.00001   0.00001   2.65271
   R33        2.65195   0.00001   0.00000  -0.00001  -0.00001   2.65194
   R34        2.62724   0.00000   0.00000   0.00000   0.00000   2.62724
   R35        2.05681   0.00000   0.00000   0.00000   0.00000   2.05681
   R36        2.62416   0.00000   0.00000   0.00001   0.00001   2.62418
   R37        2.05935   0.00000   0.00000   0.00000   0.00000   2.05935
   R38        2.63384   0.00000   0.00000   0.00000   0.00000   2.63384
   R39        2.05531   0.00000   0.00000   0.00000   0.00000   2.05531
   R40        2.63436   0.00000   0.00000   0.00000   0.00000   2.63436
   R41        2.05489   0.00000   0.00000   0.00000   0.00000   2.05489
   R42        2.05560   0.00000   0.00000   0.00000   0.00000   2.05560
   R43        2.88864   0.00000   0.00000  -0.00006  -0.00006   2.88858
   R44        2.06665   0.00000   0.00000   0.00000   0.00000   2.06664
   R45        2.07136   0.00000   0.00000   0.00002   0.00002   2.07138
   R46        2.07492  -0.00001   0.00000  -0.00002  -0.00002   2.07490
   R47        2.06688   0.00000   0.00000   0.00000   0.00000   2.06688
   R48        2.89055   0.00000   0.00000   0.00000   0.00000   2.89056
   R49        2.88862  -0.00001   0.00000  -0.00001  -0.00001   2.88862
   R50        2.89166   0.00000   0.00000   0.00000   0.00000   2.89166
   R51        2.07008   0.00000   0.00000   0.00000   0.00000   2.07008
   R52        2.07317   0.00000   0.00000   0.00000   0.00000   2.07317
   R53        2.07344   0.00000   0.00000   0.00000   0.00000   2.07344
   R54        2.07318   0.00000   0.00000   0.00000   0.00000   2.07318
   R55        2.07431   0.00000   0.00000  -0.00001  -0.00001   2.07430
   R56        2.07056   0.00000   0.00000   0.00000   0.00000   2.07055
   R57        2.07604   0.00000   0.00000   0.00000   0.00000   2.07604
   R58        2.06952   0.00000   0.00000   0.00000   0.00000   2.06952
   R59        2.07722   0.00000   0.00000   0.00000   0.00000   2.07722
    A1        1.91281  -0.00001   0.00000  -0.00005  -0.00005   1.91276
    A2        1.82501   0.00001   0.00000   0.00015   0.00015   1.82516
    A3        2.17852   0.00002   0.00000   0.00005   0.00005   2.17858
    A4        1.74759  -0.00001   0.00000  -0.00007  -0.00007   1.74752
    A5        1.97532   0.00000   0.00000  -0.00009  -0.00009   1.97524
    A6        1.75469  -0.00001   0.00000   0.00003   0.00003   1.75472
    A7        1.85108  -0.00001   0.00000  -0.00003  -0.00003   1.85105
    A8        1.67569   0.00004   0.00000   0.00037   0.00037   1.67607
    A9        2.11078   0.00000   0.00000  -0.00007  -0.00007   2.11071
   A10        1.84576  -0.00001   0.00000  -0.00002  -0.00002   1.84574
   A11        1.85700   0.00001   0.00000  -0.00002  -0.00002   1.85698
   A12        2.09684  -0.00002   0.00000  -0.00021  -0.00021   2.09663
   A13        1.85946   0.00000   0.00000  -0.00023  -0.00023   1.85923
   A14        2.09523  -0.00001   0.00000  -0.00017  -0.00017   2.09506
   A15        1.90690   0.00000   0.00000  -0.00004  -0.00004   1.90687
   A16        1.81810   0.00000   0.00000   0.00000   0.00000   1.81809
   A17        1.89529   0.00000   0.00000  -0.00003  -0.00003   1.89526
   A18        1.92878   0.00001   0.00000   0.00001   0.00001   1.92880
   A19        1.90935   0.00000   0.00000   0.00001   0.00001   1.90936
   A20        1.94177   0.00000   0.00000   0.00004   0.00004   1.94181
   A21        1.96442  -0.00001   0.00000  -0.00002  -0.00002   1.96440
   A22        2.05175  -0.00001   0.00000   0.00019   0.00019   2.05194
   A23        2.13137   0.00002   0.00000   0.00015   0.00015   2.13152
   A24        1.91306  -0.00001   0.00000   0.00022   0.00022   1.91328
   A25        1.93152   0.00000   0.00000   0.00003   0.00003   1.93155
   A26        1.91466   0.00000   0.00000   0.00005   0.00005   1.91471
   A27        1.82663   0.00001   0.00000  -0.00005  -0.00005   1.82658
   A28        1.87034   0.00000   0.00000   0.00001   0.00001   1.87036
   A29        1.95312   0.00000   0.00000   0.00001   0.00001   1.95313
   A30        1.96827   0.00000   0.00000  -0.00006  -0.00006   1.96821
   A31        1.93712   0.00000   0.00000   0.00001   0.00001   1.93713
   A32        1.94909   0.00000   0.00000   0.00001   0.00001   1.94910
   A33        1.77346   0.00001   0.00000   0.00005   0.00005   1.77351
   A34        1.88155   0.00001   0.00000   0.00004   0.00004   1.88159
   A35        1.98098   0.00000   0.00000   0.00002   0.00002   1.98100
   A36        1.94186  -0.00001   0.00000  -0.00014  -0.00014   1.94173
   A37        2.05283   0.00000   0.00000   0.00001   0.00001   2.05284
   A38        2.16600   0.00001   0.00000  -0.00002  -0.00002   2.16598
   A39        2.06426   0.00000   0.00000   0.00001   0.00001   2.06426
   A40        2.11692   0.00000   0.00000  -0.00001  -0.00001   2.11691
   A41        2.08168   0.00000   0.00000   0.00000   0.00000   2.08168
   A42        2.08453   0.00000   0.00000   0.00001   0.00001   2.08454
   A43        2.10383   0.00000   0.00000   0.00000   0.00000   2.10384
   A44        2.10011   0.00000   0.00000  -0.00001  -0.00001   2.10010
   A45        2.07922   0.00000   0.00000   0.00001   0.00001   2.07922
   A46        2.09035   0.00000   0.00000   0.00000   0.00000   2.09036
   A47        2.09341   0.00000   0.00000   0.00000   0.00000   2.09341
   A48        2.09940   0.00000   0.00000   0.00000   0.00000   2.09941
   A49        2.10219   0.00000   0.00000   0.00000   0.00000   2.10219
   A50        2.08611   0.00000   0.00000   0.00001   0.00001   2.08611
   A51        2.09484   0.00000   0.00000   0.00000   0.00000   2.09484
   A52        2.08850   0.00000   0.00000   0.00000   0.00000   2.08850
   A53        2.09780   0.00000   0.00000   0.00000   0.00000   2.09780
   A54        2.09681   0.00000   0.00000   0.00000   0.00000   2.09681
   A55        2.14242  -0.00001   0.00000  -0.00007  -0.00007   2.14235
   A56        2.05652   0.00002   0.00000   0.00009   0.00009   2.05660
   A57        2.08424  -0.00001   0.00000  -0.00002  -0.00002   2.08422
   A58        2.09283   0.00001   0.00000   0.00002   0.00002   2.09286
   A59        2.09089   0.00000   0.00000   0.00000   0.00000   2.09090
   A60        2.09942  -0.00001   0.00000  -0.00003  -0.00003   2.09940
   A61        2.09997   0.00000   0.00000   0.00000   0.00000   2.09997
   A62        2.08182   0.00001   0.00000   0.00005   0.00005   2.08187
   A63        2.10063   0.00000   0.00000  -0.00004  -0.00004   2.10059
   A64        2.09858   0.00000   0.00000   0.00000   0.00000   2.09858
   A65        2.08869   0.00000   0.00000  -0.00001  -0.00001   2.08868
   A66        2.09591   0.00000   0.00000   0.00001   0.00001   2.09592
   A67        2.09258   0.00000   0.00000   0.00002   0.00002   2.09260
   A68        2.09175   0.00000   0.00000  -0.00001  -0.00001   2.09174
   A69        2.09878   0.00000   0.00000   0.00000   0.00000   2.09878
   A70        2.09723   0.00000   0.00000  -0.00002  -0.00002   2.09721
   A71        2.09264   0.00000   0.00000   0.00001   0.00001   2.09264
   A72        2.09326   0.00000   0.00000   0.00001   0.00001   2.09327
   A73        1.82377   0.00000   0.00000  -0.00012  -0.00012   1.82365
   A74        1.96356   0.00000   0.00000   0.00008   0.00008   1.96364
   A75        1.91679   0.00000   0.00000  -0.00008  -0.00008   1.91671
   A76        1.97347   0.00000   0.00000   0.00014   0.00014   1.97361
   A77        1.91650   0.00000   0.00000  -0.00009  -0.00009   1.91640
   A78        1.86990   0.00000   0.00000   0.00005   0.00005   1.86996
   A79        1.79079   0.00000   0.00000  -0.00012  -0.00012   1.79067
   A80        1.91147   0.00000   0.00000   0.00003   0.00003   1.91150
   A81        1.96861   0.00000   0.00000   0.00004   0.00004   1.96866
   A82        1.93548   0.00000   0.00000  -0.00006  -0.00006   1.93542
   A83        1.97383   0.00000   0.00000   0.00009   0.00009   1.97392
   A84        1.88297   0.00000   0.00000   0.00001   0.00001   1.88298
   A85        1.85599   0.00000   0.00000  -0.00005  -0.00005   1.85594
   A86        1.91699   0.00000   0.00000   0.00004   0.00004   1.91703
   A87        1.92071   0.00000   0.00000   0.00000   0.00000   1.92071
   A88        1.92388   0.00000   0.00000   0.00003   0.00003   1.92391
   A89        1.91701   0.00000   0.00000   0.00001   0.00001   1.91702
   A90        1.92803  -0.00001   0.00000  -0.00003  -0.00003   1.92800
   A91        1.92125   0.00000   0.00000   0.00001   0.00001   1.92126
   A92        1.95403   0.00000   0.00000  -0.00002  -0.00002   1.95401
   A93        1.94823   0.00000   0.00000   0.00002   0.00002   1.94825
   A94        1.87623   0.00000   0.00000   0.00000   0.00000   1.87623
   A95        1.87387   0.00000   0.00000   0.00001   0.00001   1.87388
   A96        1.88694   0.00000   0.00000  -0.00001  -0.00001   1.88693
   A97        1.94176   0.00000   0.00000   0.00005   0.00005   1.94182
   A98        1.95559  -0.00001   0.00000  -0.00005  -0.00005   1.95554
   A99        1.92805   0.00000   0.00000  -0.00003  -0.00003   1.92802
   A100       1.87562   0.00001   0.00000   0.00006   0.00006   1.87568
   A101       1.87867   0.00000   0.00000   0.00002   0.00002   1.87869
   A102       1.88104   0.00000   0.00000  -0.00005  -0.00005   1.88099
   A103       1.95585   0.00000   0.00000  -0.00001  -0.00001   1.95583
   A104       1.92609   0.00000   0.00000   0.00001   0.00001   1.92610
   A105       1.96053   0.00000   0.00000  -0.00002  -0.00002   1.96052
   A106       1.86796   0.00000   0.00000   0.00000   0.00000   1.86796
   A107       1.89773   0.00000   0.00000   0.00001   0.00001   1.89774
   A108       1.85042   0.00000   0.00000   0.00001   0.00001   1.85043
    D1       -0.64469   0.00000   0.00000   0.00002   0.00002  -0.64467
    D2        1.24594   0.00001   0.00000   0.00012   0.00012   1.24605
    D3       -2.75656   0.00000   0.00000   0.00012   0.00012  -2.75644
    D4        1.21553   0.00000   0.00000  -0.00001  -0.00001   1.21551
    D5        3.10615   0.00000   0.00000   0.00009   0.00009   3.10624
[...]
 31880,0.00019771,-0.00056229,0.00042501,-0.00056150,0.00066798,0.00046
 813,-0.00138772,0.00010483,-0.00004363,-0.00001517,-0.00000840,0.00000
 688,0.00004948,-0.00003084,-0.00001899,-0.00002777,0.00000307,-0.00001
 140,-0.00000860,-0.00000311,0.00000210,-0.00000287,0.00000117,0.000000
 59,-0.00000074,0.00010237,-0.00014080,0.00009992,0.00001291,-0.0000084
 8,0.00001261,0.00016361,-0.00017346,0.00034730,0.00000561,-0.00000248,
 -0.00000949,0.00001173,-0.00001985,0.00000679,-0.00000521,-0.00000635,
 -0.00000333,0.00000956,0.00000694,-0.00000072,0.00000462,0.00001365,0.
 00000769,-0.00000550,-0.00000417,0.00000164,-0.00000140,0.00000146,-0.
 00000355,-0.00000150,0.00000153,0.00000751,-0.00000210,-0.00000600,0.0
 0000194,0.00000059,-0.00000055,0.00000318,-0.00000102,-0.00000108,0.00
 000314,0.00005365,0.00000693,0.00003052,0.00003321,0.00001893,-0.00003
 910,-0.00001919,-0.00003730,0.00002666,0.00000215,0.00000088,-0.000006
 63,0.00001909,-0.00001690,-0.00000285,-0.00000596,0.00000316,0.0000234
 5,-0.00001063,0.00000145,0.00000287,0.00000343,0.00000050,-0.00001004,
 0.00000382,0.00000212,0.00000713,0.00000005,0.00000354,0.00000017,0.00
 000086,0.00000105,0.00000212,-0.00000410,0.00000118,-0.00000313,-0.000
 00151,-0.00000246,0.00000510,0.00000436,-0.00000094,-0.00000271,0.0000
 0293,-0.00000241,0.00000228,-0.00000266,0.00000068,-0.00000025,0.00000
 515,-0.00000144,0.00000059,-0.00163438,0.00353292,-0.00536076,-0.00006
 383,-0.00043684,0.00054775,-0.00004198,-0.00004365,0.00016284,0.000174
 13,-0.00024453,-0.00022270,-0.00014449,0.00007651,-0.00016958,0.000118
 42,0.00130435,0.00034341,0.00060076,0.00025378,-0.00031017,0.00007215,
 -0.00017588,0.00028352,0.00019639,0.00014821,-0.00027137,-0.05281979,-
 0.01951607,0.03031780,0.05276694,0.00025652,-0.00002872,0.00001955,-0.
 00004121,-0.00006499,0.00009038,0.00000893,0.00001211,-0.00001588,-0.0
 0000122,-0.00001736,-0.00001487,0.00010363,0.00016620,-0.00018462,0.00
 036539,-0.00016521,0.00036171,-0.00107117,0.00147084,0.00148774,-0.000
 03238,0.00003545,-0.00002853,0.00000228,0.00000583,0.00000079,0.000015
 72,-0.00000148,0.00001397,-0.00000330,0.00000428,0.00000593,0.00000275
 ,0.00000158,-0.00000605,-0.00000132,-0.00000440,0.00000005,-0.00041133
 ,0.00020118,-0.00029907,-0.00001149,0.00001136,-0.00000696,0.00060632,
 0.00011705,-0.00073075,-0.00003089,-0.00003585,-0.00000912,0.00004067,
 0.00000065,0.00002576,0.00000124,0.00000937,0.00002628,0.00003834,-0.0
 0002105,-0.00000021,-0.00002450,0.00000297,0.00001056,0.00000893,0.000
 01782,-0.00001644,0.00000813,0.00000115,0.00000639,0.00000678,-0.00000
 754,-0.00005650,-0.00000817,0.00004599,-0.00000211,0.00000307,0.000003
 36,0.00000149,-0.00000469,0.00000503,-0.00000419,-0.00001412,0.0000030
 7,-0.00002305,-0.00001717,0.00000176,0.00000900,0.00000613,0.00001656,
 -0.00000062,0.00000160,0.00000620,-0.00000477,0.00000532,-0.00003106,0
 .00000694,0.00000105,-0.00000262,-0.00000869,0.00000492,-0.00000166,-0
 .00000062,-0.00000007,0.00000006,0.00000571,0.00000247,-0.00000308,0.0
 0000110,-0.00000035,-0.00000072,0.00000055,0.00000015,-0.00000061,-0.0
 0000104,0.00000327,0.00000052,-0.00000076,-0.00000272,0.00000261,-0.00
 000176,0.00000036,-0.00000043,-0.00000078,-0.00000242,0.00000133,-0.00
 000037,0.00000300,0.00000105,-0.00000258,-0.00000123,-0.00000020,-0.00
 000014,-0.00519103,-0.01535897,0.02851846,0.00054454,0.00146924,0.0014
 4459,-0.00002857,-0.00006812,-0.00003884,-0.00028651,0.00000610,-0.000
 86739,0.00018275,0.00030568,-0.00024122,0.00131696,-0.00674041,-0.0031
 1365,-0.00002965,-0.00118972,0.00205582,0.00017858,0.00011883,-0.00007
 783,-0.00009706,0.00022111,-0.00036820,-0.02018762,-0.12237930,0.11779
 233,0.01985269,0.13330393,0.00006997,0.00000494,-0.00000986,0.00002510
 ,0.00003693,-0.00002038,-0.00002713,0.00002043,0.00002385,0.00000247,-
 0.00000748,-0.00000596,-0.00044079,-0.00032244,0.00008370,-0.00035163,
 0.00064764,-0.00081237,0.00046905,-0.00016613,0.00093022,-0.00002837,-
 0.00001246,0.00001931,0.00000344,-0.00000223,-0.00002266,0.00000072,0.
 00000943,0.00000487,0.00000041,-0.00000187,0.00000095,0.00000070,-0.00
 000059,0.00000687,0.00000026,0.00000314,-0.00000207,-0.00012571,0.0000
 1666,0.00009834,0.00000261,-0.00000679,0.00000022,-0.00045988,0.000398
 47,0.00005653,0.00001446,0.00001302,-0.00000411,-0.00002411,0.00001911
 ,-0.00000122,0.00000589,0.00000470,-0.00000570,-0.00002529,0.00000157,
 0.00000675,0.00001208,-0.00001066,-0.00001182,-0.00000979,-0.00000317,
 0.00000597,-0.00000363,-0.00000218,-0.00000549,-0.00000695,-0.00000159
 ,0.00002001,0.00000384,-0.00001636,0.00000168,0.00000348,-0.00000430,0
 .00000063,0.00000349,-0.00000618,0.00000076,-0.00000406,-0.00002121,-0
 .00000321,0.00005423,0.00004453,-0.00002034,-0.00000399,-0.00001891,0.
 00000375,-0.00002015,-0.00001697,0.00000250,0.00002508,-0.00002461,0.0
 0000868,-0.00000371,-0.00000983,0.00001644,-0.00001355,0.00001083,0.00
 000698,0.00000777,-0.00000032,-0.00001090,0.00000739,0.00000816,0.0000
 0539,-0.00000841,0.00000147,-0.00000024,-0.00000596,0.00000002,-0.0000
 0185,0.00000003,-0.00000196,0.00000123,0.00000205,0.00000237,-0.000003
 40,-0.00000256,0.00000174,0.00000202,0.00000042,-0.00000074,-0.0000003
 4,-0.00000188,-0.00000278,0.00000260,-0.00000185,0.00000036,0.,-0.0011
 4662,-0.00351046,0.00428921,-0.00000613,-0.00040054,0.00098350,-0.0000
 6172,0.00001912,-0.00009240,0.00020030,0.00028522,0.00000880,0.0000611
 9,0.00012109,0.00012451,-0.00000846,-0.00045070,0.00089728,0.00002617,
 0.00000214,0.00040241,0.00014546,-0.00022959,0.00011791,-0.00013549,-0
 .00024626,0.00005163,0.03100388,0.11745491,-0.23958441,-0.03392437,-0.
 12963560,0.25604472,0.00091196,-0.00010888,-0.00004502,-0.00006957,-0.
 00013875,0.00008127,-0.00003315,0.00002070,-0.00001639,0.00000143,-0.0
 0002881,-0.00001944,-0.00037213,0.00053562,0.00043783,0.00085527,-0.00
 009632,-0.00018282,0.00034499,0.00088128,-0.00068169,-0.00018933,0.000
 07490,0.00002830,0.00001565,-0.00000424,-0.00008373,0.00005670,0.00003
 945,0.00004611,-0.00000707,0.00001873,0.00001679,0.00000509,-0.0000030
 1,0.00000694,-0.00000186,-0.00000187,0.00000003,-0.00013689,0.00004458
 ,0.00009585,-0.00002435,0.00001449,-0.00002237,0.00006259,-0.00009153,
 -0.00004751,-0.00000904,0.00000312,0.00000058,-0.00001309,0.00002054,-
 0.00000286,0.00000809,0.00001124,0.00001236,-0.00001176,-0.00001095,-0
 .00000085,-0.00000596,-0.00001706,-0.00001694,0.00001068,0.00000699,-0
 .00000054,0.00000296,-0.00000263,0.00000606,0.00000202,-0.00000748,-0.
 00001022,0.00000232,0.00001008,0.00000032,-0.00000412,0.00000157,-0.00
 000580,-0.00000018,0.00000633,-0.00000677,-0.00008791,-0.00002674,-0.0
 0004949,-0.00001183,0.00000397,0.00003107,0.00002708,0.00004482,-0.000
 04159,-0.00001833,-0.00000056,0.00003073,0.00000777,-0.00001652,0.0000
 3331,0.00000373,-0.00001572,-0.00002597,0.00000582,0.00000380,0.000000
 58,-0.00000046,-0.00000242,0.00000755,-0.00000486,-0.00000041,-0.00000
 923,-0.00000382,-0.00000463,-0.00000093,-0.00000615,-0.00000303,-0.000
 00245,0.00000671,-0.00000211,0.00000545,0.00000331,0.00000530,-0.00000
 852,-0.00000684,0.00000214,0.00000401,-0.00000472,0.00000340,-0.000003
 11,0.00000384,-0.00000166,0.00000045,-0.00000845,0.00000200,-0.0000007
 2,-0.00463279,-0.00012362,0.00143439,0.00119842,-0.00107607,-0.0007344
 3,0.00020948,0.00025749,0.00050151,-0.00005641,0.00013656,0.00005403,0
 .00012289,-0.00003910,-0.00015243,0.00026681,-0.00063355,0.00004336,0.
 00022783,-0.00001557,-0.00012666,-0.00007993,0.00003464,0.00004485,0.0
 0000382,0.00034162,-0.00024137,-0.29778641,0.03837751,0.07846814,-0.00
 225156,0.00087343,-0.00096006,0.31811959,0.00000616,0.00000440,0.00000
 142,-0.00005606,-0.00006368,-0.00011939,-0.00002869,-0.00002302,-0.000
 00398,0.00000592,0.00007822,0.00007663,-0.00076704,0.00076591,0.000149
 97,0.00085171,-0.00055862,0.00012020,-0.00022295,-0.00780941,-0.000642
 89,0.00002141,0.00002018,0.00006443,-0.00000096,0.00000607,0.00000469,
 0.00000322,0.00000296,-0.00003460,-0.00000104,0.00000530,-0.00000073,-
 0.00000298,-0.00000295,0.00000215,0.00000163,0.00000169,0.00000483,0.0
 0205471,-0.00019529,-0.00076588,0.00000117,-0.00000065,0.00000246,-0.0
 0007198,-0.00002146,-0.00004322,0.00001557,0.00001940,0.00000814,-0.00
 001541,-0.00005147,-0.00003602,-0.00001876,-0.00000256,-0.00001616,0.0
 0001923,0.00002375,-0.00000172,0.00001415,0.00003866,0.00002745,-0.000
 00730,-0.00000843,0.00002245,0.00000468,-0.00000099,0.00000162,-0.0000
 0390,0.00000745,0.00002685,0.00000278,-0.00001857,0.00000089,0.0000012
 3,-0.00000415,0.00000321,0.00000302,-0.00000215,0.00000720,0.00002022,
 -0.00000146,-0.00002090,-0.00000101,0.00002977,-0.00001033,0.00000022,
 0.00000252,0.00001372,-0.00000132,0.00000913,0.00001262,0.00001914,-0.
 00002117,0.00000467,0.00000099,0.00000705,0.00000203,0.00000122,-0.000
 00645,0.00000063,0.00000666,0.00000521,0.00000513,0.00000368,0.0000025
 7,0.00000347,0.00000112,0.00000139,0.00000218,-0.00000126,-0.00000176,
 0.00000045,-0.00000271,0.00000319,0.00000114,0.00000787,-0.00000441,0.
 00001060,0.00000189,-0.00000042,-0.00000005,0.00000160,-0.00000047,0.0
 0000077,0.00000032,0.00000089,-0.00000073,0.00000406,0.00000030,-0.000
 00188,0.03183624,-0.00580265,-0.01073368,0.00118593,0.00203046,0.00056
 960,-0.00072574,-0.00019403,-0.00012311,-0.00018090,-0.00002656,-0.000
 05308,-0.00010039,0.00030359,0.00040873,0.00067697,0.00148370,-0.00096
 600,-0.00036190,0.00025657,-0.00011616,-0.00009749,-0.00005324,0.00006
 371,-0.00045107,-0.00031340,0.00056265,0.03716039,-0.05134422,-0.01106
 762,-0.01689913,0.00192344,0.00418453,-0.04206036,0.05852138,0.0002683
 6,0.00003493,-0.00001993,-0.00008566,-0.00007378,0.00000551,-0.0000406
 7,0.00001399,0.00000670,0.00000280,0.00002013,0.00002502,-0.00069615,0
 .00071595,0.00055387,0.00079789,-0.00021358,-0.00078480,-0.00045375,-0
 .00204174,-0.00017503,-0.00003387,0.00003084,0.00001527,0.00000075,0.0
 0000965,-0.00001096,0.00000935,0.00001160,-0.00000596,-0.00000293,0.00
 000568,0.00000453,-0.00000035,-0.00000191,0.00000255,0.00000024,-0.000
 00140,0.00000170,0.00057290,-0.00020835,0.00012502,-0.00000688,0.00000
 466,-0.00000359,-0.00024961,0.00010977,0.00026439,0.00000209,-0.000009
 74,0.00000190,0.00000851,-0.00003426,-0.00000734,-0.00001024,0.0000005
 6,-0.00000389,0.00002109,0.00000852,-0.00000622,-0.00000103,0.00002262
 ,0.00001883,-0.00000142,-0.00000435,0.00000741,0.00000430,0.00000051,0
 .00000370,0.00000549,0.00000296,0.00000191,-0.00000141,0.00000458,0.00
 000083,-0.00000173,0.00000048,0.00000077,-0.00000182,0.00000479,0.0000
 0132,0.00000898,-0.00001464,-0.00002152,-0.00000458,0.00001696,-0.0000
 0848,0.00000969,0.00000456,-0.00000035,-0.00000210,0.00001319,0.000015
 71,0.00002086,-0.00002965,0.00001777,-0.00000276,-0.00000346,-0.000000
 61,-0.00000415,0.00000021,0.00000255,0.00000191,0.00000035,0.00000296,
 -0.00000042,-0.00000083,0.00000114,-0.00000021,0.00000064,-0.00000019,
 -0.00000110,-0.00000131,0.00000126,-0.00000052,0.00000196,0.00000152,0
 .00000196,0.00000021,0.00000280,0.00000043,0.00000045,-0.00000078,-0.0
 0000010,-0.00000026,0.00000090,0.00000061,0.00000044,-0.00000138,0.000
 00106,-0.00000033,0.00000009,0.00455236,-0.00085877,-0.00323570,0.0007
 5803,0.00029317,0.00016453,-0.00021222,-0.00045353,0.00008503,0.000161
 73,-0.00000372,-0.00021225,-0.00027637,0.00020287,-0.00003689,-0.00088
 241,0.00032203,0.00027104,0.00004753,-0.00008736,-0.00013502,-0.000102
 10,0.00003557,-0.00001589,0.00020389,0.00037839,0.00010009,0.07839177,
 -0.01121066,-0.06952945,0.02607734,-0.00476856,-0.00721509,-0.08465700
 ,0.01415485,0.07278863,-0.00036903,0.00018160,0.00001879,-0.00001780,0
 .00001795,-0.00003488,0.00000796,-0.00001132,0.00000419,0.00000294,0.0
 0002438,0.00002217,-0.00176697,0.00144243,0.00089931,-0.00087200,0.000
 33192,0.00046629,-0.00020960,-0.00075771,0.00019935,0.00006224,0.00000
 631,0.00000794,-0.00000844,-0.00000405,0.00001600,-0.00001987,-0.00001
 786,-0.00002087,0.00000410,-0.00000096,-0.00000577,-0.00000239,-0.0000
 0170,0.00000078,0.00000278,0.00000014,0.00000318,0.00016663,0.00001983
 ,-0.00017151,0.00000863,-0.00000346,0.00000795,-0.00001076,0.00001587,
 0.00002344,0.00000187,-0.00001304,0.00000503,0.00001230,-0.00001630,-0
 .00001737,-0.00000744,0.00000215,-0.00000356,0.00001169,-0.00000038,0.
 00000274,-0.00000532,0.00001497,0.00002116,-0.00000788,0.00000359,0.00
 000224,0.00000747,0.00000061,-0.00000122,-0.00000315,0.00000399,0.0000
 0020,-0.00000082,0.00000432,-0.00000339,0.00000812,-0.00000445,0.00000
 743,0.00000015,-0.00000567,0.00000352,0.00011327,0.00001534,0.00003643
 ,0.00008985,-0.00007550,-0.00000632,-0.00001222,-0.00003033,0.00003428
 ,0.00001495,0.00000981,-0.00004000,0.00011635,-0.00002275,-0.00006111,
 -0.00000050,0.00001731,0.00001856,-0.00000279,-0.00000327,0.00000195,0
 .00000565,0.00001518,0.00000036,0.00001989,-0.00000328,0.00002237,0.00
 000288,0.00000182,0.00000318,0.00000816,-0.00000079,0.00000198,-0.0000
 0477,0.00000164,0.00000002,0.00000131,-0.00000380,0.00000554,0.0000018
 7,-0.00000070,-0.00000082,0.00000231,-0.00000054,0.00000115,-0.0000005
 6,0.00000161,-0.00000168,0.00000425,-0.00000072,0.00000045,0.00275918,
 0.00235737,0.00532819,0.00032027,-0.00010008,0.00003323,0.00041795,0.0
 0037848,0.00009397,-0.00013904,0.00012356,0.00003715,0.00039755,0.0000
 5811,-0.00015646,0.00040007,-0.00007838,0.00002083,-0.00001992,-0.0000
 4293,0.00029449,0.00016770,-0.00033613,0.00000905,-0.00020579,-0.00010
 616,-0.00016131,-0.13839303,-0.05635001,-0.11154136,0.00270574,0.00305
 426,0.00566031,-0.01664784,-0.01185475,-0.02419833,0.15088186,0.000970
 61,-0.00006855,0.00006079,-0.00011961,-0.00014079,0.00001127,-0.000098
 74,0.00002735,0.00000128,0.00000365,-0.00000007,0.00001180,0.00023474,
 0.00132198,0.00091908,0.00149106,0.00002497,-0.00089655,-0.00239979,0.
 00045991,-0.00046956,-0.00017462,0.00008651,0.00005302,0.00001235,-0.0
 0000859,-0.00009007,0.00004457,0.00004377,0.00002386,-0.00000504,0.000
 02337,0.00001393,0.00000239,-0.00000700,0.00001316,-0.00000071,0.00000
 042,0.00000213,-0.00002635,-0.00004152,0.00011773,-0.00002090,0.000008
 40,-0.00001823,0.00013493,-0.00007279,0.00003853,-0.00000190,0.0000136
 2,0.00001089,-0.00002512,-0.00001451,-0.00005800,0.00000486,0.00002400
 ,0.00001224,-0.00000751,-0.00000608,0.00000645,-0.00000868,0.00000161,
 0.00001660,-0.00000105,0.00000603,0.00001684,0.00000687,-0.00000225,0.
 00000568,-0.00000363,0.00000216,0.00000554,0.00000511,0.00000219,-0.00
 000651,0.00000420,-0.00000336,0.00000044,0.00000255,-0.00000122,0.0000
 0006,-0.00003906,-0.00004710,-0.00005470,0.00007019,0.00006591,-0.0000
 1316,0.00001805,0.00002571,-0.00000751,-0.00002956,-0.00001548,0.00003
 302,0.00004745,-0.00006259,0.00005235,-0.00000419,-0.00001279,-0.00000
 674,-0.00000378,0.00000274,0.00000515,0.00000368,-0.00000729,-0.000000
 34,0.00000152,0.00000841,-0.00000539,-0.00000586,-0.00000156,0.0000003
 7,-0.00000981,-0.00000399,-0.00000155,0.00000277,0.00000037,0.00000762
 ,0.00000705,0.00000216,-0.00000444,-0.00000597,0.00000237,0.00000363,-
 0.00000293,0.00000218,-0.00000224,0.00000219,-0.00000094,0.00000078,-0
 .00000518,0.00000164,-0.00000008,-0.02065766,-0.01040283,-0.02247723,0
 .00294827,-0.00709693,-0.00023761,0.00018739,0.00012580,0.00033232,0.0
 0018887,0.00009305,-0.00005345,-0.00144518,-0.00085580,-0.00162318,-0.
 00063091,0.00207222,-0.00126155,0.00023608,0.00039653,-0.00001192,0.00
 035675,-0.00011027,0.00054624,-0.00009483,-0.00008256,0.00014365,-0.05
 751248,-0.08500515,-0.06935020,0.01185319,0.00662980,0.01182240,0.0027
 5727,0.00097851,0.00359411,0.06174246,0.09161831,0.00125702,-0.0000668
 0,-0.00004971,-0.00018429,-0.00024400,0.00007229,-0.00008902,0.0000199
 3,-0.00001274,0.00000689,0.00000822,0.00001272,-0.00102925,0.00178759,
 0.00109989,0.00237411,-0.00120995,-0.00065811,-0.00194109,-0.00069265,
 -0.00092694,-0.00023303,0.00014988,0.00007458,0.00001592,-0.00000099,-
 0.00012087,0.00006602,0.00004233,0.00003461,-0.00000816,0.00003300,0.0
 0002228,0.00000392,-0.00001011,0.00001401,-0.00000132,-0.00000326,0.00
 000567,0.00016758,-0.00000798,0.00014227,-0.00003168,0.00002040,-0.000
 02596,0.00001629,0.00000249,0.00006696,-0.00001056,-0.00000986,0.00002
 099,-0.00000143,-0.00002191,-0.00004265,-0.00000553,0.00001580,0.00001
 066,0.00001354,-0.00000581,-0.00000240,-0.00001478,0.00000603,0.000019
 95,0.00000905,0.00000819,0.00000811,0.00001374,-0.00000220,0.00001169,
 0.00000683,0.00000063,-0.00001399,0.00000220,0.00001881,-0.00000565,-0
 .00000014,0.00000001,-0.00000145,-0.00000052,0.00000610,-0.00000299,-0
 .00004160,-0.00001858,-0.00005573,0.00000140,-0.00006884,0.00004726,0.
 00004078,0.00005534,-0.00004604,0.00000037,0.00002016,0.00002179,0.000
 12259,-0.00003709,0.00000543,0.00000541,-0.00000553,-0.00003263,0.0000
 0791,0.00000032,0.00000155,-0.00000152,0.00000869,0.00002089,0.0000013
 6,-0.00000764,0.00000029,0.00000071,-0.00000621,0.00000025,0.00000105,
 -0.00000461,-0.00000045,0.00000464,0.00000120,0.00001034,0.00000801,0.
 00000181,-0.00000402,-0.00000776,0.00000258,0.00000403,-0.00000434,0.0
 0000406,-0.00000257,0.00000576,0.00000017,-0.00000247,-0.00000639,0.00
 000229,-0.00000045,-0.00157408,-0.00019162,-0.00408004,0.00099844,-0.0
 0145785,0.00043122,-0.00007770,0.00006544,0.00001124,0.00015814,0.0001
 9083,0.00037727,-0.00043910,-0.00027103,0.00015058,0.00067226,0.000866
 09,0.00072295,0.00013171,-0.00006925,-0.00003857,-0.00025587,-0.000270
 66,0.00034554,0.00009692,-0.00010824,-0.00000438,-0.11388603,-0.070191
 75,-0.18743315,-0.01624124,-0.01135333,-0.01639641,0.00676507,0.004232
 08,0.00693406,0.12311078,0.07876724,0.19925901\\0.00000022,0.00000094,
 0.00000090,0.00000142,0.00000056,0.00000024,-0.00000039,0.00000184,0.0
 0000105,0.00000254,0.00000097,-0.00000084,-0.00000210,-0.00000031,-0.0
 0000004,-0.00000188,-0.00000103,0.00000043,0.00000023,-0.00000201,-0.0
 0000064,0.00000074,0.00000329,0.00000043,0.00000358,0.00000438,-0.0000
 0132,0.00000149,0.00000316,0.00000061,0.00000451,0.00000391,-0.0000014
 6,0.00000244,0.00000495,0.00000075,-0.00000048,0.00000299,0.00000215,0
 .00000114,-0.00000086,-0.00000118,0.00000128,0.00000278,-0.00000008,-0
 .00000002,-0.00000078,-0.00000048,0.00000111,0.00000009,-0.00000135,0.
 00000315,-0.00000129,-0.00000223,0.00000099,-0.00000112,-0.00000128,0.
 00000281,-0.00000224,-0.00000278,0.00000320,-0.00000104,-0.00000241,0.
 00000034,-0.00000241,-0.00000127,0.00000004,0.00000014,0.00000036,0.00
 000240,-0.00000311,-0.00000234,0.00000365,-0.00000360,-0.00000391,0.00
 000030,-0.00000242,-0.00000106,0.00000188,-0.00000379,-0.00000324,-0.0
 0000182,0.00000160,0.00000157,-0.00000335,-0.00000017,0.00000150,-0.00
 000326,0.00000213,0.00000248,-0.00000417,0.00000024,0.00000289,-0.0000
 0243,-0.00000117,0.00000088,-0.00000370,0.00000292,0.00000353,-0.00000
 212,0.00000379,0.00000305,-0.00000463,0.00000202,0.00000381,-0.0000048
 9,-0.00000101,0.00000277,-0.00000465,0.00000428,0.00000452,-0.00000582
 ,0.00000154,0.00000461,0.00000356,0.00000560,0.00000061,0.00000106,0.0
 0000593,0.00000226,0.00000337,0.00000743,0.00000133,0.00000431,0.00000
 560,-0.00000085,0.00000066,0.00000642,0.00000216,0.00000165,0.00000619
 ,0.00000150,-0.00000083,-0.00000356,-0.00000093,0.00000045,-0.00000379
 ,-0.00000213,0.00000038,-0.00000553,-0.00000243,0.00000038,-0.00000339
 ,-0.00000199,0.00000207,-0.00000381,-0.00000238,-0.00000004,-0.0000047
 3,-0.00000230,0.00000120,-0.00000470,-0.00000240,-0.00000052,-0.000004
 84,-0.00000077,-0.00000083,-0.00000613,-0.00000219,-0.00000229,-0.0000
 0442,-0.00000003,-0.00000236,-0.00000296,0.00000015,-0.00000254,-0.000
 00546,-0.00000066,-0.00000344,-0.00000399,0.00000042\\\@


 CONTRAIWISE...CONTINUED TWEEDLEDEE, IF IT WAS SO, IT MIGHT BE,
 AND IF IT WERE SO, IT WOULD BE.....
 BUT AS IT ISN'T, IT AIN'T....
 THAT'S LOGIC.....
 ALICE THROUGH THE LOOKING GLASS
 Job cpu time:       0 days  7 hours 56 minutes  3.5 seconds.
 File lengths (MBytes):  RWF=   1249 Int=      0 D2E=      0 Chk=     17 Scr=      1
 Normal termination of Gaussian 09 at Fri Jun 19 11:50:33 2015.
