Job Start Time: Fri Jun 24 12:58:08 MDT 2022
SLURM Job ID: 42999
SLURM Job Name: DATS_13_exo_i_DLPNO
SLURM Job Nodes: node09
SLURM Memory / CPU: 8000

                                 *****************
                                 * O   R   C   A *
                                 *****************

                                            #,                                       
                                            ###                                      
                                            ####                                     
                                            #####                                    
                                            ######                                   
                                           ########,                                 
                                     ,,################,,,,,                         
                               ,,#################################,,                 
                          ,,##########################################,,             
                       ,#########################################, ''#####,          
                    ,#############################################,,   '####,        
                  ,##################################################,,,,####,       
                ,###########''''           ''''###############################       
              ,#####''   ,,,,##########,,,,          '''####'''          '####       
            ,##' ,,,,###########################,,,                        '##       
           ' ,,###''''                  '''############,,,                           
         ,,##''                                '''############,,,,        ,,,,,,###''
      ,#''                                            '''#######################'''  
     '                                                          ''''####''''         
             ,#######,   #######,   ,#######,      ##                                
            ,#'     '#,  ##    ##  ,#'     '#,    #''#        ######   ,####,        
            ##       ##  ##   ,#'  ##            #'  '#       #        #'  '#        
            ##       ##  #######   ##           ,######,      #####,   #    #        
            '#,     ,#'  ##    ##  '#,     ,#' ,#      #,         ##   #,  ,#        
             '#######'   ##     ##  '#######'  #'      '#     #####' # '####'        



                  #######################################################
                  #                        -***-                        #
                  #          Department of theory and spectroscopy      #
                  #    Directorship and core code : Frank Neese         #
                  #        Max Planck Institute fuer Kohlenforschung    #
                  #                Kaiser Wilhelm Platz 1               #
                  #                 D-45470 Muelheim/Ruhr               #
                  #                      Germany                        #
                  #                                                     #
                  #                  All rights reserved                #
                  #                        -***-                        #
                  #######################################################


                         Program Version 5.0.3 -  RELEASE  -


 With contributions from (in alphabetic order):
   Daniel Aravena         : Magnetic Suceptibility
   Michael Atanasov       : Ab Initio Ligand Field Theory (pilot matlab implementation)
   Alexander A. Auer      : GIAO ZORA, VPT2 properties, NMR spectrum
   Ute Becker             : Parallelization
   Giovanni Bistoni       : ED, misc. LED, open-shell LED, HFLD
   Martin Brehm           : Molecular dynamics
   Dmytro Bykov           : SCF Hessian
   Vijay G. Chilkuri      : MRCI spin determinant printing, contributions to CSF-ICE
   Dipayan Datta          : RHF DLPNO-CCSD density
   Achintya Kumar Dutta   : EOM-CC, STEOM-CC
   Dmitry Ganyushin       : Spin-Orbit,Spin-Spin,Magnetic field MRCI
   Miquel Garcia          : C-PCM and meta-GGA Hessian, CC/C-PCM, Gaussian charge scheme
   Yang Guo               : DLPNO-NEVPT2, F12-NEVPT2, CIM, IAO-localization
   Andreas Hansen         : Spin unrestricted coupled pair/coupled cluster methods
   Benjamin Helmich-Paris : MC-RPA, TRAH-SCF, COSX integrals
   Lee Huntington         : MR-EOM, pCC
   Robert Izsak           : Overlap fitted RIJCOSX, COSX-SCS-MP3, EOM
   Marcus Kettner         : VPT2
   Christian Kollmar      : KDIIS, OOCD, Brueckner-CCSD(T), CCSD density, CASPT2, CASPT2-K
   Simone Kossmann        : Meta GGA functionals, TD-DFT gradient, OOMP2, MP2 Hessian
   Martin Krupicka        : Initial AUTO-CI
   Lucas Lang             : DCDCAS
   Marvin Lechner         : AUTO-CI (C++ implementation), FIC-MRCC
   Dagmar Lenk            : GEPOL surface, SMD
   Dimitrios Liakos       : Extrapolation schemes; Compound Job, initial MDCI parallelization
   Dimitrios Manganas     : Further ROCIS development; embedding schemes
   Dimitrios Pantazis     : SARC Basis sets
   Anastasios Papadopoulos: AUTO-CI, single reference methods and gradients
   Taras Petrenko         : DFT Hessian,TD-DFT gradient, ASA, ECA, R-Raman, ABS, FL, XAS/XES, NRVS
   Peter Pinski           : DLPNO-MP2, DLPNO-MP2 Gradient
   Christoph Reimann      : Effective Core Potentials
   Marius Retegan         : Local ZFS, SOC
   Christoph Riplinger    : Optimizer, TS searches, QM/MM, DLPNO-CCSD(T), (RO)-DLPNO pert. Triples
   Tobias Risthaus        : Range-separated hybrids, TD-DFT gradient, RPA, STAB
   Michael Roemelt        : Original ROCIS implementation
   Masaaki Saitow         : Open-shell DLPNO-CCSD energy and density
   Barbara Sandhoefer     : DKH picture change effects
   Avijit Sen             : IP-ROCIS
   Kantharuban Sivalingam : CASSCF convergence, NEVPT2, FIC-MRCI
   Bernardo de Souza      : ESD, SOC TD-DFT
   Georgi Stoychev        : AutoAux, RI-MP2 NMR, DLPNO-MP2 response
   Willem Van den Heuvel  : Paramagnetic NMR
   Boris Wezisla          : Elementary symmetry handling
   Frank Wennmohs         : Technical directorship


 We gratefully acknowledge several colleagues who have allowed us to
 interface, adapt or use parts of their codes:
   Stefan Grimme, W. Hujo, H. Kruse, P. Pracht,  : VdW corrections, initial TS optimization,
                  C. Bannwarth, S. Ehlert          DFT functionals, gCP, sTDA/sTD-DF
   Ed Valeev, F. Pavosevic, A. Kumar             : LibInt (2-el integral package), F12 methods
   Garnet Chan, S. Sharma, J. Yang, R. Olivares  : DMRG
   Ulf Ekstrom                                   : XCFun DFT Library
   Mihaly Kallay                                 : mrcc  (arbitrary order and MRCC methods)
   Jiri Pittner, Ondrej Demel                    : Mk-CCSD
   Frank Weinhold                                : gennbo (NPA and NBO analysis)
   Christopher J. Cramer and Donald G. Truhlar   : smd solvation model
   Lars Goerigk                                  : TD-DFT with DH, B97 family of functionals
   V. Asgeirsson, H. Jonsson                     : NEB implementation
   FAccTs GmbH                                   : IRC, NEB, NEB-TS, DLPNO-Multilevel, CI-OPT
                                                   MM, QMMM, 2- and 3-layer-ONIOM, Crystal-QMMM,
                                                   LR-CPCM, SF, NACMEs, symmetry and pop. for TD-DFT,
                                                   nearIR, NL-DFT gradient (VV10), updates on ESD,
                                                   ML-optimized integration grids
   S Lehtola, MJT Oliveira, MAL Marques          : LibXC Library
   Liviu Ungur et al                             : ANISO software


 Your calculation uses the libint2 library for the computation of 2-el integrals
 For citations please refer to: http://libint.valeyev.net

 Your ORCA version has been built with support for libXC version: 5.1.0
 For citations please refer to: https://tddft.org/programs/libxc/

 This ORCA versions uses:
   CBLAS   interface :  Fast vector & matrix operations
   LAPACKE interface :  Fast linear algebra routines
   SCALAPACK package :  Parallel linear algebra routines
   Shared memory     :  Shared parallel matrices
   BLAS/LAPACK       :  OpenBLAS 0.3.15  USE64BITINT DYNAMIC_ARCH NO_AFFINITY Zen SINGLE_THREADED
        Core in use  :  Zen
   Copyright (c) 2011-2014, The OpenBLAS Project


================================================================================

----- Orbital basis set information -----
Your calculation utilizes the basis: def2-TZVPP
   F. Weigend and R. Ahlrichs, Phys. Chem. Chem. Phys. 7, 3297 (2005).

----- AuxC basis set information -----
Your calculation utilizes the auxiliary basis: def2-TZVPP/C
  H-La, Hf-Rn : A. Hellweg, C. Hattig, S. Hofener and W. Klopper, Theor. Chem. Acc. 117, 587 (2007).
        Ce-Lu : J. Chmela and M. E. Harding, Mol. Phys. (2018).

================================================================================
                                        WARNINGS
                       Please study these warnings very carefully!
================================================================================


WARNING: Post HF methods need fully converged wavefunctions
  ===> : Setting SCFConvForced true
         You can overwrite this default with %scf ConvForced false 


WARNING: MDCI localization with Augmented Hessian Foster-Boys
  ===> : Switching off randomization!

INFO   : the flag for use of the SHARK integral package has been found!

================================================================================
                                       INPUT FILE
================================================================================
NAME = /tmp/42999/DATS_13_exo_i_DLPNO.inp
|  1> # DATS_13_exo_i_DLPNO
|  2> %maxcore 4000
|  3> %pal nprocs 16 end
|  4> ! pal16 DLPNO-CCSD(T) def2-tzvpp def2-tzvpp/C
|  5> 
|  6> * xyz 0 1
|  7>  C  -1.30393800   1.12833700   1.00928800
|  8>  C  -0.21994000   1.64245600  -0.73680400
|  9>  C   0.12966900  -1.18038100  -0.70518400
| 10>  C  -1.40651800  -0.24926200   1.04859700
| 11>  H  -0.69210400   1.64713100   1.73868800
| 12>  H  -2.14868500   1.68128900   0.60835000
| 13>  H  -0.84722300  -0.84727900   1.75867700
| 14>  C   1.02113000   1.07437100  -0.53753000
| 15>  C   1.17988100  -0.33180800  -0.46570500
| 16>  H  -0.29974000   2.72588900  -0.74259800
| 17>  H   0.26434400  -2.24254400  -0.52857200
| 18>  H  -0.99901600   1.12839500  -1.29335800
| 19>  H  -0.68451600  -0.88081300  -1.34905300
| 20>  C  -2.47435400  -0.89377600   0.28351900
| 21>  O  -3.11937500  -0.32424300  -0.57941800
| 22>  H  -2.65792300  -1.96472300   0.50494400
| 23>  O   2.32424700  -0.91706700   0.00172800
| 24>  C   3.35387300  -0.08621300   0.48607400
| 25>  H   4.14118900  -0.75556100   0.83332100
| 26>  H   3.75733600   0.56084600  -0.30235200
| 27>  H   3.01350400   0.53647000   1.32304900
| 28>  H   1.83504600   1.71904100  -0.22310800
| 29> **                         ****END OF INPUT****
================================================================================

                       ****************************
                       * Single Point Calculation *
                       ****************************

---------------------------------
CARTESIAN COORDINATES (ANGSTROEM)
---------------------------------
  C     -1.303938    1.128337    1.009288
  C     -0.219940    1.642456   -0.736804
  C      0.129669   -1.180381   -0.705184
  C     -1.406518   -0.249262    1.048597
  H     -0.692104    1.647131    1.738688
  H     -2.148685    1.681289    0.608350
  H     -0.847223   -0.847279    1.758677
  C      1.021130    1.074371   -0.537530
  C      1.179881   -0.331808   -0.465705
  H     -0.299740    2.725889   -0.742598
  H      0.264344   -2.242544   -0.528572
  H     -0.999016    1.128395   -1.293358
  H     -0.684516   -0.880813   -1.349053
  C     -2.474354   -0.893776    0.283519
  O     -3.119375   -0.324243   -0.579418
  H     -2.657923   -1.964723    0.504944
  O      2.324247   -0.917067    0.001728
  C      3.353873   -0.086213    0.486074
  H      4.141189   -0.755561    0.833321
  H      3.757336    0.560846   -0.302352
  H      3.013504    0.536470    1.323049
  H      1.835046    1.719041   -0.223108

----------------------------
CARTESIAN COORDINATES (A.U.)
----------------------------
  NO LB      ZA    FRAG     MASS         X           Y           Z
   0 C     6.0000    0    12.011   -2.464086    2.132248    1.907278
   1 C     6.0000    0    12.011   -0.415626    3.103792   -1.392358
   2 C     6.0000    0    12.011    0.245039   -2.230597   -1.332605
   3 C     6.0000    0    12.011   -2.657934   -0.471037    1.981561
   4 H     1.0000    0     1.008   -1.307887    3.112626    3.285644
   5 H     1.0000    0     1.008   -4.060426    3.177176    1.149615
   6 H     1.0000    0     1.008   -1.601019   -1.601125    3.323418
   7 C     6.0000    0    12.011    1.929656    2.030267   -1.015784
   8 C     6.0000    0    12.011    2.229652   -0.627026   -0.880055
   9 H     1.0000    0     1.008   -0.566427    5.151184   -1.403307
  10 H     1.0000    0     1.008    0.499538   -4.237794   -0.998856
  11 H     1.0000    0     1.008   -1.887867    2.132358   -2.444092
  12 H     1.0000    0     1.008   -1.293548   -1.664495   -2.549341
  13 C     6.0000    0    12.011   -4.675851   -1.688992    0.535773
  14 O     8.0000    0    15.999   -5.894764   -0.612730   -1.094941
  15 H     1.0000    0     1.008   -5.022747   -3.712788    0.954206
  16 O     8.0000    0    15.999    4.392190   -1.733005    0.003265
  17 C     6.0000    0    12.011    6.337901   -0.162919    0.918547
  18 H     1.0000    0     1.008    7.825713   -1.427803    1.574748
  19 H     1.0000    0     1.008    7.100336    1.059845   -0.571362
  20 H     1.0000    0     1.008    5.694697    1.013781    2.500200
  21 H     1.0000    0     1.008    3.467734    3.248517   -0.421613

--------------------------------
INTERNAL COORDINATES (ANGSTROEM)
--------------------------------
 C      0   0   0     0.000000000000     0.00000000     0.00000000
 C      1   0   0     2.118538949991     0.00000000     0.00000000
 C      2   1   0     2.844579934867    79.21660782     0.00000000
 C      1   2   3     1.381972090414   107.65783402   350.66315769
 H      1   2   3     1.084210504465    98.60445988   116.01419277
 H      1   2   3     1.086326234681    88.29055818   232.39193497
 H      4   1   2     1.083812177323   122.02957568   107.95050496
 C      2   1   3     1.379378642433   103.96651776   306.42460454
 C      3   2   1     1.371266412013    58.80014822   248.99510728
 H      2   1   3     1.086383300647   102.05368393   182.62191197
 H      3   2   1     1.085135656376   171.26846021   325.74001956
 H      2   1   3     1.086724657129    86.58824095    68.17981714
 H      3   2   1     1.080372847683    68.01219288    96.48196819
 C      4   1   2     1.463221229061   118.57961923   276.57081963
 O     14   4   1     1.218638664453   123.41292001    14.34680202
 H     14   4   1     1.108897689237   116.21903472   192.42916794
 O      9   3   2     1.367697060217   115.82940178   169.48367158
 C     17   9   3     1.408914162363   118.46393818   190.90339610
 H     18  17   9     1.090171412196   105.97403527   178.08534904
 H     18  17   9     1.096851539328   111.69046935   296.65629684
 H     18  17   9     1.097320520757   111.72599434    59.20565814
 H      8   2   1     1.084859372472   118.17460888   258.17800232

---------------------------
INTERNAL COORDINATES (A.U.)
---------------------------
 C      0   0   0     0.000000000000     0.00000000     0.00000000
 C      1   0   0     4.003458419528     0.00000000     0.00000000
 C      2   1   0     5.375477042947    79.21660782     0.00000000
 C      1   2   3     2.611548775604   107.65783402   350.66315769
 H      1   2   3     2.048860924959    98.60445988   116.01419277
 H      1   2   3     2.052859075642    88.29055818   232.39193497
 H      4   1   2     2.048108195750   122.02957568   107.95050496
 C      2   1   3     2.606647869179   103.96651776   306.42460454
 C      3   2   1     2.591317975349    58.80014822   248.99510728
 H      2   1   3     2.052966914689   102.05368393   182.62191197
 H      3   2   1     2.050609208703   171.26846021   325.74001956
 H      2   1   3     2.053611984954    86.58824095    68.17981714
 H      3   2   1     2.041608804645    68.01219288    96.48196819
 C      4   1   2     2.765087396266   118.57961923   276.57081963
 O     14   4   1     2.302893332023   123.41292001    14.34680202
 H     14   4   1     2.095512943196   116.21903472   192.42916794
 O      9   3   2     2.584572877979   115.82940178   169.48367158
 C     17   9   3     2.662461913070   118.46393818   190.90339610
 H     18  17   9     2.060125408080   105.97403527   178.08534904
 H     18  17   9     2.072749018900   111.69046935   296.65629684
 H     18  17   9     2.073635265363   111.72599434    59.20565814
 H      8   2   1     2.050087107789   118.17460888   258.17800232

---------------------
BASIS SET INFORMATION
---------------------
There are 3 groups of distinct atoms

 Group   1 Type C   : 11s6p2d1f contracted to 5s3p2d1f pattern {62111/411/11/1}
 Group   2 Type H   : 5s2p1d contracted to 3s2p1d pattern {311/11/1}
 Group   3 Type O   : 11s6p2d1f contracted to 5s3p2d1f pattern {62111/411/11/1}

Atom   0C    basis set group =>   1
Atom   1C    basis set group =>   1
Atom   2C    basis set group =>   1
Atom   3C    basis set group =>   1
Atom   4H    basis set group =>   2
Atom   5H    basis set group =>   2
Atom   6H    basis set group =>   2
Atom   7C    basis set group =>   1
Atom   8C    basis set group =>   1
Atom   9H    basis set group =>   2
Atom  10H    basis set group =>   2
Atom  11H    basis set group =>   2
Atom  12H    basis set group =>   2
Atom  13C    basis set group =>   1
Atom  14O    basis set group =>   3
Atom  15H    basis set group =>   2
Atom  16O    basis set group =>   3
Atom  17C    basis set group =>   1
Atom  18H    basis set group =>   2
Atom  19H    basis set group =>   2
Atom  20H    basis set group =>   2
Atom  21H    basis set group =>   2
---------------------------------
AUXILIARY/C BASIS SET INFORMATION
---------------------------------
There are 3 groups of distinct atoms

 Group   1 Type C   : 8s6p5d3f1g contracted to 8s6p4d3f1g pattern {11111111/111111/2111/111/1}
 Group   2 Type H   : 4s3p2d1f contracted to 4s3p2d1f pattern {1111/111/11/1}
 Group   3 Type O   : 8s6p5d3f1g contracted to 8s6p4d3f1g pattern {11111111/111111/2111/111/1}

Atom   0C    basis set group =>   1
Atom   1C    basis set group =>   1
Atom   2C    basis set group =>   1
Atom   3C    basis set group =>   1
Atom   4H    basis set group =>   2
Atom   5H    basis set group =>   2
Atom   6H    basis set group =>   2
Atom   7C    basis set group =>   1
Atom   8C    basis set group =>   1
Atom   9H    basis set group =>   2
Atom  10H    basis set group =>   2
Atom  11H    basis set group =>   2
Atom  12H    basis set group =>   2
Atom  13C    basis set group =>   1
Atom  14O    basis set group =>   3
Atom  15H    basis set group =>   2
Atom  16O    basis set group =>   3
Atom  17C    basis set group =>   1
Atom  18H    basis set group =>   2
Atom  19H    basis set group =>   2
Atom  20H    basis set group =>   2
Atom  21H    basis set group =>   2


           ************************************************************
           *        Program running with 16 parallel MPI-processes    *
           *              working on a common directory               *
           ************************************************************
------------------------------------------------------------------------------
                           ORCA GTO INTEGRAL CALCULATION
------------------------------------------------------------------------------
------------------------------------------------------------------------------
                   ___                                                        
                  /   \      - P O W E R E D   B Y -                         
                 /     \                                                     
                 |  |  |   _    _      __       _____    __    __             
                 |  |  |  | |  | |    /  \     |  _  \  |  |  /  |          
                  \  \/   | |  | |   /    \    | | | |  |  | /  /          
                 / \  \   | |__| |  /  /\  \   | |_| |  |  |/  /          
                |  |  |   |  __  | /  /__\  \  |    /   |      \           
                |  |  |   | |  | | |   __   |  |    \   |  |\   \          
                \     /   | |  | | |  |  |  |  | |\  \  |  | \   \       
                 \___/    |_|  |_| |__|  |__|  |_| \__\ |__|  \__/        
                                                                              
                      - O R C A' S   B I G   F R I E N D -                    
                                      &                                       
                       - I N T E G R A L  F E E D E R -                       
                                                                              
 v1 FN, 2020, v2 2021                                                         
------------------------------------------------------------------------------


Reading SHARK input file /tmp/42999/DATS_13_exo_i_DLPNO.SHARKINP.tmp ... ok
----------------------
SHARK INTEGRAL PACKAGE
----------------------

Number of atoms                             ...     22
Number of basis functions                   ...    478
Number of shells                            ...    182
Maximum angular momentum                    ...      3
Integral batch strategy                     ... SHARK/LIBINT Hybrid
RI-J (if used) integral strategy            ... SPLIT-RIJ (Revised 2003 algorithm where possible)
Printlevel                                  ...      1
Contraction scheme used                     ... SEGMENTED contraction
Coulomb Range Separation                    ... NOT USED
Exchange Range Separation                   ... NOT USED
Finite Nucleus Model                        ... NOT USED
Auxiliary Coulomb fitting basis             ... NOT available
Auxiliary J/K fitting basis                 ... NOT available
Auxiliary Correlation fitting basis         ... AVAILABLE
   # of basis functions in Aux-C            ...   1120
   # of shells in Aux-C                     ...    340
   Maximum angular momentum in Aux-C        ...      4
Auxiliary 'external' fitting basis          ... NOT available
Integral threshold                          ...     1.000000e-10
Primitive cut-off                           ...     1.000000e-11
Primitive pair pre-selection threshold      ...     1.000000e-11

Calculating pre-screening integrals         ... done (  0.0 sec) Dimension = 182
Organizing shell pair data                  ... done (  0.1 sec)
Shell pair information
Total number of shell pairs                 ...     16653
Shell pairs after pre-screening             ...     14216
Total number of primitive shell pairs       ...     44212
Primitive shell pairs kept                  ...     28229
          la=0 lb=0:   3157 shell pairs
          la=1 lb=0:   4029 shell pairs
          la=1 lb=1:   1329 shell pairs
          la=2 lb=0:   2259 shell pairs
          la=2 lb=1:   1479 shell pairs
          la=2 lb=2:    429 shell pairs
          la=3 lb=0:    736 shell pairs
          la=3 lb=1:    475 shell pairs
          la=3 lb=2:    272 shell pairs
          la=3 lb=3:     51 shell pairs

Calculating one electron integrals          ... done (  0.0 sec)
Calculating RI/C V-Matrix + Cholesky decomp.... done (  0.0 sec)
Calculating Nuclear repulsion               ... done (  0.0 sec) ENN=    526.733692507924 Eh

SHARK setup successfully completed in   0.4 seconds

Maximum memory used throughout the entire GTOINT-calculation: 26.4 MB


           ************************************************************
           *        Program running with 16 parallel MPI-processes    *
           *              working on a common directory               *
           ************************************************************
-------------------------------------------------------------------------------
                                 ORCA SCF
-------------------------------------------------------------------------------

------------
SCF SETTINGS
------------
Hamiltonian:
 Ab initio Hamiltonian  Method          .... Hartree-Fock(GTOs)


General Settings:
 Integral files         IntName         .... /tmp/42999/DATS_13_exo_i_DLPNO
 Hartree-Fock type      HFTyp           .... RHF
 Total Charge           Charge          ....    0
 Multiplicity           Mult            ....    1
 Number of Electrons    NEL             ....   76
 Basis Dimension        Dim             ....  478
 Nuclear Repulsion      ENuc            ....    526.7336925079 Eh

Convergence Acceleration:
 DIIS                   CNVDIIS         .... on
   Start iteration      DIISMaxIt       ....    12
   Startup error        DIISStart       ....  0.200000
   # of expansion vecs  DIISMaxEq       ....     5
   Bias factor          DIISBfac        ....   1.050
   Max. coefficient     DIISMaxC        ....  10.000
 Trust-Rad. Augm. Hess. CNVTRAH         .... auto
   Auto Start mean grad. ratio tolernc. ....  1.125000
   Auto Start start iteration           ....    20
   Auto Start num. interpolation iter.  ....    10
   Max. Number of Micro iterations      ....    16
   Max. Number of Macro iterations      .... Maxiter - #DIIS iter
   Number of Davidson start vectors     ....     2
   Converg. threshold I  (grad. norm)   ....   5.000e-05
   Converg. threshold II (energy diff.) ....   1.000e-06
   Grad. Scal. Fac. for Micro threshold ....   0.100
   Minimum threshold for Micro iter.    ....   0.010
   NR start threshold (gradient norm)   ....   0.001
   Initial trust radius                 ....   0.400
   Minimum AH scaling param. (alpha)    ....   1.000
   Maximum AH scaling param. (alpha)    .... 1000.000
   Orbital update algorithm             .... Taylor
   White noise on init. David. guess    .... on
   Maximum white noise                  ....   0.010
   Quad. conv. algorithm                .... NR
 SOSCF                  CNVSOSCF        .... on
   Start iteration      SOSCFMaxIt      ....   150
   Startup grad/error   SOSCFStart      ....  0.003300
 Level Shifting         CNVShift        .... on
   Level shift para.    LevelShift      ....    0.2500
   Turn off err/grad.   ShiftErr        ....    0.0010
 Zerner damping         CNVZerner       .... off
 Static damping         CNVDamp         .... on
   Fraction old density DampFac         ....    0.7000
   Max. Damping (<1)    DampMax         ....    0.9800
   Min. Damping (>=0)   DampMin         ....    0.0000
   Turn off err/grad.   DampErr         ....    0.1000
 Fernandez-Rico         CNVRico         .... off

SCF Procedure:
 Maximum # iterations   MaxIter         ....   125
 SCF integral mode      SCFMode         .... Direct
   Integral package                     .... SHARK and LIBINT hybrid scheme
 Reset frequency        DirectResetFreq ....    20
 Integral Threshold     Thresh          ....  1.000e-10 Eh
 Primitive CutOff       TCut            ....  1.000e-11 Eh

Convergence Tolerance:
 Convergence Check Mode ConvCheckMode   .... Total+1el-Energy
 Convergence forced     ConvForced      .... 1
 Energy Change          TolE            ....  1.000e-06 Eh
 1-El. energy change                    ....  1.000e-03 Eh
 Orbital Gradient       TolG            ....  5.000e-05
 Orbital Rotation angle TolX            ....  5.000e-05
 DIIS Error             TolErr          ....  1.000e-06


Diagonalization of the overlap matrix:
Smallest eigenvalue                        ... 5.259e-05
Time for diagonalization                   ...    0.028 sec
Threshold for overlap eigenvalues          ... 1.000e-08
Number of eigenvalues below threshold      ... 0
Time for construction of square roots      ...    0.071 sec
Total time needed                          ...    0.100 sec

Time for model grid setup =    0.078 sec

------------------------------
INITIAL GUESS: MODEL POTENTIAL
------------------------------
Loading Hartree-Fock densities                     ... done
Calculating cut-offs                               ... done
Initializing the effective Hamiltonian             ... done
Setting up the integral package (SHARK)            ... done
Starting the Coulomb interaction                   ... done (   0.5 sec)
Reading the grid                                   ... done
Mapping shells                                     ... done
Starting the XC term evaluation                    ... done (   0.1 sec)
Transforming the Hamiltonian                       ... done (   0.6 sec)
Diagonalizing the Hamiltonian                      ... done (   0.4 sec)
Back transforming the eigenvectors                 ... done (   0.0 sec)
Now organizing SCF variables                       ... done
                      ------------------
                      INITIAL GUESS DONE (   1.9 sec)
                      ------------------
--------------
SCF ITERATIONS
--------------
ITER       Energy         Delta-E        Max-DP      RMS-DP      [F,P]     Damp
               ***  Starting incremental Fock matrix formation  ***
  0   -459.2441795982   0.000000000000 0.03773818  0.00066669  0.2993651 0.7000
  1   -459.3911534709  -0.146973872696 0.03872909  0.00055990  0.2199799 0.7000
                               ***Turning on DIIS***
  2   -459.4816394264  -0.090485955495 0.01616610  0.00036733  0.1626665 0.7000
  3   -460.6550889754  -1.173449549022 0.01029260  0.00022067  0.1201353 0.7000
  4   -460.4917186362   0.163370339282 0.03657853  0.00053584  0.0845009 0.0000
  5   -459.7061732496   0.785545386545 0.00993834  0.00008907  0.0041996 0.0000
                      *** Initiating the SOSCF procedure ***
                           *** Shutting down DIIS ***
                      *** Re-Reading the Fockian *** 
                      *** Removing any level shift *** 
ITER      Energy       Delta-E        Grad      Rot      Max-DP    RMS-DP
  6   -459.67953536   0.0266378895  0.002947  0.002947  0.008060  0.000060
               *** Restarting incremental Fock matrix formation ***
  7   -459.67444881   0.0050865484  0.001747  0.004147  0.003470  0.000036
  8   -459.67450973  -0.0000609185  0.001032  0.006697  0.007350  0.000060
  9   -459.67454316  -0.0000334277  0.000238  0.000426  0.001533  0.000014
 10   -459.67454665  -0.0000034909  0.000101  0.000307  0.000696  0.000007
 11   -459.67454730  -0.0000006523  0.000067  0.000358  0.000122  0.000002
                 **** Energy Check signals convergence ****
              ***Rediagonalizing the Fockian in SOSCF/NRSCF***

               *****************************************************
               *                     SUCCESS                       *
               *           SCF CONVERGED AFTER  12 CYCLES          *
               *****************************************************


----------------
TOTAL SCF ENERGY
----------------

Total Energy       :         -459.67454742 Eh          -12508.38035 eV

Components:
Nuclear Repulsion  :          526.73369251 Eh           14333.15246 eV
Electronic Energy  :         -986.40823992 Eh          -26841.53281 eV
One Electron Energy:        -1670.55241074 Eh          -45458.04214 eV
Two Electron Energy:          684.14417081 Eh           18616.50933 eV

Virial components:
Potential Energy   :         -918.82174054 Eh          -25002.41066 eV
Kinetic Energy     :          459.14719312 Eh           12494.03031 eV
Virial Ratio       :            2.00114855


---------------
SCF CONVERGENCE
---------------

  Last Energy change         ...   -1.1594e-07  Tolerance :   1.0000e-06
  Last MAX-Density change    ...    6.1892e-05  Tolerance :   1.0000e-05
  Last RMS-Density change    ...    9.4936e-07  Tolerance :   1.0000e-06
  Last Orbital Gradient      ...    1.7569e-05  Tolerance :   5.0000e-05
  Last Orbital Rotation      ...    4.2348e-05  Tolerance :   5.0000e-05

             **** THE GBW FILE WAS UPDATED (/tmp/42999/DATS_13_exo_i_DLPNO.gbw) ****
             **** DENSITY /tmp/42999/DATS_13_exo_i_DLPNO.scfp WAS UPDATED ****
             **** ENERGY FILE WAS UPDATED (/tmp/42999/DATS_13_exo_i_DLPNO.en.tmp) ****
             **** THE GBW FILE WAS UPDATED (/tmp/42999/DATS_13_exo_i_DLPNO.gbw) ****
             **** DENSITY /tmp/42999/DATS_13_exo_i_DLPNO.scfp WAS UPDATED ****
----------------
ORBITAL ENERGIES
----------------

  NO   OCC          E(Eh)            E(eV) 
   0   2.0000     -20.582751      -560.0851 
   1   2.0000     -20.531105      -558.6798 
   2   2.0000     -11.318996      -308.0055 
   3   2.0000     -11.297689      -307.4258 
   4   2.0000     -11.287260      -307.1420 
   5   2.0000     -11.255003      -306.2642 
   6   2.0000     -11.249800      -306.1226 
   7   2.0000     -11.243277      -305.9451 
   8   2.0000     -11.234293      -305.7007 
   9   2.0000     -11.233138      -305.6692 
  10   2.0000      -1.411392       -38.4059 
  11   2.0000      -1.370675       -37.2980 
  12   2.0000      -1.109160       -30.1818 
  13   2.0000      -1.051178       -28.6040 
  14   2.0000      -1.011102       -27.5135 
  15   2.0000      -0.932870       -25.3847 
  16   2.0000      -0.887457       -24.1489 
  17   2.0000      -0.864931       -23.5360 
  18   2.0000      -0.746543       -20.3145 
  19   2.0000      -0.732346       -19.9282 
  20   2.0000      -0.708525       -19.2799 
  21   2.0000      -0.689144       -18.7526 
  22   2.0000      -0.667973       -18.1765 
  23   2.0000      -0.658304       -17.9134 
  24   2.0000      -0.623841       -16.9756 
  25   2.0000      -0.601177       -16.3589 
  26   2.0000      -0.582276       -15.8445 
  27   2.0000      -0.580449       -15.7948 
  28   2.0000      -0.567295       -15.4369 
  29   2.0000      -0.544448       -14.8152 
  30   2.0000      -0.536700       -14.6044 
  31   2.0000      -0.527094       -14.3430 
  32   2.0000      -0.504744       -13.7348 
  33   2.0000      -0.492563       -13.4033 
  34   2.0000      -0.455474       -12.3941 
  35   2.0000      -0.414788       -11.2869 
  36   2.0000      -0.318930        -8.6785 
  37   2.0000      -0.307406        -8.3649 
  38   0.0000       0.061976         1.6865 
  39   0.0000       0.114337         3.1113 
  40   0.0000       0.128915         3.5080 
  41   0.0000       0.156731         4.2649 
  42   0.0000       0.163411         4.4466 
  43   0.0000       0.175541         4.7767 
  44   0.0000       0.189654         5.1608 
  45   0.0000       0.202707         5.5159 
  46   0.0000       0.208849         5.6831 
  47   0.0000       0.215519         5.8646 
  48   0.0000       0.218363         5.9419 
  49   0.0000       0.224919         6.1204 
  50   0.0000       0.226301         6.1580 
  51   0.0000       0.240079         6.5329 
  52   0.0000       0.249123         6.7790 
  53   0.0000       0.259663         7.0658 
  54   0.0000       0.286066         7.7843 
  55   0.0000       0.297496         8.0953 
  56   0.0000       0.304226         8.2784 
  57   0.0000       0.314917         8.5693 
  58   0.0000       0.317961         8.6522 
  59   0.0000       0.330623         8.9967 
  60   0.0000       0.335952         9.1417 
  61   0.0000       0.345517         9.4020 
  62   0.0000       0.354120         9.6361 
  63   0.0000       0.375677        10.2227 
  64   0.0000       0.387033        10.5317 
  65   0.0000       0.391066        10.6414 
  66   0.0000       0.405573        11.0362 
  67   0.0000       0.420131        11.4323 
  68   0.0000       0.439573        11.9614 
  69   0.0000       0.444535        12.0964 
  70   0.0000       0.468318        12.7436 
  71   0.0000       0.473317        12.8796 
  72   0.0000       0.488039        13.2802 
  73   0.0000       0.495058        13.4712 
  74   0.0000       0.503606        13.7038 
  75   0.0000       0.506487        13.7822 
  76   0.0000       0.518033        14.0964 
  77   0.0000       0.525743        14.3062 
  78   0.0000       0.545288        14.8380 
  79   0.0000       0.551650        15.0111 
  80   0.0000       0.557899        15.1812 
  81   0.0000       0.561767        15.2865 
  82   0.0000       0.571390        15.5483 
  83   0.0000       0.581320        15.8185 
  84   0.0000       0.590242        16.0613 
  85   0.0000       0.600122        16.3301 
  86   0.0000       0.603132        16.4120 
  87   0.0000       0.610998        16.6261 
  88   0.0000       0.615421        16.7464 
  89   0.0000       0.621357        16.9080 
  90   0.0000       0.633109        17.2278 
  91   0.0000       0.637239        17.3402 
  92   0.0000       0.656445        17.8628 
  93   0.0000       0.674213        18.3463 
  94   0.0000       0.690397        18.7867 
  95   0.0000       0.693911        18.8823 
  96   0.0000       0.706102        19.2140 
  97   0.0000       0.715325        19.4650 
  98   0.0000       0.724823        19.7234 
  99   0.0000       0.728237        19.8163 
 100   0.0000       0.742949        20.2167 
 101   0.0000       0.756281        20.5795 
 102   0.0000       0.762741        20.7552 
 103   0.0000       0.774033        21.0625 
 104   0.0000       0.791466        21.5369 
 105   0.0000       0.799161        21.7463 
 106   0.0000       0.818038        22.2599 
 107   0.0000       0.823801        22.4168 
 108   0.0000       0.844651        22.9841 
 109   0.0000       0.850027        23.1304 
 110   0.0000       0.851439        23.1688 
 111   0.0000       0.876738        23.8572 
 112   0.0000       0.894139        24.3308 
 113   0.0000       0.898248        24.4426 
 114   0.0000       0.924895        25.1677 
 115   0.0000       0.934254        25.4223 
 116   0.0000       0.953128        25.9359 
 117   0.0000       0.972181        26.4544 
 118   0.0000       0.983135        26.7525 
 119   0.0000       0.998264        27.1641 
 120   0.0000       1.017975        27.7005 
 121   0.0000       1.036207        28.1966 
 122   0.0000       1.045401        28.4468 
 123   0.0000       1.046554        28.4782 
 124   0.0000       1.086846        29.5746 
 125   0.0000       1.100097        29.9352 
 126   0.0000       1.107021        30.1236 
 127   0.0000       1.115742        30.3609 
 128   0.0000       1.120126        30.4802 
 129   0.0000       1.132397        30.8141 
 130   0.0000       1.139010        30.9940 
 131   0.0000       1.151705        31.3395 
 132   0.0000       1.163374        31.6570 
 133   0.0000       1.182385        32.1743 
 134   0.0000       1.186819        32.2950 
 135   0.0000       1.190848        32.4046 
 136   0.0000       1.201835        32.7036 
 137   0.0000       1.208146        32.8753 
 138   0.0000       1.234975        33.6054 
 139   0.0000       1.241633        33.7865 
 140   0.0000       1.248513        33.9738 
 141   0.0000       1.249052        33.9884 
 142   0.0000       1.265008        34.4226 
 143   0.0000       1.269002        34.5313 
 144   0.0000       1.290311        35.1111 
 145   0.0000       1.300915        35.3997 
 146   0.0000       1.323681        36.0192 
 147   0.0000       1.337160        36.3860 
 148   0.0000       1.342383        36.5281 
 149   0.0000       1.359275        36.9877 
 150   0.0000       1.362863        37.0854 
 151   0.0000       1.372733        37.3540 
 152   0.0000       1.389001        37.7966 
 153   0.0000       1.407107        38.2893 
 154   0.0000       1.421830        38.6900 
 155   0.0000       1.434051        39.0225 
 156   0.0000       1.458133        39.6778 
 157   0.0000       1.470945        40.0265 
 158   0.0000       1.477766        40.2121 
 159   0.0000       1.492712        40.6188 
 160   0.0000       1.508271        41.0421 
 161   0.0000       1.512761        41.1643 
 162   0.0000       1.518435        41.3187 
 163   0.0000       1.550441        42.1896 
 164   0.0000       1.557573        42.3837 
 165   0.0000       1.560351        42.4593 
 166   0.0000       1.574245        42.8374 
 167   0.0000       1.595203        43.4077 
 168   0.0000       1.609564        43.7985 
 169   0.0000       1.612939        43.8903 
 170   0.0000       1.625126        44.2219 
 171   0.0000       1.636608        44.5344 
 172   0.0000       1.655018        45.0353 
 173   0.0000       1.658801        45.1383 
 174   0.0000       1.670816        45.4652 
 175   0.0000       1.671466        45.4829 
 176   0.0000       1.685439        45.8631 
 177   0.0000       1.701098        46.2892 
 178   0.0000       1.710735        46.5515 
 179   0.0000       1.713385        46.6236 
 180   0.0000       1.731355        47.1126 
 181   0.0000       1.760999        47.9192 
 182   0.0000       1.766440        48.0673 
 183   0.0000       1.774536        48.2876 
 184   0.0000       1.807704        49.1901 
 185   0.0000       1.815500        49.4023 
 186   0.0000       1.822723        49.5988 
 187   0.0000       1.840338        50.0781 
 188   0.0000       1.852513        50.4094 
 189   0.0000       1.871245        50.9192 
 190   0.0000       1.885231        51.2997 
 191   0.0000       1.901168        51.7334 
 192   0.0000       1.904215        51.8163 
 193   0.0000       1.934159        52.6312 
 194   0.0000       1.941873        52.8410 
 195   0.0000       1.948145        53.0117 
 196   0.0000       1.981924        53.9309 
 197   0.0000       1.983196        53.9655 
 198   0.0000       2.000437        54.4347 
 199   0.0000       2.028145        55.1886 
 200   0.0000       2.058137        56.0048 
 201   0.0000       2.093665        56.9715 
 202   0.0000       2.128168        57.9104 
 203   0.0000       2.138684        58.1965 
 204   0.0000       2.152607        58.5754 
 205   0.0000       2.162599        58.8473 
 206   0.0000       2.211988        60.1912 
 207   0.0000       2.237377        60.8821 
 208   0.0000       2.261215        61.5308 
 209   0.0000       2.275005        61.9060 
 210   0.0000       2.290197        62.3194 
 211   0.0000       2.305852        62.7454 
 212   0.0000       2.320522        63.1446 
 213   0.0000       2.333005        63.4843 
 214   0.0000       2.360902        64.2434 
 215   0.0000       2.385855        64.9224 
 216   0.0000       2.406045        65.4718 
 217   0.0000       2.418684        65.8157 
 218   0.0000       2.451754        66.7156 
 219   0.0000       2.470482        67.2252 
 220   0.0000       2.496014        67.9200 
 221   0.0000       2.500511        68.0424 
 222   0.0000       2.554011        69.4982 
 223   0.0000       2.583272        70.2944 
 224   0.0000       2.635888        71.7262 
 225   0.0000       2.647608        72.0451 
 226   0.0000       2.691901        73.2504 
 227   0.0000       2.712380        73.8076 
 228   0.0000       2.745878        74.7191 
 229   0.0000       2.766157        75.2710 
 230   0.0000       2.775939        75.5371 
 231   0.0000       2.801939        76.2446 
 232   0.0000       2.819835        76.7316 
 233   0.0000       2.838573        77.2415 
 234   0.0000       2.849743        77.5455 
 235   0.0000       2.870063        78.0984 
 236   0.0000       2.896735        78.8242 
 237   0.0000       2.915344        79.3305 
 238   0.0000       2.937550        79.9348 
 239   0.0000       2.964398        80.6654 
 240   0.0000       2.985566        81.2414 
 241   0.0000       2.995418        81.5095 
 242   0.0000       3.016764        82.0903 
 243   0.0000       3.021241        82.2121 
 244   0.0000       3.028967        82.4224 
 245   0.0000       3.036518        82.6279 
 246   0.0000       3.046475        82.8988 
 247   0.0000       3.069571        83.5273 
 248   0.0000       3.075585        83.6909 
 249   0.0000       3.080367        83.8210 
 250   0.0000       3.087094        84.0041 
 251   0.0000       3.097363        84.2835 
 252   0.0000       3.116839        84.8135 
 253   0.0000       3.121047        84.9280 
 254   0.0000       3.135126        85.3111 
 255   0.0000       3.152964        85.7965 
 256   0.0000       3.183395        86.6246 
 257   0.0000       3.189199        86.7825 
 258   0.0000       3.200325        87.0853 
 259   0.0000       3.208105        87.2970 
 260   0.0000       3.213064        87.4319 
 261   0.0000       3.219545        87.6083 
 262   0.0000       3.229338        87.8747 
 263   0.0000       3.248454        88.3949 
 264   0.0000       3.261141        88.7402 
 265   0.0000       3.266291        88.8803 
 266   0.0000       3.279549        89.2411 
 267   0.0000       3.307521        90.0022 
 268   0.0000       3.322628        90.4133 
 269   0.0000       3.337951        90.8303 
 270   0.0000       3.350303        91.1664 
 271   0.0000       3.365134        91.5699 
 272   0.0000       3.370330        91.7113 
 273   0.0000       3.383440        92.0681 
 274   0.0000       3.396689        92.4286 
 275   0.0000       3.403081        92.6025 
 276   0.0000       3.414024        92.9003 
 277   0.0000       3.425694        93.2179 
 278   0.0000       3.438752        93.5732 
 279   0.0000       3.455194        94.0206 
 280   0.0000       3.473553        94.5202 
 281   0.0000       3.481407        94.7339 
 282   0.0000       3.493432        95.0611 
 283   0.0000       3.500153        95.2440 
 284   0.0000       3.514879        95.6447 
 285   0.0000       3.521404        95.8223 
 286   0.0000       3.553098        96.6847 
 287   0.0000       3.557411        96.8021 
 288   0.0000       3.570124        97.1480 
 289   0.0000       3.586100        97.5827 
 290   0.0000       3.590320        97.6976 
 291   0.0000       3.597673        97.8977 
 292   0.0000       3.614143        98.3458 
 293   0.0000       3.621169        98.5370 
 294   0.0000       3.624418        98.6254 
 295   0.0000       3.640310        99.0579 
 296   0.0000       3.653977        99.4298 
 297   0.0000       3.664386        99.7130 
 298   0.0000       3.673902        99.9720 
 299   0.0000       3.685488       100.2872 
 300   0.0000       3.688884       100.3796 
 301   0.0000       3.706039       100.8464 
 302   0.0000       3.718830       101.1945 
 303   0.0000       3.731743       101.5459 
 304   0.0000       3.747806       101.9830 
 305   0.0000       3.760957       102.3409 
 306   0.0000       3.768040       102.5336 
 307   0.0000       3.781066       102.8880 
 308   0.0000       3.792943       103.2112 
 309   0.0000       3.795115       103.2703 
 310   0.0000       3.810454       103.6877 
 311   0.0000       3.821806       103.9966 
 312   0.0000       3.832973       104.3005 
 313   0.0000       3.840784       104.5130 
 314   0.0000       3.863210       105.1233 
 315   0.0000       3.872136       105.3662 
 316   0.0000       3.891174       105.8842 
 317   0.0000       3.896067       106.0174 
 318   0.0000       3.901780       106.1728 
 319   0.0000       3.922969       106.7494 
 320   0.0000       3.932090       106.9976 
 321   0.0000       3.937715       107.1507 
 322   0.0000       3.982805       108.3776 
 323   0.0000       3.988931       108.5443 
 324   0.0000       4.000805       108.8674 
 325   0.0000       4.021488       109.4302 
 326   0.0000       4.027479       109.5933 
 327   0.0000       4.032382       109.7267 
 328   0.0000       4.045833       110.0927 
 329   0.0000       4.072637       110.8221 
 330   0.0000       4.092640       111.3664 
 331   0.0000       4.095020       111.4312 
 332   0.0000       4.104136       111.6792 
 333   0.0000       4.112133       111.8968 
 334   0.0000       4.129191       112.3610 
 335   0.0000       4.141368       112.6924 
 336   0.0000       4.152313       112.9902 
 337   0.0000       4.154974       113.0626 
 338   0.0000       4.169636       113.4616 
 339   0.0000       4.182176       113.8028 
 340   0.0000       4.184573       113.8680 
 341   0.0000       4.199246       114.2673 
 342   0.0000       4.218665       114.7957 
 343   0.0000       4.227407       115.0336 
 344   0.0000       4.232411       115.1698 
 345   0.0000       4.273337       116.2834 
 346   0.0000       4.279306       116.4458 
 347   0.0000       4.288654       116.7002 
 348   0.0000       4.299997       117.0089 
 349   0.0000       4.310862       117.3045 
 350   0.0000       4.325203       117.6948 
 351   0.0000       4.329280       117.8057 
 352   0.0000       4.340994       118.1245 
 353   0.0000       4.353312       118.4597 
 354   0.0000       4.370013       118.9141 
 355   0.0000       4.392323       119.5212 
 356   0.0000       4.403768       119.8326 
 357   0.0000       4.409775       119.9961 
 358   0.0000       4.426231       120.4439 
 359   0.0000       4.435447       120.6946 
 360   0.0000       4.451195       121.1232 
 361   0.0000       4.459862       121.3590 
 362   0.0000       4.471227       121.6683 
 363   0.0000       4.491185       122.2114 
 364   0.0000       4.502483       122.5188 
 365   0.0000       4.507937       122.6672 
 366   0.0000       4.529745       123.2606 
 367   0.0000       4.533806       123.3711 
 368   0.0000       4.558680       124.0480 
 369   0.0000       4.564411       124.2039 
 370   0.0000       4.587662       124.8366 
 371   0.0000       4.610409       125.4556 
 372   0.0000       4.625839       125.8755 
 373   0.0000       4.633978       126.0970 
 374   0.0000       4.667329       127.0045 
 375   0.0000       4.677920       127.2927 
 376   0.0000       4.710814       128.1878 
 377   0.0000       4.719838       128.4333 
 378   0.0000       4.738143       128.9314 
 379   0.0000       4.757752       129.4650 
 380   0.0000       4.767395       129.7274 
 381   0.0000       4.795161       130.4830 
 382   0.0000       4.812356       130.9509 
 383   0.0000       4.824018       131.2682 
 384   0.0000       4.859274       132.2276 
 385   0.0000       4.877757       132.7305 
 386   0.0000       4.894786       133.1939 
 387   0.0000       4.925278       134.0236 
 388   0.0000       4.940004       134.4244 
 389   0.0000       4.943309       134.5143 
 390   0.0000       4.951084       134.7258 
 391   0.0000       4.998276       136.0100 
 392   0.0000       5.005445       136.2051 
 393   0.0000       5.037086       137.0661 
 394   0.0000       5.047618       137.3527 
 395   0.0000       5.072185       138.0212 
 396   0.0000       5.079534       138.2212 
 397   0.0000       5.095663       138.6600 
 398   0.0000       5.113129       139.1353 
 399   0.0000       5.117363       139.2505 
 400   0.0000       5.151870       140.1895 
 401   0.0000       5.159589       140.3996 
 402   0.0000       5.194321       141.3447 
 403   0.0000       5.241957       142.6409 
 404   0.0000       5.253471       142.9542 
 405   0.0000       5.273488       143.4989 
 406   0.0000       5.286963       143.8656 
 407   0.0000       5.309755       144.4858 
 408   0.0000       5.324733       144.8934 
 409   0.0000       5.357670       145.7896 
 410   0.0000       5.383737       146.4989 
 411   0.0000       5.393469       146.7638 
 412   0.0000       5.408360       147.1690 
 413   0.0000       5.431018       147.7855 
 414   0.0000       5.435344       147.9032 
 415   0.0000       5.442502       148.0980 
 416   0.0000       5.479351       149.1007 
 417   0.0000       5.490045       149.3917 
 418   0.0000       5.524116       150.3189 
 419   0.0000       5.546066       150.9161 
 420   0.0000       5.558272       151.2483 
 421   0.0000       5.574788       151.6977 
 422   0.0000       5.581233       151.8731 
 423   0.0000       5.619034       152.9017 
 424   0.0000       5.644453       153.5934 
 425   0.0000       5.666940       154.2053 
 426   0.0000       5.691678       154.8784 
 427   0.0000       5.714057       155.4874 
 428   0.0000       5.732284       155.9834 
 429   0.0000       5.741301       156.2287 
 430   0.0000       5.767882       156.9521 
 431   0.0000       5.822721       158.4443 
 432   0.0000       5.843196       159.0015 
 433   0.0000       5.854275       159.3029 
 434   0.0000       5.878158       159.9528 
 435   0.0000       5.920200       161.0968 
 436   0.0000       5.922948       161.1716 
 437   0.0000       5.957543       162.1130 
 438   0.0000       5.965483       162.3291 
 439   0.0000       5.977381       162.6528 
 440   0.0000       5.985850       162.8833 
 441   0.0000       6.015136       163.6802 
 442   0.0000       6.055990       164.7919 
 443   0.0000       6.090801       165.7391 
 444   0.0000       6.160659       167.6401 
 445   0.0000       6.170968       167.9206 
 446   0.0000       6.250775       170.0922 
 447   0.0000       6.286289       171.0586 
 448   0.0000       6.358341       173.0192 
 449   0.0000       6.418509       174.6565 
 450   0.0000       6.485109       176.4688 
 451   0.0000       6.542778       178.0380 
 452   0.0000       6.584391       179.1704 
 453   0.0000       6.619587       180.1281 
 454   0.0000       6.890685       187.5051 
 455   0.0000       6.931918       188.6271 
 456   0.0000       6.953179       189.2056 
 457   0.0000       7.110554       193.4880 
 458   0.0000       7.183385       195.4698 
 459   0.0000       7.258915       197.5251 
 460   0.0000       7.344384       199.8509 
 461   0.0000       7.364714       200.4041 
 462   0.0000       7.384499       200.9424 
 463   0.0000       7.487417       203.7430 
 464   0.0000       7.625752       207.5073 
 465   0.0000       7.629264       207.6028 
 466   0.0000       7.829682       213.0565 
 467   0.0000       7.978425       217.1040 
 468   0.0000      23.997886       653.0157 
 469   0.0000      24.207415       658.7172 
 470   0.0000      24.226795       659.2446 
 471   0.0000      24.445439       665.1942 
 472   0.0000      24.554255       668.1552 
 473   0.0000      24.689391       671.8325 
 474   0.0000      24.721970       672.7190 
 475   0.0000      24.827121       675.5803 
 476   0.0000      45.527777      1238.8738 
 477   0.0000      45.940403      1250.1019 

                    ********************************
                    * MULLIKEN POPULATION ANALYSIS *
                    ********************************

-----------------------
MULLIKEN ATOMIC CHARGES
-----------------------
   0 C :   -0.152239
   1 C :   -0.120185
   2 C :   -0.245902
   3 C :   -0.141822
   4 H :    0.101537
   5 H :    0.144438
   6 H :    0.104743
   7 C :   -0.209315
   8 C :    0.306208
   9 H :    0.107641
  10 H :    0.098064
  11 H :    0.117207
  12 H :    0.123508
  13 C :    0.287984
  14 O :   -0.495133
  15 H :    0.059092
  16 O :   -0.379147
  17 C :   -0.007584
  18 H :    0.089497
  19 H :    0.066234
  20 H :    0.062320
  21 H :    0.082853
Sum of atomic charges:   -0.0000000

--------------------------------
MULLIKEN REDUCED ORBITAL CHARGES
--------------------------------
  0 C s       :     3.116274  s :     3.116274
      pz      :     0.948384  p :     2.927449
      px      :     1.003534
      py      :     0.975531
      dz2     :     0.009116  d :     0.102895
      dxz     :     0.016108
      dyz     :     0.028286
      dx2y2   :     0.018008
      dxy     :     0.031378
      f0      :     0.000766  f :     0.005620
      f+1     :     0.000359
      f-1     :     0.000506
      f+2     :     0.001104
      f-2     :     0.000659
      f+3     :     0.001311
      f-3     :     0.000915
  1 C s       :     3.112192  s :     3.112192
      pz      :     0.920092  p :     2.899240
      px      :     0.952948
      py      :     1.026200
      dz2     :     0.010528  d :     0.103084
      dxz     :     0.029990
      dyz     :     0.008004
      dx2y2   :     0.030775
      dxy     :     0.023787
      f0      :     0.000820  f :     0.005669
      f+1     :     0.000619
      f-1     :     0.000518
      f+2     :     0.000495
      f-2     :     0.000985
      f+3     :     0.001098
      f-3     :     0.001134
  2 C s       :     3.182228  s :     3.182228
      pz      :     0.984951  p :     2.985862
      px      :     0.981123
      py      :     1.019789
      dz2     :     0.005336  d :     0.072051
      dxz     :     0.020370
      dyz     :     0.010031
      dx2y2   :     0.018994
      dxy     :     0.017321
      f0      :     0.000822  f :     0.005760
      f+1     :     0.000615
      f-1     :     0.000518
      f+2     :     0.000542
      f-2     :     0.001132
      f+3     :     0.000997
      f-3     :     0.001135
  3 C s       :     3.104451  s :     3.104451
      pz      :     1.001330  p :     2.922010
      px      :     0.954751
      py      :     0.965929
      dz2     :     0.007405  d :     0.107271
      dxz     :     0.013898
      dyz     :     0.032125
      dx2y2   :     0.019468
      dxy     :     0.034375
      f0      :     0.000913  f :     0.008091
      f+1     :     0.000925
      f-1     :     0.000651
      f+2     :     0.001646
      f-2     :     0.001258
      f+3     :     0.001517
      f-3     :     0.001181
  4 H s       :     0.855336  s :     0.855336
      pz      :     0.017847  p :     0.040992
      px      :     0.012594
      py      :     0.010552
      dz2     :     0.000505  d :     0.002135
      dxz     :     0.000490
      dyz     :     0.000425
      dx2y2   :     0.000354
      dxy     :     0.000361
  5 H s       :     0.813021  s :     0.813021
      pz      :     0.011274  p :     0.040354
      px      :     0.017537
      py      :     0.011544
      dz2     :     0.000266  d :     0.002186
      dxz     :     0.000433
      dyz     :     0.000319
      dx2y2   :     0.000607
      dxy     :     0.000560
  6 H s       :     0.849962  s :     0.849962
      pz      :     0.016421  p :     0.043001
      px      :     0.015015
      py      :     0.011565
      dz2     :     0.000518  d :     0.002293
      dxz     :     0.000505
      dyz     :     0.000457
      dx2y2   :     0.000440
      dxy     :     0.000373
  7 C s       :     3.199913  s :     3.199913
      pz      :     1.021951  p :     2.898801
      px      :     0.966205
      py      :     0.910645
      dz2     :     0.004708  d :     0.102216
      dxz     :     0.015847
      dyz     :     0.017443
      dx2y2   :     0.036358
      dxy     :     0.027860
      f0      :     0.001423  f :     0.008385
      f+1     :     0.000816
      f-1     :     0.000798
      f+2     :     0.000984
      f-2     :     0.000733
      f+3     :     0.002055
      f-3     :     0.001574
  8 C s       :     3.040923  s :     3.040923
      pz      :     0.894843  p :     2.443109
      px      :     0.691821
      py      :     0.856446
      dz2     :     0.017266  d :     0.192695
      dxz     :     0.032931
      dyz     :     0.030521
      dx2y2   :     0.063345
      dxy     :     0.048633
      f0      :     0.001848  f :     0.017064
      f+1     :     0.002462
      f-1     :     0.001397
      f+2     :     0.001885
      f-2     :     0.002407
      f+3     :     0.003964
      f-3     :     0.003101
  9 H s       :     0.851335  s :     0.851335
      pz      :     0.009045  p :     0.038915
      px      :     0.007578
      py      :     0.022292
      dz2     :     0.000196  d :     0.002109
      dxz     :     0.000024
      dyz     :     0.000588
      dx2y2   :     0.000614
      dxy     :     0.000687
 10 H s       :     0.860956  s :     0.860956
      pz      :     0.009554  p :     0.038877
      px      :     0.007774
      py      :     0.021549
      dz2     :     0.000207  d :     0.002103
      dxz     :     0.000030
      dyz     :     0.000596
      dx2y2   :     0.000607
      dxy     :     0.000663
 11 H s       :     0.836133  s :     0.836133
      pz      :     0.014173  p :     0.044455
      px      :     0.019121
      py      :     0.011161
      dz2     :     0.000386  d :     0.002205
      dxz     :     0.000556
      dyz     :     0.000283
      dx2y2   :     0.000558
      dxy     :     0.000422
 12 H s       :     0.827810  s :     0.827810
      pz      :     0.015989  p :     0.046538
      px      :     0.021400
      py      :     0.009149
      dz2     :     0.000421  d :     0.002144
      dxz     :     0.000600
      dyz     :     0.000262
      dx2y2   :     0.000483
      dxy     :     0.000377
 13 C s       :     3.127642  s :     3.127642
      pz      :     0.712745  p :     2.357584
      px      :     0.735704
      py      :     0.909134
      dz2     :     0.055208  d :     0.209453
      dxz     :     0.031245
      dyz     :     0.036601
      dx2y2   :     0.065017
      dxy     :     0.021382
      f0      :     0.002248  f :     0.017337
      f+1     :     0.002713
      f-1     :     0.002205
      f+2     :     0.004114
      f-2     :     0.002345
      f+3     :     0.002131
      f-3     :     0.001580
 14 O s       :     3.854847  s :     3.854847
      pz      :     1.391859  p :     4.602930
      px      :     1.517079
      py      :     1.693992
      dz2     :     0.010347  d :     0.035299
      dxz     :     0.007869
      dyz     :     0.006824
      dx2y2   :     0.004172
      dxy     :     0.006086
      f0      :     0.000317  f :     0.002058
      f+1     :     0.000318
      f-1     :     0.000337
      f+2     :     0.000297
      f-2     :     0.000436
      f+3     :     0.000150
      f-3     :     0.000203
 15 H s       :     0.904223  s :     0.904223
      pz      :     0.005121  p :     0.034428
      px      :     0.005246
      py      :     0.024062
      dz2     :     0.000252  d :     0.002257
      dxz     :     0.000064
      dyz     :     0.000716
      dx2y2   :     0.000646
      dxy     :     0.000580
 16 O s       :     3.768282  s :     3.768282
      pz      :     1.713414  p :     4.565961
      px      :     1.280887
      py      :     1.571661
      dz2     :     0.005063  d :     0.042681
      dxz     :     0.006992
      dyz     :     0.005926
      dx2y2   :     0.006730
      dxy     :     0.017970
      f0      :     0.000347  f :     0.002223
      f+1     :     0.000351
      f-1     :     0.000129
      f+2     :     0.000252
      f-2     :     0.000435
      f+3     :     0.000289
      f-3     :     0.000420
 17 C s       :     3.119602  s :     3.119602
      pz      :     0.989343  p :     2.752929
      px      :     0.837613
      py      :     0.925974
      dz2     :     0.014954  d :     0.125278
      dxz     :     0.020806
      dyz     :     0.038562
      dx2y2   :     0.018285
      dxy     :     0.032672
      f0      :     0.000773  f :     0.009775
      f+1     :     0.001568
      f-1     :     0.001225
      f+2     :     0.000742
      f-2     :     0.002167
      f+3     :     0.001624
      f-3     :     0.001677
 18 H s       :     0.875716  s :     0.875716
      pz      :     0.009086  p :     0.032668
      px      :     0.011706
      py      :     0.011876
      dz2     :     0.000236  d :     0.002119
      dxz     :     0.000439
      dyz     :     0.000310
      dx2y2   :     0.000571
      dxy     :     0.000563
 19 H s       :     0.899502  s :     0.899502
      pz      :     0.015175  p :     0.032140
      px      :     0.007707
      py      :     0.009258
      dz2     :     0.000533  d :     0.002124
      dxz     :     0.000394
      dyz     :     0.000516
      dx2y2   :     0.000231
      dxy     :     0.000451
 20 H s       :     0.903140  s :     0.903140
      pz      :     0.016072  p :     0.032417
      px      :     0.007180
      py      :     0.009165
      dz2     :     0.000529  d :     0.002123
      dxz     :     0.000441
      dyz     :     0.000611
      dx2y2   :     0.000206
      dxy     :     0.000337
 21 H s       :     0.872419  s :     0.872419
      pz      :     0.012299  p :     0.042466
      px      :     0.016304
      py      :     0.013862
      dz2     :     0.000247  d :     0.002262
      dxz     :     0.000435
      dyz     :     0.000263
      dx2y2   :     0.000717
      dxy     :     0.000600


                     *******************************
                     * LOEWDIN POPULATION ANALYSIS *
                     *******************************

----------------------
LOEWDIN ATOMIC CHARGES
----------------------
   0 C :    0.066789
   1 C :    0.073655
   2 C :    0.072358
   3 C :   -0.065598
   4 H :    0.004025
   5 H :    0.021068
   6 H :    0.003900
   7 C :   -0.041100
   8 C :   -0.222319
   9 H :    0.008137
  10 H :    0.002594
  11 H :    0.018997
  12 H :    0.004112
  13 C :   -0.174573
  14 O :    0.025901
  15 H :    0.007291
  16 O :    0.221272
  17 C :   -0.044732
  18 H :    0.007705
  19 H :    0.000124
  20 H :   -0.001487
  21 H :    0.011879

-------------------------------
LOEWDIN REDUCED ORBITAL CHARGES
-------------------------------
  0 C s       :     2.745867  s :     2.745867
      pz      :     0.865325  p :     2.825351
      px      :     0.924258
      py      :     1.035768
      dz2     :     0.031544  d :     0.331330
      dxz     :     0.046203
      dyz     :     0.090730
      dx2y2   :     0.058473
      dxy     :     0.104382
      f0      :     0.003886  f :     0.030663
      f+1     :     0.002039
      f-1     :     0.003280
      f+2     :     0.005299
      f-2     :     0.003288
      f+3     :     0.007564
      f-3     :     0.005307
  1 C s       :     2.743539  s :     2.743539
      pz      :     0.826378  p :     2.819531
      px      :     0.990556
      py      :     1.002597
      dz2     :     0.032259  d :     0.332976
      dxz     :     0.094031
      dyz     :     0.021223
      dx2y2   :     0.108479
      dxy     :     0.076983
      f0      :     0.002563  f :     0.030300
      f+1     :     0.003275
      f-1     :     0.002474
      f+2     :     0.002906
      f-2     :     0.005149
      f+3     :     0.007358
      f-3     :     0.006575
  2 C s       :     2.751553  s :     2.751553
      pz      :     0.897724  p :     2.875245
      px      :     0.974815
      py      :     1.002706
      dz2     :     0.024094  d :     0.272934
      dxz     :     0.063602
      dyz     :     0.026975
      dx2y2   :     0.094465
      dxy     :     0.063799
      f0      :     0.002331  f :     0.027910
      f+1     :     0.002167
      f-1     :     0.002922
      f+2     :     0.002412
      f-2     :     0.004988
      f+3     :     0.006285
      f-3     :     0.006805
  3 C s       :     2.743098  s :     2.743098
      pz      :     0.936111  p :     2.900128
      px      :     0.930458
      py      :     1.033559
      dz2     :     0.036294  d :     0.383856
      dxz     :     0.050849
      dyz     :     0.103570
      dx2y2   :     0.076038
      dxy     :     0.117105
      f0      :     0.004286  f :     0.038515
      f+1     :     0.003705
      f-1     :     0.003507
      f+2     :     0.006994
      f-2     :     0.004930
      f+3     :     0.009303
      f-3     :     0.005790
  4 H s       :     0.818332  s :     0.818332
      pz      :     0.057554  p :     0.150316
      px      :     0.050181
      py      :     0.042582
      dz2     :     0.006189  d :     0.027327
      dxz     :     0.006335
      dyz     :     0.005595
      dx2y2   :     0.004907
      dxy     :     0.004300
  5 H s       :     0.796620  s :     0.796620
      pz      :     0.046279  p :     0.154148
      px      :     0.065470
      py      :     0.042399
      dz2     :     0.003664  d :     0.028165
      dxz     :     0.006028
      dyz     :     0.003309
      dx2y2   :     0.007846
      dxy     :     0.007319
  6 H s       :     0.810648  s :     0.810648
      pz      :     0.059962  p :     0.157448
      px      :     0.052516
      py      :     0.044971
      dz2     :     0.006834  d :     0.028004
      dxz     :     0.005770
      dyz     :     0.005811
      dx2y2   :     0.004903
      dxy     :     0.004685
  7 C s       :     2.722701  s :     2.722701
      pz      :     0.886900  p :     2.879003
      px      :     1.000050
      py      :     0.992053
      dz2     :     0.025837  d :     0.397281
      dxz     :     0.045688
      dyz     :     0.062611
      dx2y2   :     0.121985
      dxy     :     0.141162
      f0      :     0.003049  f :     0.042114
      f+1     :     0.002614
      f-1     :     0.003362
      f+2     :     0.006947
      f-2     :     0.003465
      f+3     :     0.013922
      f-3     :     0.008756
  8 C s       :     2.709701  s :     2.709701
      pz      :     0.835993  p :     2.732582
      px      :     0.869860
      py      :     1.026728
      dz2     :     0.070039  d :     0.682566
      dxz     :     0.112442
      dyz     :     0.104825
      dx2y2   :     0.193728
      dxy     :     0.201532
      f0      :     0.006439  f :     0.097470
      f+1     :     0.011396
      f-1     :     0.006832
      f+2     :     0.011827
      f-2     :     0.015379
      f+3     :     0.026746
      f-3     :     0.018852
  9 H s       :     0.816846  s :     0.816846
      pz      :     0.038940  p :     0.147974
      px      :     0.034260
      py      :     0.074775
      dz2     :     0.002482  d :     0.027042
      dxz     :     0.000117
      dyz     :     0.007658
      dx2y2   :     0.007878
      dxy     :     0.008907
 10 H s       :     0.817710  s :     0.817710
      pz      :     0.042323  p :     0.152204
      px      :     0.036712
      py      :     0.073169
      dz2     :     0.002705  d :     0.027492
      dxz     :     0.000468
      dyz     :     0.008028
      dx2y2   :     0.007620
      dxy     :     0.008670
 11 H s       :     0.798016  s :     0.798016
      pz      :     0.048591  p :     0.154917
      px      :     0.058465
      py      :     0.047861
      dz2     :     0.005036  d :     0.028069
      dxz     :     0.006454
      dyz     :     0.003956
      dx2y2   :     0.006952
      dxy     :     0.005671
 12 H s       :     0.802945  s :     0.802945
      pz      :     0.059947  p :     0.164152
      px      :     0.063194
      py      :     0.041011
      dz2     :     0.006474  d :     0.028791
      dxz     :     0.007540
      dyz     :     0.003575
      dx2y2   :     0.005809
      dxy     :     0.005392
 13 C s       :     2.772451  s :     2.772451
      pz      :     0.812701  p :     2.598424
      px      :     0.825070
      py      :     0.960654
      dz2     :     0.151270  d :     0.701871
      dxz     :     0.137212
      dyz     :     0.134876
      dx2y2   :     0.184724
      dxy     :     0.093790
      f0      :     0.012719  f :     0.101827
      f+1     :     0.015197
      f-1     :     0.013316
      f+2     :     0.024762
      f-2     :     0.012996
      f+3     :     0.013414
      f-3     :     0.009423
 14 O s       :     3.406173  s :     3.406173
      pz      :     1.419016  p :     4.495201
      px      :     1.462022
      py      :     1.614163
      dz2     :     0.012237  d :     0.067240
      dxz     :     0.018120
      dyz     :     0.016116
      dx2y2   :     0.011101
      dxy     :     0.009667
      f0      :     0.000491  f :     0.005484
      f+1     :     0.000958
      f-1     :     0.000699
      f+2     :     0.001257
      f-2     :     0.001242
      f+3     :     0.000475
      f-3     :     0.000363
 15 H s       :     0.843966  s :     0.843966
      pz      :     0.023771  p :     0.125189
      px      :     0.023449
      py      :     0.077968
      dz2     :     0.003022  d :     0.023554
      dxz     :     0.000452
      dyz     :     0.006438
      dx2y2   :     0.007373
      dxy     :     0.006268
 16 O s       :     3.235752  s :     3.235752
      pz      :     1.597753  p :     4.430726
      px      :     1.296176
      py      :     1.536797
      dz2     :     0.011384  d :     0.106123
      dxz     :     0.022386
      dyz     :     0.012307
      dx2y2   :     0.025080
      dxy     :     0.034966
      f0      :     0.000624  f :     0.006126
      f+1     :     0.000900
      f-1     :     0.000387
      f+2     :     0.000677
      f-2     :     0.000915
      f+3     :     0.001583
      f-3     :     0.001040
 17 C s       :     2.718908  s :     2.718908
      pz      :     0.988631  p :     2.801640
      px      :     0.864026
      py      :     0.948983
      dz2     :     0.053296  d :     0.457880
      dxz     :     0.080862
      dyz     :     0.128110
      dx2y2   :     0.060773
      dxy     :     0.134839
      f0      :     0.006296  f :     0.066303
      f+1     :     0.010651
      f-1     :     0.007506
      f+2     :     0.005347
      f-2     :     0.011370
      f+3     :     0.013192
      f-3     :     0.011941
 18 H s       :     0.829576  s :     0.829576
      pz      :     0.040063  p :     0.135301
      px      :     0.049444
      py      :     0.045794
      dz2     :     0.003399  d :     0.027418
      dxz     :     0.005277
      dyz     :     0.005024
      dx2y2   :     0.006532
      dxy     :     0.007186
 19 H s       :     0.836253  s :     0.836253
      pz      :     0.053603  p :     0.136650
      px      :     0.035818
      py      :     0.047229
      dz2     :     0.005984  d :     0.026973
      dxz     :     0.005801
      dyz     :     0.006968
      dx2y2   :     0.003985
      dxy     :     0.004235
 20 H s       :     0.837656  s :     0.837656
      pz      :     0.058407  p :     0.136839
      px      :     0.031802
      py      :     0.046631
      dz2     :     0.008452  d :     0.026991
      dxz     :     0.004641
      dyz     :     0.007156
      dx2y2   :     0.002801
      dxy     :     0.003941
 21 H s       :     0.804561  s :     0.804561
      pz      :     0.050752  p :     0.155616
      px      :     0.057570
      py      :     0.047294
      dz2     :     0.003185  d :     0.027944
      dxz     :     0.005601
      dyz     :     0.003479
      dx2y2   :     0.008164
      dxy     :     0.007516


                      *****************************
                      * MAYER POPULATION ANALYSIS *
                      *****************************

  NA   - Mulliken gross atomic population
  ZA   - Total nuclear charge
  QA   - Mulliken gross atomic charge
  VA   - Mayer's total valence
  BVA  - Mayer's bonded valence
  FA   - Mayer's free valence

  ATOM       NA         ZA         QA         VA         BVA        FA
  0 C      6.1522     6.0000    -0.1522     3.8848     3.8848    -0.0000
  1 C      6.1202     6.0000    -0.1202     3.8664     3.8664     0.0000
  2 C      6.2459     6.0000    -0.2459     3.8906     3.8906     0.0000
  3 C      6.1418     6.0000    -0.1418     3.6702     3.6702    -0.0000
  4 H      0.8985     1.0000     0.1015     1.0125     1.0125     0.0000
  5 H      0.8556     1.0000     0.1444     1.0045     1.0045    -0.0000
  6 H      0.8953     1.0000     0.1047     1.0020     1.0020    -0.0000
  7 C      6.2093     6.0000    -0.2093     3.8831     3.8831    -0.0000
  8 C      5.6938     6.0000     0.3062     3.7394     3.7394     0.0000
  9 H      0.8924     1.0000     0.1076     1.0024     1.0024     0.0000
 10 H      0.9019     1.0000     0.0981     1.0227     1.0227     0.0000
 11 H      0.8828     1.0000     0.1172     1.0244     1.0244     0.0000
 12 H      0.8765     1.0000     0.1235     1.0139     1.0139     0.0000
 13 C      5.7120     6.0000     0.2880     4.0298     4.0298    -0.0000
 14 O      8.4951     8.0000    -0.4951     1.9482     1.9482     0.0000
 15 H      0.9409     1.0000     0.0591     1.0030     1.0030    -0.0000
 16 O      8.3791     8.0000    -0.3791     1.9164     1.9164    -0.0000
 17 C      6.0076     6.0000    -0.0076     3.9010     3.9010    -0.0000
 18 H      0.9105     1.0000     0.0895     0.9998     0.9998    -0.0000
 19 H      0.9338     1.0000     0.0662     0.9877     0.9877    -0.0000
 20 H      0.9377     1.0000     0.0623     0.9910     0.9910     0.0000
 21 H      0.9171     1.0000     0.0829     1.0193     1.0193    -0.0000

  Mayer bond orders larger than 0.100000
B(  0-C ,  1-C ) :   0.2888 B(  0-C ,  3-C ) :   1.4987 B(  0-C ,  4-H ) :   1.0131 
B(  0-C ,  5-H ) :   0.9897 B(  1-C ,  7-C ) :   1.5311 B(  1-C ,  9-H ) :   1.0028 
B(  1-C , 11-H ) :   1.0095 B(  2-C ,  3-C ) :   0.2292 B(  2-C ,  8-C ) :   1.5277 
B(  2-C , 10-H ) :   1.0004 B(  2-C , 12-H ) :   1.0180 B(  3-C ,  6-H ) :   1.0053 
B(  3-C , 13-C ) :   1.0271 B(  7-C ,  8-C ) :   1.2318 B(  7-C , 21-H ) :   1.0135 
B(  8-C , 16-O ) :   1.0336 B( 13-C , 14-O ) :   1.8939 B( 13-C , 15-H ) :   1.0541 
B( 16-O , 17-C ) :   0.9037 B( 17-C , 18-H ) :   1.0036 B( 17-C , 19-H ) :   0.9996 
B( 17-C , 20-H ) :   0.9974 

-------
TIMINGS
-------

Total SCF time: 0 days 0 hours 1 min 6 sec 

Total time                  ....      66.217 sec
Sum of individual times     ....      65.511 sec  ( 98.9%)

Fock matrix formation       ....      61.991 sec  ( 93.6%)
Diagonalization             ....       0.352 sec  (  0.5%)
Density matrix formation    ....       0.023 sec  (  0.0%)
Population analysis         ....       0.084 sec  (  0.1%)
Initial guess               ....       1.778 sec  (  2.7%)
Orbital Transformation      ....       0.000 sec  (  0.0%)
Orbital Orthonormalization  ....       0.000 sec  (  0.0%)
DIIS solution               ....       0.336 sec  (  0.5%)
SOSCF solution              ....       0.869 sec  (  1.3%)

Maximum memory used throughout the entire SCF-calculation: 246.6 MB


           ************************************************************
           *        Program running with 16 parallel MPI-processes    *
           *              working on a common directory               *
           ************************************************************


--------------------------------------------------------------------------------
                             ORCA-MATRIX DRIVEN CI
--------------------------------------------------------------------------------


Wavefunction type
-----------------
Correlation treatment                      ...      CCSD     
Single excitations                         ... ON
Orbital optimization                       ... OFF
Calculation of Z vector                    ... OFF
Calculation of Brueckner orbitals          ... OFF
Perturbative triple excitations            ... ON
Calculation of F12 correction              ... OFF
Frozen core treatment                      ... chemical core (20 el)
Reference Wavefunction                     ... RHF
  Internal Orbitals:    10 ...   37 ( 28 MO's/ 56 electrons)
  Virtual  Orbitals:    38 ...  477 (440 MO's              )
Number of AO's                             ...    478
Number of electrons                        ...     76
Number of correlated electrons             ...     56

Algorithmic settings
--------------------
Integral transformation                    ... All integrals via the RI transformation
K(C) Formation                             ... RI-DLPNO
   PNO-Integral Storage                    ... ON DISK
   PNO occupation number cut-off           ... 3.330e-07
   Singles PNO occupation number cut-off   ... 9.990e-09
   PNO Mulliken prescreening cut-off       ... 1.000e-03
   Domain cut-off (Mulliken population)    ... 1.000e-03
   PNO Normalization                       ...    1
Maximum number of iterations               ...        50
Convergence tolerance (max. residuum)      ... 2.500e-05
Level shift for amplitude update           ... 2.000e-01
Maximum number of DIIS vectors             ...         7
DIIS turned on at iteration                ...         0
Damping before turning on DIIS             ...     0.500
Damping after turning on DIIS              ...     0.000
[...]

   .... Finished loop over pairs
Making pair pair interaction lists          ... done

                       ===========================
                        283 OF  406 PAIRS ARE KEPT CCSD PAIRS
                         82 OF  406 PAIRS ARE KEPT MP2 PAIRS FOR (T)
                         41 OF  406 PAIRS ARE SKIPPED
                       ===========================

Total time spent in the initial guess                 ...     2.179 sec
SL-MP2 correlation energy (all non-screened pairs)    ...      -1.741366189429 Eh

Initial PNO correlation energy                        ...      -1.732764267258 Eh
sum of pair energies prescreened and skipped MP2 pairs...      -0.000192275440 Eh
sum of pair energies of crude MP2 skipped pairs only  ...      -0.000192275440 Eh
sum of MP2 pair energies for pairs that were not kept ...      -0.003402544134 Eh
sum of PNO error estimates for the kept pairs         ...      -0.005199378037 Eh
                                                          --------------------
sum of all corrections                                         -0.008601922171
Initial total correlation energy                               -1.741366189429
Thresholds for map construction and integral transformation for fine MP2 and CCSD(T) calculation:
   TCutMKN   ...     1.0e-03
   TCutDO    ...     1.0e-02
   TCutPairs ...     1.0e-04
   TCutCMO   ...     1.0e-03
   TCutCPAO  ...     1.0e-03

Thresholds for map construction and integral transformation for strong Triples:
   TCutMKN   ...     1.0e-02
   TCutDO    ...     2.0e-02
   TCutCMO   ...     1.0e-03
   TCutCPAO  ...     1.0e-03

Thresholds for map construction and integral transformation for weak Triples:
   TCutMKN   ...     1.0e-01
   TCutDO    ...     4.0e-02
   TCutCMO   ...     1.0e-03
   TCutCPAO  ...     1.0e-03

--------------------------------
LOCAL RI TRANSFORMATION (IAVPAO)
--------------------------------

Orbital window:      10 to 37
Number of PAOs:     478
Basis functions:    478 (182 shells)
Aux. functions:    1120 (340 shells)
Use SHARK:           on

Processing maps (0.0 sec)
Average map sizes:
   Aux shells -> MOs              27.8
   Aux shells -> PAOs            478.0
   MOs        -> AO shells       174.1
   PAOs       -> AO shells       181.6

Calculating integrals (0.5 sec, 113.722 MB)
Sorting integrals (0.1 sec, 113.709 MB)
Total time for the integral transformation: 0.6 sec
--------------------------------
INITIAL GUESS AND PNO GENERATION
--------------------------------

PNO truncation parameters                   .... 
    PAOOverlapThresh   =        1.000e-08

    TCutPairs          =        1.000e-04
    TCutPNO            =        3.330e-07
    TCutPNOSingles     =        9.990e-09
    TCutMP2Pairs       =        1.000e-05
    TCutMKN            =        1.000e-03
    TCutDO             =        1.000e-02

Pair selection                          .... not used
Type of local MP2 treatment                 .... semi-local MP2
Strategy for PNO selection                  .... occupation number selection
Pair density normalization                  .... MP2 norm
Spin component scaling                      .... not used

   .... Finished loop over pairs

 PNO Occupation Number Statistics: 
  | Av. % of trace(Dij) retained        ...  97.823996883931
  | sigma^2 in % of trace(Dij) retained ...   7.07e+00
  | Av. % of trace(Di) retained         ...  99.998990723675
  | sigma^2 in % of trace(Di) retained  ...   2.12e-07
 Distributions of % trace(Dij) recovered:
  |       >= 99.9  ...    79 ( 21.6 % of all pairs)
  |   [80.0, 90.0) ...     7 (  1.9 % of all pairs)
  |   [90.0, 99.0) ...   183 ( 50.1 % of all pairs)
  |   [99.0, 99.9) ...    96 ( 26.3 % of all pairs)
 Distributions of % trace(Di) recovered :
  |       >= 99.9  ...    28 (100.0 % of all I-pairs )

Making pair pair interaction lists          ... done

                       ===========================
                        283 OF  365 PAIRS ARE KEPT
                       ===========================

Total time spent in the initial guess                 ...     3.762 sec
SL-MP2 correlation energy (all non-screened pairs)    ...      -1.742507501783 Eh

Initial PNO correlation energy                        ...      -1.734023134161 Eh
sum of pair energies estimated for screened out pairs ...      -0.000192275440 Eh
sum of MP2 pair energies for pairs that were not kept ...      -0.003215585468 Eh
sum of PNO error estimates for the kept pairs         ...      -0.005268782154 Eh
                                                          --------------------
sum of all corrections                                         -0.008676643063
Initial total correlation energy                               -1.742699777224
Thresholds for map construction and integral transformation for fine MP2 and CCSD(T) calculation:
   TCutMKN   ...     1.0e-03
   TCutDO    ...     1.0e-02
   TCutPairs ...     1.0e-04
   TCutCMO   ...     1.0e-03
   TCutCPAO  ...     1.0e-03

Time for aux screen maps:            0.003
Time for maps after fine MP2:            0.013
-----------------------------
LOCAL RI TRANSFORMATION (IJV)
-----------------------------

Orbital window:      10 to 37
Basis functions:    478 (182 shells)
Aux. functions:    1120 (340 shells)
Use SHARK:           on

Processing maps (0.0 sec)
Average map sizes:
   Aux shells -> MOs(i)           27.4
   Aux shells -> MOs(j)           28.0
   MOs        -> AO shells       174.1

Calculating integrals (0.4 sec, 6.590 MB)
Sorting integrals (0.0 sec, 6.578 MB)
Total time for the integral transformation: 0.4 sec
--------------------------------
LOCAL RI TRANSFORMATION (VABPAO)
--------------------------------

Number of PAOs:     478
Basis functions:    478 (182 shells)
Aux. functions:    1120 (340 shells)
Use SHARK:           on

Processing maps (0.0 sec)
Average map sizes:
   Aux shells -> PAOs            478.0
   PAOs       -> AO shells       181.6

Calculating integrals (1.5 sec, 1952.391 MB)
Finished


-------------------------------------
Pair Pair Term precalculation with     
RI-(ij|mn) and (im|jn) transformation  
ON THE FLY                             
-------------------------------------

   IBatch   1 (of   2)              ... done (   32.827 sec)
   IBatch   2 (of   2)              ... done (   19.045 sec)
Total EXT                           ...          51.872 sec

---------------------
RI-PNO TRANSFORMATION
---------------------

Total Number of PNOs                   ...  9562
Average number of PNOs per pair        ...    33
Maximal number of PNOs per pair        ...    77
   #pairs with  1 -  5 PNOs   :    0
   #pairs with  6 - 10 PNOs   :    7
   #pairs with 11 - 15 PNOs   :   26
   #pairs with 16 - 20 PNOs   :   40
   #pairs with 21 - 25 PNOs   :   27
   #pairs with 26 - 30 PNOs   :   27
   #pairs with 31 - 35 PNOs   :   32
   #pairs with 36 - 40 PNOs   :   29
   #pairs with 41 - 45 PNOs   :   35
   #pairs with 46 - 50 PNOs   :   16
   #pairs with 51 - 55 PNOs   :   20
   #pairs with 56 - 60 PNOs   :   11
   #pairs with 61 - 65 PNOs   :    3
   #pairs with 66 - 70 PNOs   :    5
   #pairs with 71 - 75 PNOs   :    2
   #pairs with 76 - 80 PNOs   :    3

Generation of (ij|ab)[P] integrals            ... on
Generation of (ia|bc)[P],(ja|bc)[P] integrals ... on
Storage of 3 and 4 external integrals         ... on
Generation of ALL (ka|bc)[P] integrals        ... on
Keep RI integrals in memory                   ... off

Ibatch:  1 (of  1)
Starting 2-4 index PNO integral generation ... done

Timings:
Total PNO integral transformation time     ...         19.763 sec
Size of the 3-external file                ...       141 MB
Size of the 4-external file                ...       921 MB
Size of the IKJL file                      ...         0 MB
Size of the all 3-external file            ...      1975 MB
Size of the 1-external file                ...         6 MB

Making pair/pair overlap matrices          ... done (    2.238 sec)
Size of the pair overlap file              ... 535 MB
Redoing the guess amplitudes               ... done (    0.003 sec)

-------------------------
FINAL STARTUP INFORMATION
-------------------------

E(0)                                       ...   -459.674547448
E(SL-MP2)                                  ...     -1.742507502
E(SL-MP2) including corrections            ...     -1.742699777
Initial E(tot)                             ...   -461.417247225
<T|T>                                      ...      0.500560398
Number of pairs included                   ... 283
Total number of pairs                      ... 406

------------------------------------------------
                  RHF COUPLED CLUSTER ITERATIONS
------------------------------------------------

Number of PNO amplitudes to be optimized   ...       389202
Number of non-PNO amplitudes               ...     54788800
Untruncated number of regular amplitudes   ...     78601600

Iter       E(tot)           E(Corr)          Delta-E          Residual     Time
  0   -461.417329183     -1.734105093      0.008402409      0.019498536    7.35
                           *** Turning on DIIS ***
  1   -461.475342133     -1.792118043     -0.058012950      0.013312882   10.44
  2   -461.521512093     -1.838288003     -0.046169960      0.006429924    5.19
  3   -461.530778816     -1.847554725     -0.009266723      0.004151268    5.22
  4   -461.533840533     -1.850616442     -0.003061717      0.001902047    5.53
  5   -461.534968942     -1.851744851     -0.001128409      0.000858207    9.03
  6   -461.535270711     -1.852046621     -0.000301769      0.000370493    5.31
  7   -461.535312067     -1.852087977     -0.000041356      0.000228673    5.28
  8   -461.535334990     -1.852110899     -0.000022922      0.000143297    5.28
  9   -461.535322936     -1.852098846      0.000012053      0.000071338    5.25
 10   -461.535330408     -1.852106317     -0.000007471      0.000030348    5.26
 11   -461.535328621     -1.852104530      0.000001787      0.000012265    5.27
               --- The Coupled-Cluster iterations have converged ---

----------------------
COUPLED CLUSTER ENERGY
----------------------

E(0)                                       ...   -459.674547448
E(CORR)(strong-pairs)                      ...     -1.852104530
E(CORR)(weak-pairs)                        ...     -0.008676643
E(CORR)(corrected)                         ...     -1.860781173
E(TOT)                                     ...   -461.535328621
Singles Norm <S|S>**1/2                    ...      0.091480960  
T1 diagnostic                              ...      0.012224657  

------------------
LARGEST AMPLITUDES
------------------
  30-> 38  30-> 38       0.055097
  29-> 38  29-> 38       0.054518
  33-> 38  33-> 38       0.048651
  15-> 38  15-> 38       0.047263
  20-> 38  20-> 38       0.046103
  30-> 38  29-> 38       0.042635
  22-> 38  22-> 38       0.038714
  22-> 39  22-> 39       0.036630
  32-> 39  32-> 39       0.034682
  34-> 41  34-> 41       0.033110
  31-> 42  31-> 42       0.031987
  35-> 38  35-> 38       0.031724
  36-> 38  36-> 38       0.031606
  31-> 38  31-> 38       0.031189
  34-> 38  34-> 38       0.030895
  29-> 38  -1-> -1       0.030657


-------------------------------------------
DLPNO BASED TRIPLES CORRECTION
-------------------------------------------

Singles multiplier          ...  1.000000
TCutTNO                     ... 1.000e-09
TCutMP2Pairs                ... 1.000e-05
TCutDOStrong                ... 2.000e-02
TCutMKNStrong               ... 1.000e-02
TCutDOWeak                  ... 4.000e-02
TCutMKNWeak                 ... 1.000e-01

Fragment selection                          .... not used
Fock matrix occ-virt block is zero --> Setting DT_in_Triples to false.
Number of Triples that are to be computed   ...      2504

 . . . . . . . . .
10% done  
20% done  
30% done  
40% done  
50% done  
60% done  
70% done  
80% done  
90% done               (     98.214 sec)
Triples timings:
Total time for T0               ...   106.282 sec
Total time for Iterative (T)    ...     0.000 sec
Total time of overall (T)       ...   112.229 sec

Triples List generation         ...     0.000 sec
TNO generation                  ...     8.057 sec
Pair density generation         ...     0.005 sec
Look up tables                  ...     0.000 sec
Generating 3-index integrals    ...    67.148 sec
  Make 4-ind.int. from 3-ind.int...     7.919 sec
  Projecting amplitudes (D + S) ...    12.536 sec
  Downprojecting integrals      ...     0.001 sec
  Energy contr. (sum over a,b,c)...     1.966 sec
Fitting ET(->0)                 ...     0.000 sec

Everything after 3-index        ...    31.066 sec

Timing details:
 TNO integrals                  ...    74.418 sec
   Reading 3-index integrals    ...     0.373 sec
   Sorting integrals            ...     7.841 sec
       Sorting integrals 1      ...     0.001 sec
       Sorting integrals 2      ...     5.822 sec
       Sorting integrals 3      ...     0.275 sec
       Sorting integrals 4      ...     0.020 sec
       Sorting integrals 5      ...     0.073 sec
       Sorting integrals 6      ...     1.650 sec
   Calculating local VM**-1/2   ...     0.296 sec
   Orthogonal. integrals        ...     0.657 sec
   Multipl. 3-index integrals   ...    65.251 sec
   All concerning IRIab (w/TNO) ...     4.987 sec

 Calculate W0/W1                ...     8.639 sec
 W 3-ext contribution           ...     5.108 sec
 W 3-int contribution           ...     1.504 sec
 Sorting W                      ...     1.872 sec

 V exchange contribution        ...     0.793 sec

 Timings for Triples without generation
     of 3-index integrals       ...    31.065 sec
       0 weak pairs             ...    25.980 sec
       1 weak pair              ...     5.085 sec
       2 weak pairs             ...     0.000 sec
       3 weak pairs             ...     0.000 sec
  Extra time for extrapolation  ...     0.000 sec

Number of Triples   (0, 1, 2, 3 weak pairs; overall):   1747     757       0       0  (  2504)
Number of Atoms     (0, 1, 2, 3 weak pairs; overall):   15.4    12.8     0.0     0.0  (    22)
Number of PAOs      (0, 1, 2, 3 weak pairs; overall):  356.8   307.7     0.0     0.0  (   478)
Number of AuxFcns   (0, 1, 2, 3 weak pairs; overall):  435.8   345.2     0.0     0.0  (  1120)
Number of TNOs      (0, 1, 2, 3 weak pairs         ):   91.1    66.3     0.0     0.0
Aver. Number of NTNO, Atoms, PAOs, AuxFcns / Triples:   2504    83.6    14.6   342.0   408.4

Triples Correction (T)                     ...     -0.084996433
Final correlation energy                   ...     -1.945777606
E(CCSD)                                    ...   -461.535328621
E(CCSD(T))                                 ...   -461.620325053



--------------------------------------------------------------------------------
                                    TIMINGS
--------------------------------------------------------------------------------


Total execution time                   ...      282.226 sec

Localization of occupied MO's          ...        0.475 sec (  0.2%)
Fock Matrix Formation                  ...        8.360 sec (  3.0%)
Global overlap, Fock, MKN matrices     ...        0.395 sec (  0.1%)
Differential overlap integrals         ...        0.569 sec (  0.2%)
Organizing maps                        ...        0.039 sec (  0.0%)
RI 3-index integral generations        ...        3.168 sec (  1.1%)
RI-PNO integral transformation         ...       76.083 sec ( 27.0%)
Initial Guess                          ...        5.997 sec (  2.1%)
DIIS Solver                            ...        0.260 sec (  0.1%)
State Vector Update                    ...        0.018 sec (  0.0%)
Sigma-vector construction              ...       74.128 sec ( 26.3%)
  <D|H|D>(0-ext)                       ...        2.041 sec (  2.8% of sigma)
  <D|H|D>(2-ext Fock)                  ...        0.010 sec (  0.0% of sigma)
  <D|H|D>(2-ext)                       ...       11.565 sec ( 15.6% of sigma)
  <D|H|D>(4-ext)                       ...        7.300 sec (  9.8% of sigma)
  <D|H|D>(4-ext-corr)                  ...       30.267 sec ( 40.8% of sigma)
  CCSD doubles correction              ...        0.110 sec (  0.1% of sigma)
  <S|H|S>                              ...        0.342 sec (  0.5% of sigma)
  <S|H|D>(1-ext)                       ...        0.307 sec (  0.4% of sigma)
  <D|H|S>(1-ext)                       ...        0.006 sec (  0.0% of sigma)
  <S|H|D>(3-ext)                       ...        0.108 sec (  0.1% of sigma)
  Fock-dressing                        ...        6.093 sec (  8.2% of sigma)
  Singles amplitudes                   ...        0.715 sec (  1.0% of sigma)
  (ik|jl)-dressing                     ...        1.731 sec (  2.3% of sigma)
  (ij|ab),(ia|jb)-dressing             ...        2.109 sec (  2.8% of sigma)
  Pair energies                        ...        0.246 sec (  0.3% of sigma)
Total Time for computing (T)           ...      112.291 sec ( 39.8% of ALL)


Maximum memory used throughout the entire MDCI-calculation: 3962.2 MB

-------------------------   --------------------
FINAL SINGLE POINT ENERGY      -461.620325053295
-------------------------   --------------------


                            ***************************************
                            *     ORCA property calculations      *
                            ***************************************


  WARNING: The energy has been calculated at the MDCI level but the densities
           used in the property calculations are still SCF densities
           MDCI response densities have not been calculated 
           use %mdci Density linearized end
           or  %mdci Density unrelaxed end
           or  %mdci Density orbopt end

                                    ---------------------
                                    Active property flags
                                    ---------------------
   (+) Dipole Moment


------------------------------------------------------------------------------
                       ORCA ELECTRIC PROPERTIES CALCULATION
------------------------------------------------------------------------------

Dipole Moment Calculation                       ... on
Quadrupole Moment Calculation                   ... off
Polarizability Calculation                      ... off
GBWName                                         ... /tmp/42999/DATS_13_exo_i_DLPNO.gbw
Electron density                                ... /tmp/42999/DATS_13_exo_i_DLPNO.scfp
The origin for moment calculation is the CENTER OF MASS  = (-0.062561, -0.044058 -0.031067)

-------------
DIPOLE MOMENT
-------------
                                X             Y             Z
Electronic contribution:     -3.45851      -2.83936      -1.50390
Nuclear contribution   :      4.75467       3.34843       2.36109
                        -----------------------------------------
Total Dipole Moment    :      1.29616       0.50907       0.85719
                        -----------------------------------------
Magnitude (a.u.)       :      1.63523
Magnitude (Debye)      :      4.15641



--------------------
Rotational spectrum 
--------------------
 
Rotational constants in cm-1:     0.083885     0.025918     0.023492 
Rotational constants in MHz :  2514.820123   777.005058   704.264175 

 Dipole components along the rotational axes: 
x,y,z [a.u.] :    -1.287754     0.519223     0.863749 
x,y,z [Debye]:    -3.273209     1.319761     2.195475 

 

Timings for individual modules:

Sum of individual times         ...      351.123 sec (=   5.852 min)
GTO integral calculation        ...        0.667 sec (=   0.011 min)   0.2 %
SCF iterations                  ...       66.588 sec (=   1.110 min)  19.0 %
MDCI module                     ...      283.868 sec (=   4.731 min)  80.8 %
                             ****ORCA TERMINATED NORMALLY****
TOTAL RUN TIME: 0 days 0 hours 5 minutes 51 seconds 648 msec
