Job Start Time: Tue Jun 21 10:17:14 MDT 2022
SLURM Job ID: 40865
SLURM Job Name: DATS_14_exo_i
 Entering Gaussian System, Link 0=/opt/apps/Gaussian/G16C/g16/g16
 Initial command:
 /opt/apps/Gaussian/G16C/g16/l1.exe "/tmp/Gau-3358752.inp" -scrdir="/tmp/"
 Entering Link 1 = /opt/apps/Gaussian/G16C/g16/l1.exe PID=   3358753.
  
 Copyright (c) 1988-2019, Gaussian, Inc.  All Rights Reserved.
  
 This is part of the Gaussian(R) 16 program.  It is based on
 the Gaussian(R) 09 system (copyright 2009, Gaussian, Inc.),
 the Gaussian(R) 03 system (copyright 2003, Gaussian, Inc.),
 the Gaussian(R) 98 system (copyright 1998, Gaussian, Inc.),
 the Gaussian(R) 94 system (copyright 1995, Gaussian, Inc.),
 the Gaussian 92(TM) system (copyright 1992, Gaussian, Inc.),
 the Gaussian 90(TM) system (copyright 1990, Gaussian, Inc.),
 the Gaussian 88(TM) system (copyright 1988, Gaussian, Inc.),
 the Gaussian 86(TM) system (copyright 1986, Carnegie Mellon
 University), and the Gaussian 82(TM) system (copyright 1983,
 Carnegie Mellon University). Gaussian is a federally registered
 trademark of Gaussian, Inc.
  
 This software contains proprietary and confidential information,
 including trade secrets, belonging to Gaussian, Inc.
  
 This software is provided under written license and may be
 used, copied, transmitted, or stored only in accord with that
 written license.
  
 The following legend is applicable only to US Government
 contracts under FAR:
  
                    RESTRICTED RIGHTS LEGEND
  
 Use, reproduction and disclosure by the US Government is
 subject to restrictions as set forth in subparagraphs (a)
 and (c) of the Commercial Computer Software - Restricted
 Rights clause in FAR 52.227-19.
  
 Gaussian, Inc.
 340 Quinnipiac St., Bldg. 40, Wallingford CT 06492
  
  
 ---------------------------------------------------------------
 Warning -- This program may not be used in any manner that
 competes with the business of Gaussian, Inc. or will provide
 assistance to any competitor of Gaussian, Inc.  The licensee
 of this program is prohibited from giving any competitor of
 Gaussian, Inc. access to this program.  By using this program,
 the user acknowledges that Gaussian, Inc. is engaged in the
 business of creating and licensing software in the field of
 computational chemistry and represents and warrants to the
 licensee that it is not a competitor of Gaussian, Inc. and that
 it will not use this program in any manner prohibited above.
 ---------------------------------------------------------------
  

 Cite this work as:
 Gaussian 16, Revision C.01,
 M. J. Frisch, G. W. Trucks, H. B. Schlegel, G. E. Scuseria, 
 M. A. Robb, J. R. Cheeseman, G. Scalmani, V. Barone, 
 G. A. Petersson, H. Nakatsuji, X. Li, M. Caricato, A. V. Marenich, 
 J. Bloino, B. G. Janesko, R. Gomperts, B. Mennucci, H. P. Hratchian, 
 J. V. Ortiz, A. F. Izmaylov, J. L. Sonnenberg, D. Williams-Young, 
 F. Ding, F. Lipparini, F. Egidi, J. Goings, B. Peng, A. Petrone, 
 T. Henderson, D. Ranasinghe, V. G. Zakrzewski, J. Gao, N. Rega, 
 G. Zheng, W. Liang, M. Hada, M. Ehara, K. Toyota, R. Fukuda, 
 J. Hasegawa, M. Ishida, T. Nakajima, Y. Honda, O. Kitao, H. Nakai, 
 T. Vreven, K. Throssell, J. A. Montgomery, Jr., J. E. Peralta, 
 F. Ogliaro, M. J. Bearpark, J. J. Heyd, E. N. Brothers, K. N. Kudin, 
 V. N. Staroverov, T. A. Keith, R. Kobayashi, J. Normand, 
 K. Raghavachari, A. P. Rendell, J. C. Burant, S. S. Iyengar, 
 J. Tomasi, M. Cossi, J. M. Millam, M. Klene, C. Adamo, R. Cammi, 
 J. W. Ochterski, R. L. Martin, K. Morokuma, O. Farkas, 
 J. B. Foresman, and D. J. Fox, Gaussian, Inc., Wallingford CT, 2019.
 
 ******************************************
 Gaussian 16:  AS64L-G16RevC.01  3-Jul-2019
                21-Jun-2022 
 ******************************************
 %nprocshared=16
 Will use up to   16 processors via shared memory.
 -------------------------------------------------
 # opt=(calcfc,ts,noeigentest) freq 6-31g(d) m062x
 -------------------------------------------------
 1/5=1,10=4,11=1,18=20,26=3,38=1/1,3;
 2/9=110,12=2,17=6,18=5,40=1/2;
 3/5=1,6=6,7=1,11=2,25=1,30=1,71=2,74=-55,140=1/1,2,3;
 4//1;
 5/5=2,38=5/2;
 8/6=4,10=90,11=11/1;
 11/6=1,8=1,9=11,15=111,16=1/1,2,10;
 10/6=1,13=1/2;
 6/7=2,8=2,9=2,10=2,28=1/1;
 7/10=1,25=1/1,2,3,16;
 1/5=1,10=4,11=1,18=20,26=3/3(2);
 2/9=110/2;
 99//99;
 2/9=110/2;
 3/5=1,6=6,7=1,11=2,25=1,30=1,71=1,74=-55/1,2,3;
 4/5=5,16=3,69=1/1;
 5/5=2,38=5/2;
 7//1,2,3,16;
 1/5=1,11=1,18=20,26=3/3(-5);
 2/9=110/2;
 6/7=2,8=2,9=2,10=2,19=2,28=1/1;
 99/9=1/99;
 -------------------
 Title Card Required
 -------------------
 Symbolic Z-matrix:
 Charge =  0 Multiplicity = 1
 C                    -1.46442  -0.56807  -1.32635 
 C                     0.09333  -1.72764  -0.63331 
 C                    -0.6618   -0.69789   1.96113 
 C                    -2.10543   0.14941  -0.32654 
 H                    -0.79352  -0.00613  -1.97025 
 H                    -1.97319  -1.40925  -1.78957 
 H                    -1.73485   1.10165   0.038 
 C                     0.87261  -0.81866   0.0633 
 C                     0.5031   -0.35359   1.37092 
 H                     0.48015  -2.07894  -1.58449 
 H                    -0.94845  -0.2551    2.90938 
 H                     1.11468   0.41255   1.83475 
 H                    -0.51082  -2.43206  -0.07673 
 H                    -1.30902  -1.4761    1.57811 
 O                     1.91672  -0.30717  -0.61036 
 C                     2.5086    0.90066  -0.1528 
 H                     3.06613   0.73688   0.77628 
 H                     3.20547   1.19806  -0.9361 
 H                     1.74024   1.66695  -0.01562 
 C                    -3.28822  -0.42828   0.25371 
 O                    -3.80882  -1.46156  -0.16559 
 H                    -3.74244   0.11228   1.10783 
 
 Add virtual bond connecting atoms C2         and C1         Dist= 3.90D+00.

 GradGradGradGradGradGradGradGradGradGradGradGradGradGradGradGradGradGrad
 Berny optimization.
 Initialization pass.
                           ----------------------------
                           !    Initial Parameters    !
                           ! (Angstroms and Degrees)  !
 --------------------------                            --------------------------
 ! Name  Definition              Value          Derivative Info.                !
 --------------------------------------------------------------------------------
 ! R1    R(1,2)                  2.0619         calculate D2E/DX2 analytically  !
 ! R2    R(1,4)                  1.3876         calculate D2E/DX2 analytically  !
 ! R3    R(1,5)                  1.0865         calculate D2E/DX2 analytically  !
 ! R4    R(1,6)                  1.0867         calculate D2E/DX2 analytically  !
 ! R5    R(2,8)                  1.3852         calculate D2E/DX2 analytically  !
 ! R6    R(2,10)                 1.0853         calculate D2E/DX2 analytically  !
 ! R7    R(2,13)                 1.0821         calculate D2E/DX2 analytically  !
 ! R8    R(3,9)                  1.3505         calculate D2E/DX2 analytically  !
 ! R9    R(3,11)                 1.0851         calculate D2E/DX2 analytically  !
 ! R10   R(3,14)                 1.0822         calculate D2E/DX2 analytically  !
 ! R11   R(4,7)                  1.0849         calculate D2E/DX2 analytically  !
 ! R12   R(4,20)                 1.4385         calculate D2E/DX2 analytically  !
 ! R13   R(8,9)                  1.4362         calculate D2E/DX2 analytically  !
 ! R14   R(8,15)                 1.3437         calculate D2E/DX2 analytically  !
 ! R15   R(9,12)                 1.0845         calculate D2E/DX2 analytically  !
 ! R16   R(15,16)                1.4208         calculate D2E/DX2 analytically  !
 ! R17   R(16,17)                1.0958         calculate D2E/DX2 analytically  !
 ! R18   R(16,18)                1.0898         calculate D2E/DX2 analytically  !
 ! R19   R(16,19)                1.0938         calculate D2E/DX2 analytically  !
 ! R20   R(20,21)                1.2306         calculate D2E/DX2 analytically  !
 ! R21   R(20,22)                1.1082         calculate D2E/DX2 analytically  !
 ! A1    A(2,1,4)              113.4295         calculate D2E/DX2 analytically  !
 ! A2    A(2,1,5)               91.3497         calculate D2E/DX2 analytically  !
 ! A3    A(2,1,6)               93.5351         calculate D2E/DX2 analytically  !
 ! A4    A(4,1,5)              116.4141         calculate D2E/DX2 analytically  !
 ! A5    A(4,1,6)              119.4123         calculate D2E/DX2 analytically  !
 ! A6    A(5,1,6)              115.9008         calculate D2E/DX2 analytically  !
 ! A7    A(1,2,8)              103.0036         calculate D2E/DX2 analytically  !
 ! A8    A(1,2,10)              99.0173         calculate D2E/DX2 analytically  !
 ! A9    A(1,2,13)              96.7289         calculate D2E/DX2 analytically  !
 ! A10   A(8,2,10)             116.9147         calculate D2E/DX2 analytically  !
 ! A11   A(8,2,13)             118.8543         calculate D2E/DX2 analytically  !
 ! A12   A(10,2,13)            116.0454         calculate D2E/DX2 analytically  !
 ! A13   A(9,3,11)             120.3807         calculate D2E/DX2 analytically  !
 ! A14   A(9,3,14)             122.9906         calculate D2E/DX2 analytically  !
 ! A15   A(11,3,14)            116.4069         calculate D2E/DX2 analytically  !
 ! A16   A(1,4,7)              122.5587         calculate D2E/DX2 analytically  !
 ! A17   A(1,4,20)             117.5707         calculate D2E/DX2 analytically  !
 ! A18   A(7,4,20)             119.8549         calculate D2E/DX2 analytically  !
 ! A19   A(2,8,9)              121.7106         calculate D2E/DX2 analytically  !
 ! A20   A(2,8,15)             115.7722         calculate D2E/DX2 analytically  !
 ! A21   A(9,8,15)             122.2151         calculate D2E/DX2 analytically  !
 ! A22   A(3,9,8)              122.4973         calculate D2E/DX2 analytically  !
 ! A23   A(3,9,12)             118.6603         calculate D2E/DX2 analytically  !
 ! A24   A(8,9,12)             118.2339         calculate D2E/DX2 analytically  !
 ! A25   A(8,15,16)            119.0684         calculate D2E/DX2 analytically  !
 ! A26   A(15,16,17)           110.9735         calculate D2E/DX2 analytically  !
 ! A27   A(15,16,18)           105.4809         calculate D2E/DX2 analytically  !
 ! A28   A(15,16,19)           110.0796         calculate D2E/DX2 analytically  !
 ! A29   A(17,16,18)           108.9558         calculate D2E/DX2 analytically  !
 ! A30   A(17,16,19)           110.8408         calculate D2E/DX2 analytically  !
 ! A31   A(18,16,19)           110.375          calculate D2E/DX2 analytically  !
 ! A32   A(4,20,21)            123.1996         calculate D2E/DX2 analytically  !
 ! A33   A(4,20,22)            116.8726         calculate D2E/DX2 analytically  !
 ! A34   A(21,20,22)           119.9195         calculate D2E/DX2 analytically  !
 ! D1    D(4,1,2,8)            -53.5423         calculate D2E/DX2 analytically  !
 ! D2    D(4,1,2,10)          -174.0091         calculate D2E/DX2 analytically  !
 ! D3    D(4,1,2,13)            68.191          calculate D2E/DX2 analytically  !
 ! D4    D(5,1,2,8)             66.139          calculate D2E/DX2 analytically  !
 ! D5    D(5,1,2,10)           -54.3278         calculate D2E/DX2 analytically  !
 ! D6    D(5,1,2,13)          -172.1277         calculate D2E/DX2 analytically  !
 ! D7    D(6,1,2,8)           -177.8066         calculate D2E/DX2 analytically  !
 ! D8    D(6,1,2,10)            61.7266         calculate D2E/DX2 analytically  !
 ! D9    D(6,1,2,13)           -56.0733         calculate D2E/DX2 analytically  !
 ! D10   D(2,1,4,7)             83.2147         calculate D2E/DX2 analytically  !
 ! D11   D(2,1,4,20)           -95.3419         calculate D2E/DX2 analytically  !
 ! D12   D(5,1,4,7)            -20.9029         calculate D2E/DX2 analytically  !
 ! D13   D(5,1,4,20)           160.5405         calculate D2E/DX2 analytically  !
 ! D14   D(6,1,4,7)           -168.0348         calculate D2E/DX2 analytically  !
 ! D15   D(6,1,4,20)            13.4086         calculate D2E/DX2 analytically  !
 ! D16   D(1,2,8,9)             76.8388         calculate D2E/DX2 analytically  !
 ! D17   D(1,2,8,15)           -96.9793         calculate D2E/DX2 analytically  !
 ! D18   D(10,2,8,9)          -175.8457         calculate D2E/DX2 analytically  !
 ! D19   D(10,2,8,15)           10.3362         calculate D2E/DX2 analytically  !
 ! D20   D(13,2,8,9)           -28.501          calculate D2E/DX2 analytically  !
 ! D21   D(13,2,8,15)          157.6809         calculate D2E/DX2 analytically  !
 ! D22   D(11,3,9,8)          -174.3303         calculate D2E/DX2 analytically  !
 ! D23   D(11,3,9,12)           -3.4377         calculate D2E/DX2 analytically  !
 ! D24   D(14,3,9,8)            11.2779         calculate D2E/DX2 analytically  !
 ! D25   D(14,3,9,12)         -177.8294         calculate D2E/DX2 analytically  !
 ! D26   D(1,4,20,21)           -6.0149         calculate D2E/DX2 analytically  !
 ! D27   D(1,4,20,22)          175.0319         calculate D2E/DX2 analytically  !
 ! D28   D(7,4,20,21)          175.3879         calculate D2E/DX2 analytically  !
 ! D29   D(7,4,20,22)           -3.5653         calculate D2E/DX2 analytically  !
 ! D30   D(2,8,9,3)             -4.6293         calculate D2E/DX2 analytically  !
 ! D31   D(2,8,9,12)          -175.5589         calculate D2E/DX2 analytically  !
 ! D32   D(15,8,9,3)           168.7891         calculate D2E/DX2 analytically  !
 ! D33   D(15,8,9,12)           -2.1406         calculate D2E/DX2 analytically  !
 ! D34   D(2,8,15,16)          160.7172         calculate D2E/DX2 analytically  !
 ! D35   D(9,8,15,16)          -13.0667         calculate D2E/DX2 analytically  !
 ! D36   D(8,15,16,17)          71.3844         calculate D2E/DX2 analytically  !
 ! D37   D(8,15,16,18)        -170.7659         calculate D2E/DX2 analytically  !
 ! D38   D(8,15,16,19)         -51.6949         calculate D2E/DX2 analytically  !
 --------------------------------------------------------------------------------
 Trust Radius=3.00D-01 FncErr=1.00D-07 GrdErr=1.00D-06 EigMax=2.50D+02 EigMin=1.00D-04
 Number of steps in this run=    103 maximum allowed number of steps=    132.
 Search for a saddle point of order  1.
 GradGradGradGradGradGradGradGradGradGradGradGradGradGradGradGradGradGrad

                          Input orientation:                          
 ---------------------------------------------------------------------
 Center     Atomic      Atomic             Coordinates (Angstroms)
 Number     Number       Type             X           Y           Z
 ---------------------------------------------------------------------
      1          6           0       -1.464415   -0.568069   -1.326353
      2          6           0        0.093334   -1.727641   -0.633314
      3          6           0       -0.661802   -0.697890    1.961129
      4          6           0       -2.105435    0.149406   -0.326537
      5          1           0       -0.793518   -0.006127   -1.970248
      6          1           0       -1.973191   -1.409247   -1.789571
      7          1           0       -1.734847    1.101654    0.037995
      8          6           0        0.872608   -0.818663    0.063303
      9          6           0        0.503101   -0.353587    1.370921
     10          1           0        0.480154   -2.078938   -1.584489
     11          1           0       -0.948452   -0.255096    2.909377
     12          1           0        1.114683    0.412547    1.834752
     13          1           0       -0.510818   -2.432057   -0.076729
     14          1           0       -1.309017   -1.476100    1.578107
     15          8           0        1.916719   -0.307165   -0.610363
     16          6           0        2.508600    0.900663   -0.152804
     17          1           0        3.066130    0.736876    0.776283
     18          1           0        3.205472    1.198063   -0.936099
     19          1           0        1.740240    1.666946   -0.015622
     20          6           0       -3.288222   -0.428280    0.253714
     21          8           0       -3.808817   -1.461556   -0.165589
     22          1           0       -3.742439    0.112283    1.107826
 ---------------------------------------------------------------------
                    Distance matrix (angstroms):
                    1          2          3          4          5
     1  C    0.000000
     2  C    2.061915   0.000000
     3  C    3.386529   2.891669   0.000000
     4  C    1.387555   2.907233   2.834679   0.000000
     5  H    1.086500   2.353191   3.993947   2.108815   0.000000
     6  H    1.086740   2.389316   4.036523   2.141811   1.842015
     7  H    2.173144   3.434795   2.843981   1.084895   2.479178
     8  C    2.730498   1.385202   2.443511   3.155610   2.751640
     9  C    3.345506   2.464324   1.350514   3.152590   3.600744
    10  H    2.476027   1.085253   3.972753   3.637751   2.463249
    11  H    4.278502   3.975471   1.085085   3.460256   4.888428
    12  H    4.195943   3.422705   2.098795   3.887103   4.277212
    13  H    2.438311   1.082122   2.680111   3.044529   3.090383
    14  H    3.047057   2.630636   1.082222   2.627588   3.875227
    15  O    3.465946   2.311496   3.662514   4.057923   3.047178
    16  C    4.395366   3.601719   4.132255   4.678022   3.876771
    17  H    5.162344   4.110757   4.166520   5.320378   4.795036
    18  H    5.007930   4.282152   5.190797   5.447658   4.302494
    19  H    4.121058   3.823227   3.907659   4.145939   3.611048
    20  C    2.417111   3.729622   3.144207   1.438540   3.368645
    21  O    2.764401   3.939080   3.874250   2.350024   3.803564
    22  H    3.402573   4.596743   3.297701   2.176823   4.264352
                    6          7          8          9         10
     6  H    0.000000
     7  H    3.114712   0.000000
     8  C    3.446811   3.238377   0.000000
     9  C    4.151524   2.983761   1.436209   0.000000
    10  H    2.551362   4.201768   2.111287   3.422252   0.000000
    11  H    4.945934   3.271700   3.425493   2.117440   5.055902
    12  H    5.098001   3.438463   2.170832   1.084497   4.278006
    13  H    2.473561   3.741460   2.129910   2.728325   1.838494
    14  H    3.433198   3.032836   2.736118   2.141666   3.683281
    15  O    4.211474   3.967251   1.343735   2.434329   2.480286
    16  C    5.301051   4.252487   2.383119   2.813700   3.878445
    17  H    6.048488   4.871090   2.782010   2.848126   4.493253
    18  H    5.860463   5.036359   3.241642   3.877211   4.311207
    19  H    5.138037   3.521173   2.633869   2.745099   4.252153
    20  C    2.620423   2.190938   4.183439   3.953209   4.506032
    21  O    2.451444   3.303459   4.730903   4.709681   4.559573
    22  H    3.720242   2.480689   4.822484   4.279119   5.466288
                   11         12         13         14         15
    11  H    0.000000
    12  H    2.420143   0.000000
    13  H    3.721224   3.793123   0.000000
    14  H    1.842047   3.083371   2.071101   0.000000
    15  O    4.538776   2.672047   3.269995   4.069543   0.000000
    16  C    4.760666   2.476215   4.497743   4.818636   1.420750
    17  H    4.653060   2.243589   4.854310   4.968108   2.081815
    18  H    5.844180   3.558939   5.265653   5.818332   2.008158
    19  H    4.413494   2.321362   4.676839   4.660116   2.069294
    20  C    3.543594   4.753130   3.440681   2.601768   5.277567
    21  O    4.369513   5.635111   3.438977   3.047898   5.857662
    22  H    3.344685   4.920387   4.280212   2.943751   5.929096
                   16         17         18         19         20
    16  C    0.000000
    17  H    1.095841   0.000000
    18  H    1.089784   1.778865   0.000000
    19  H    1.093794   1.802811   1.792773   0.000000
    20  C    5.961082   6.481393   6.799170   5.454168   0.000000
    21  O    6.744627   7.279088   7.541055   6.371973   1.230647
    22  H    6.425435   6.845192   7.323252   5.808518   1.108164
                   21         22
    21  O    0.000000
    22  H    2.025577   0.000000
 Stoichiometry    C8H12O2
 Framework group  C1[X(C8H12O2)]
 Deg. of freedom    60
 Full point group                 C1      NOp   1
 Largest Abelian subgroup         C1      NOp   1
 Largest concise Abelian subgroup C1      NOp   1
                         Standard orientation:                         
 ---------------------------------------------------------------------
 Center     Atomic      Atomic             Coordinates (Angstroms)
 Number     Number       Type             X           Y           Z
 ---------------------------------------------------------------------
      1          6           0        0.962020   -1.326987    0.341453
      2          6           0       -0.346473   -0.882568   -1.188851
      3          6           0        0.200597    1.867963   -0.483837
      4          6           0        1.455516   -0.203484    0.989149
      5          1           0        0.196160   -1.890562    0.867118
      6          1           0        1.621173   -1.905852   -0.299982
      7          1           0        0.910859    0.300619    1.780493
      8          6           0       -1.283948   -0.070899   -0.571503
      9          6           0       -1.008853    1.306194   -0.270447
     10          1           0       -0.659993   -1.890095   -1.442557
     11          1           0        0.398377    2.884493   -0.159863
     12          1           0       -1.754670    1.870141    0.278966
     13          1           0        0.380896   -0.430538   -1.850358
     14          1           0        0.983738    1.382821   -1.051754
     15          8           0       -2.406642   -0.683749   -0.159683
     16          6           0       -3.217093   -0.052894    0.822011
     17          1           0       -3.732788    0.818868    0.403729
     18          1           0       -3.958241   -0.798129    1.110025
     19          1           0       -2.608350    0.232077    1.684918
     20          6           0        2.726888    0.310731    0.554872
     21          8           0        3.434189   -0.255988   -0.277622
     22          1           0        3.070538    1.255718    1.020631
 ---------------------------------------------------------------------
 Rotational constants (GHZ):           2.5503696           0.7360268           0.6731817
 Standard basis: 6-31G(d) (6D, 7F)
 There are   174 symmetry adapted cartesian basis functions of A   symmetry.
 There are   174 symmetry adapted basis functions of A   symmetry.
   174 basis functions,   328 primitive gaussians,   174 cartesian basis functions
    38 alpha electrons       38 beta electrons
       nuclear repulsion energy       521.8107015844 Hartrees.
 NAtoms=   22 NActive=   22 NUniq=   22 SFac= 1.00D+00 NAtFMM=   60 NAOKFM=F Big=F
 Integral buffers will be    131072 words long.
 Raffenetti 2 integral format.
 Two-electron integral symmetry is turned on.
 One-electron integrals computed using PRISM.
 NBasis=   174 RedAO= T EigKep=  1.98D-03  NBF=   174
 NBsUse=   174 1.00D-06 EigRej= -1.00D+00 NBFU=   174
 ExpMin= 1.61D-01 ExpMax= 5.48D+03 ExpMxC= 8.25D+02 IAcc=3 IRadAn=         5 AccDes= 0.00D+00
 Harris functional with IExCor= 1009 and IRadAn=       5 diagonalized for initial guess.
 HarFok:  IExCor= 1009 AccDes= 0.00D+00 IRadAn=         5 IDoV= 1 UseB2=F ITyADJ=14
 ICtDFT=  3500011 ScaDFX=  1.000000  1.000000  1.000000  1.000000
 FoFCou: FMM=F IPFlag=           0 FMFlag=      100000 FMFlg1=           0
         NFxFlg=           0 DoJE=T BraDBF=F KetDBF=T FulRan=T
         wScrn=  0.000000 ICntrl=       500 IOpCl=  0 I1Cent=   200000004 NGrid=           0
         NMat0=    1 NMatS0=      1 NMatT0=    0 NMatD0=    1 NMtDS0=    0 NMtDT0=    0
 Petite list used in FoFCou.
 Requested convergence on RMS density matrix=1.00D-08 within 128 cycles.
 Requested convergence on MAX density matrix=1.00D-06.
 Requested convergence on             energy=1.00D-06.
 No special actions if energy rises.
 Integral accuracy reduced to 1.0D-05 until final iterations.
 Initial convergence to 1.0D-05 achieved.  Increase integral accuracy.
 SCF Done:  E(RM062X) =  -462.174484881     A.U. after   17 cycles
            NFock= 17  Conv=0.25D-08     -V/T= 2.0084
 DoSCS=F DFT=T ScalE2(SS,OS)=  1.000000  1.000000
 Range of M.O.s used for correlation:     1   174
 NBasis=   174 NAE=    38 NBE=    38 NFC=     0 NFV=     0
 NROrb=    174 NOA=    38 NOB=    38 NVA=   136 NVB=   136
 Symmetrizing basis deriv contribution to polar:
 IMax=3 JMax=2 DiffMx= 0.00D+00
 G2DrvN: will do    23 centers at a time, making    1 passes.
 Calling FoFCou, ICntrl=  3107 FMM=F I1Cent=   0 AccDes= 0.00D+00.
 End of G2Drv F.D. properties file   721 does not exist.
 End of G2Drv F.D. properties file   722 does not exist.
 End of G2Drv F.D. properties file   788 does not exist.
          IDoAtm=1111111111111111111111
          Differentiating once with respect to nuclear coordinates.
 CalDSu exits because no D1Ps are significant.
          There are    69 degrees of freedom in the 1st order CPHF.  IDoFFX=6 NUNeed=     0.
     63 vectors produced by pass  0 Test12= 7.49D-15 1.45D-09 XBig12= 9.53D-02 9.08D-02.
 AX will form    63 AO Fock derivatives at one time.
     63 vectors produced by pass  1 Test12= 7.49D-15 1.45D-09 XBig12= 7.44D-03 1.89D-02.
     63 vectors produced by pass  2 Test12= 7.49D-15 1.45D-09 XBig12= 1.20D-04 2.44D-03.
     63 vectors produced by pass  3 Test12= 7.49D-15 1.45D-09 XBig12= 7.04D-07 1.10D-04.
     63 vectors produced by pass  4 Test12= 7.49D-15 1.45D-09 XBig12= 3.37D-09 5.48D-06.
     63 vectors produced by pass  5 Test12= 7.49D-15 1.45D-09 XBig12= 9.49D-12 3.64D-07.
     32 vectors produced by pass  6 Test12= 7.49D-15 1.45D-09 XBig12= 2.73D-14 1.60D-08.
 InvSVY:  IOpt=1 It=  1 EMax= 3.89D-16
 Solved reduced A of dimension   410 with    69 vectors.
 End of Minotr F.D. properties file   721 does not exist.
 End of Minotr F.D. properties file   722 does not exist.
 End of Minotr F.D. properties file   788 does not exist.

 **********************************************************************

            Population analysis using the SCF Density.

 **********************************************************************

 Orbital symmetries:
       Occupied  (A) (A) (A) (A) (A) (A) (A) (A) (A) (A) (A) (A)
                 (A) (A) (A) (A) (A) (A) (A) (A) (A) (A) (A) (A)
                 (A) (A) (A) (A) (A) (A) (A) (A) (A) (A) (A) (A)
                 (A) (A)
       Virtual   (A) (A) (A) (A) (A) (A) (A) (A) (A) (A) (A) (A)
                 (A) (A) (A) (A) (A) (A) (A) (A) (A) (A) (A) (A)
                 (A) (A) (A) (A) (A) (A) (A) (A) (A) (A) (A) (A)
                 (A) (A) (A) (A) (A) (A) (A) (A) (A) (A) (A) (A)
                 (A) (A) (A) (A) (A) (A) (A) (A) (A) (A) (A) (A)
                 (A) (A) (A) (A) (A) (A) (A) (A) (A) (A) (A) (A)
                 (A) (A) (A) (A) (A) (A) (A) (A) (A) (A) (A) (A)
                 (A) (A) (A) (A) (A) (A) (A) (A) (A) (A) (A) (A)
                 (A) (A) (A) (A) (A) (A) (A) (A) (A) (A) (A) (A)
                 (A) (A) (A) (A) (A) (A) (A) (A) (A) (A) (A) (A)
                 (A) (A) (A) (A) (A) (A) (A) (A) (A) (A) (A) (A)
                 (A) (A) (A) (A)
 The electronic state is 1-A.
 Alpha  occ. eigenvalues --  -19.68800 -19.59665 -10.62721 -10.61571 -10.60175
 Alpha  occ. eigenvalues --  -10.57097 -10.56745 -10.56099 -10.55653 -10.52817
 Alpha  occ. eigenvalues --   -1.20988  -1.11854  -0.92756  -0.86438  -0.85516
 Alpha  occ. eigenvalues --   -0.79172  -0.73134  -0.71922  -0.63228  -0.60931
 Alpha  occ. eigenvalues --   -0.59185  -0.57481  -0.56446  -0.55575  -0.50599
 Alpha  occ. eigenvalues --   -0.49557  -0.48689  -0.47877  -0.46292  -0.45230
 Alpha  occ. eigenvalues --   -0.44575  -0.42540  -0.42360  -0.40406  -0.37217
 Alpha  occ. eigenvalues --   -0.32745  -0.29541  -0.23586
 Alpha virt. eigenvalues --   -0.03235   0.03290   0.11683   0.12598   0.13192
 Alpha virt. eigenvalues --    0.14658   0.16678   0.17595   0.18067   0.19225
 Alpha virt. eigenvalues --    0.19951   0.20302   0.22222   0.23184   0.24208
 Alpha virt. eigenvalues --    0.25101   0.26875   0.31875   0.32636   0.34146
 Alpha virt. eigenvalues --    0.38428   0.39512   0.41910   0.44063   0.52294
 Alpha virt. eigenvalues --    0.53781   0.56884   0.58288   0.59689   0.60349
 Alpha virt. eigenvalues --    0.60984   0.62488   0.63367   0.65518   0.66252
 Alpha virt. eigenvalues --    0.67370   0.68715   0.70860   0.74435   0.76491
 Alpha virt. eigenvalues --    0.78413   0.80225   0.82413   0.84715   0.88310
 Alpha virt. eigenvalues --    0.89127   0.89655   0.90775   0.91143   0.92271
 Alpha virt. eigenvalues --    0.92663   0.94859   0.95767   0.98865   1.00390
 Alpha virt. eigenvalues --    1.00458   1.01619   1.03563   1.03985   1.06195
 Alpha virt. eigenvalues --    1.07483   1.10338   1.11837   1.13506   1.16738
 Alpha virt. eigenvalues --    1.20147   1.22199   1.23043   1.28984   1.30839
 Alpha virt. eigenvalues --    1.34545   1.37478   1.39856   1.43148   1.45537
 Alpha virt. eigenvalues --    1.49300   1.53370   1.54732   1.59828   1.63858
 Alpha virt. eigenvalues --    1.66079   1.70189   1.73501   1.75868   1.78318
 Alpha virt. eigenvalues --    1.81118   1.86433   1.88021   1.91469   1.92742
 Alpha virt. eigenvalues --    1.96107   1.96878   2.00111   2.03992   2.06358
 Alpha virt. eigenvalues --    2.07912   2.10632   2.13347   2.15086   2.16132
 Alpha virt. eigenvalues --    2.18816   2.20145   2.21290   2.28006   2.29473
 Alpha virt. eigenvalues --    2.30798   2.32051   2.36508   2.37647   2.41662
 Alpha virt. eigenvalues --    2.42597   2.51139   2.55570   2.57681   2.60151
 Alpha virt. eigenvalues --    2.61018   2.62953   2.69052   2.70478   2.76917
 Alpha virt. eigenvalues --    2.82241   2.90993   2.98372   3.10620   3.12118
 Alpha virt. eigenvalues --    3.12587   3.95895   4.09006   4.14798   4.22611
 Alpha virt. eigenvalues --    4.25972   4.30911   4.32721   4.42193   4.53370
 Alpha virt. eigenvalues --    4.61792
          Condensed to atoms (all electrons):
               1          2          3          4          5          6
     1  C    5.134975   0.083671  -0.004994   0.496713   0.376592   0.379397
     2  C    0.083671   5.318949  -0.018316  -0.032847  -0.029643  -0.014056
     3  C   -0.004994  -0.018316   5.103445   0.032839   0.000362   0.000174
     4  C    0.496713  -0.032847   0.032839   5.323033  -0.035954  -0.039490
     5  H    0.376592  -0.029643   0.000362  -0.035954   0.545730  -0.028695
     6  H    0.379397  -0.014056   0.000174  -0.039490  -0.028695   0.472927
     7  H   -0.043954  -0.000543   0.000729   0.360671  -0.003871   0.003938
     8  C   -0.016886   0.563863  -0.028825  -0.026791  -0.010325   0.001280
     9  C   -0.010038  -0.080270   0.578105  -0.006467  -0.000073   0.000164
    10  H   -0.008064   0.361450   0.000121   0.001650  -0.001582  -0.001115
    11  H    0.000161   0.000227   0.374092  -0.000223  -0.000002  -0.000002
    12  H    0.000008   0.005296  -0.046190  -0.000087  -0.000005   0.000002
    13  H   -0.015206   0.373641   0.001056  -0.007517   0.001976  -0.002404
    14  H   -0.002824   0.007219   0.373975  -0.010734  -0.000044   0.000100
    15  O   -0.001611  -0.079633   0.004155   0.000261   0.003904   0.000032
    16  C    0.000050   0.005290  -0.000117   0.000105   0.000065   0.000003
    17  H   -0.000000  -0.000190  -0.000045   0.000019   0.000023   0.000000
    18  H   -0.000001  -0.000124   0.000001  -0.000002  -0.000016  -0.000000
    19  H    0.000034   0.000425  -0.000195  -0.000210  -0.000242  -0.000001
    20  C   -0.024114  -0.002127  -0.000839   0.365150   0.004121  -0.008242
    21  O   -0.002176  -0.000171  -0.001803  -0.102851   0.000518   0.015185
    22  H    0.009721  -0.000086  -0.000072  -0.121639  -0.000091   0.000746
               7          8          9         10         11         12
     1  C   -0.043954  -0.016886  -0.010038  -0.008064   0.000161   0.000008
     2  C   -0.000543   0.563863  -0.080270   0.361450   0.000227   0.005296
     3  C    0.000729  -0.028825   0.578105   0.000121   0.374092  -0.046190
     4  C    0.360671  -0.026791  -0.006467   0.001650  -0.000223  -0.000087
     5  H   -0.003871  -0.010325  -0.000073  -0.001582  -0.000002  -0.000005
     6  H    0.003938   0.001280   0.000164  -0.001115  -0.000002   0.000002
     7  H    0.556373   0.000043   0.001073  -0.000022  -0.000048   0.000132
     8  C    0.000043   4.476297   0.466743  -0.025964   0.003171  -0.042273
     9  C    0.001073   0.466743   4.955462   0.005943  -0.025376   0.371866
    10  H   -0.000022  -0.025964   0.005943   0.497761  -0.000003  -0.000126
    11  H   -0.000048   0.003171  -0.025376  -0.000003   0.504428  -0.005729
    12  H    0.000132  -0.042273   0.371866  -0.000126  -0.005729   0.547085
    13  H   -0.000031  -0.024799  -0.005820  -0.026054   0.000058   0.000024
    14  H    0.000028  -0.011208  -0.033523  -0.000053  -0.031391   0.004246
    15  O   -0.000017   0.297991  -0.052932   0.000272  -0.000048  -0.007629
    16  C    0.000014  -0.046356  -0.007421   0.000009  -0.000005   0.006227
    17  H   -0.000001  -0.003435   0.000152   0.000027   0.000006   0.000522
    18  H   -0.000001   0.003207   0.000503  -0.000036  -0.000000   0.000062
    19  H    0.000203  -0.002785   0.003145   0.000019   0.000008   0.000473
    20  C   -0.025109  -0.000452   0.000394  -0.000013  -0.000023  -0.000004
    21  O    0.003047   0.000047   0.000023  -0.000011   0.000004  -0.000000
    22  H    0.001372   0.000012   0.000150   0.000000   0.000143  -0.000000
              13         14         15         16         17         18
     1  C   -0.015206  -0.002824  -0.001611   0.000050  -0.000000  -0.000001
     2  C    0.373641   0.007219  -0.079633   0.005290  -0.000190  -0.000124
     3  C    0.001056   0.373975   0.004155  -0.000117  -0.000045   0.000001
     4  C   -0.007517  -0.010734   0.000261   0.000105   0.000019  -0.000002
     5  H    0.001976  -0.000044   0.003904   0.000065   0.000023  -0.000016
     6  H   -0.002404   0.000100   0.000032   0.000003   0.000000  -0.000000
     7  H   -0.000031   0.000028  -0.000017   0.000014  -0.000001  -0.000001
     8  C   -0.024799  -0.011208   0.297991  -0.046356  -0.003435   0.003207
     9  C   -0.005820  -0.033523  -0.052932  -0.007421   0.000152   0.000503
    10  H   -0.026054  -0.000053   0.000272   0.000009   0.000027  -0.000036
    11  H    0.000058  -0.031391  -0.000048  -0.000005   0.000006  -0.000000
    12  H    0.000024   0.004246  -0.007629   0.006227   0.000522   0.000062
    13  H    0.492272   0.003642   0.002707  -0.000154   0.000013   0.000003
    14  H    0.003642   0.494466   0.000008   0.000009  -0.000007   0.000001
    15  O    0.002707   0.000008   8.222070   0.220441  -0.035941  -0.032673
    16  C   -0.000154   0.000009   0.220441   4.929949   0.376844   0.391141
    17  H    0.000013  -0.000007  -0.035941   0.376844   0.561748  -0.030744
    18  H    0.000003   0.000001  -0.032673   0.391141  -0.030744   0.496647
    19  H   -0.000012   0.000004  -0.036275   0.373205  -0.041538  -0.025265
    20  C    0.000913   0.004994   0.000001   0.000001   0.000000  -0.000000
    21  O    0.001241   0.002678  -0.000000  -0.000000  -0.000000   0.000000
    22  H    0.000058  -0.000010  -0.000000  -0.000000  -0.000000   0.000000
              19         20         21         22
     1  C    0.000034  -0.024114  -0.002176   0.009721
     2  C    0.000425  -0.002127  -0.000171  -0.000086
     3  C   -0.000195  -0.000839  -0.001803  -0.000072
     4  C   -0.000210   0.365150  -0.102851  -0.121639
     5  H   -0.000242   0.004121   0.000518  -0.000091
     6  H   -0.000001  -0.008242   0.015185   0.000746
     7  H    0.000203  -0.025109   0.003047   0.001372
     8  C   -0.002785  -0.000452   0.000047   0.000012
     9  C    0.003145   0.000394   0.000023   0.000150
    10  H    0.000019  -0.000013  -0.000011   0.000000
    11  H    0.000008  -0.000023   0.000004   0.000143
    12  H    0.000473  -0.000004  -0.000000  -0.000000
    13  H   -0.000012   0.000913   0.001241   0.000058
    14  H    0.000004   0.004994   0.002678  -0.000010
    15  O   -0.036275   0.000001  -0.000000  -0.000000
    16  C    0.373205   0.000001  -0.000000  -0.000000
    17  H   -0.041538   0.000000  -0.000000  -0.000000
    18  H   -0.025265  -0.000000   0.000000   0.000000
    19  H    0.558489   0.000000   0.000000   0.000000
    20  C    0.000000   4.558340   0.543646   0.370055
    21  O    0.000000   0.543646   8.082211  -0.060064
    22  H    0.000000   0.370055  -0.060064   0.694898
 Mulliken charges:
               1
     1  C   -0.351452
     2  C   -0.462026
     3  C   -0.367656
     4  C   -0.195629
     5  H    0.177250
     6  H    0.220057
     7  H    0.145975
     8  C    0.427446
     9  C   -0.161801
    10  H    0.195790
    11  H    0.180554
    12  H    0.166101
    13  H    0.204394
    14  H    0.198423
    15  O   -0.505081
    16  C   -0.249299
    17  H    0.172547
    18  H    0.197299
    19  H    0.170518
    20  C    0.213306
    21  O   -0.481525
    22  H    0.104807
 Sum of Mulliken charges =  -0.00000
 Mulliken charges with hydrogens summed into heavy atoms:
               1
     1  C    0.045855
     2  C   -0.061841
     3  C    0.011322
     4  C   -0.049654
     8  C    0.427446
     9  C    0.004299
    15  O   -0.505081
    16  C    0.291065
    20  C    0.318113
    21  O   -0.481525
 APT charges:
               1
     1  C   -0.947068
     2  C   -0.868443
     3  C   -0.811089
     4  C   -0.372594
     5  H    0.377218
     6  H    0.549878
     7  H    0.307083
     8  C    0.037469
     9  C   -0.529680
    10  H    0.540926
    11  H    0.621567
    12  H    0.519200
    13  H    0.405167
    14  H    0.292008
    15  O   -0.203884
    16  C   -1.252326
    17  H    0.515462
    18  H    0.751095
    19  H    0.196844
    20  C   -0.587625
    21  O    0.003533
    22  H    0.455262
 Sum of APT charges =  -0.00000
 APT charges with hydrogens summed into heavy atoms:
               1
     1  C   -0.019972
     2  C    0.077649
     3  C    0.102485
     4  C   -0.065512
     8  C    0.037469
     9  C   -0.010481
    15  O   -0.203884
    16  C    0.211075
    20  C   -0.132363
    21  O    0.003533
 Electronic spatial extent (au):  <R**2>=           1772.5627
 Charge=             -0.0000 electrons
 Dipole moment (field-independent basis, Debye):
    X=             -5.0506    Y=              1.5807    Z=              1.5337  Tot=              5.5099
 Quadrupole moment (field-independent basis, Debye-Ang):
   XX=            -70.2810   YY=            -56.3842   ZZ=            -59.6020
   XY=              1.2763   XZ=             -2.1780   YZ=              1.6504
 Traceless Quadrupole moment (field-independent basis, Debye-Ang):
   XX=             -8.1919   YY=              5.7048   ZZ=              2.4871
   XY=              1.2763   XZ=             -2.1780   YZ=              1.6504
 Octapole moment (field-independent basis, Debye-Ang**2):
  XXX=            -89.7767  YYY=             -0.6763  ZZZ=             -0.3181  XYY=              2.4603
  XXY=             13.3911  XXZ=             23.8748  XZZ=             -1.2435  YZZ=             -2.7616
  YYZ=             -0.3610  XYZ=              1.6737
 Hexadecapole moment (field-independent basis, Debye-Ang**3):
 XXXX=          -1711.2798 YYYY=           -404.7208 ZZZZ=           -260.6010 XXXY=             27.0137
 XXXZ=             -7.7578 YYYX=              6.1426 YYYZ=             11.9824 ZZZX=            -16.7609
 ZZZY=              7.6722 XXYY=           -329.7177 XXZZ=           -302.2942 YYZZ=           -118.2864
 XXYZ=             -1.5028 YYXZ=             -7.7104 ZZXY=              7.7223
 N-N= 5.218107015844D+02 E-N=-2.119577366057D+03  KE= 4.583199792289D+02
  Exact polarizability:       0.000       0.000       0.000       0.000       0.000       0.000
 Approx polarizability:     181.607      -2.421     128.666       6.641       9.880      93.646
 Calling FoFJK, ICntrl=    100127 FMM=F ISym2X=0 I1Cent= 0 IOpClX= 0 NMat=1 NMatS=1 NMatT=0.
 ***** Axes restored to original set *****
 -------------------------------------------------------------------
 Center     Atomic                   Forces (Hartrees/Bohr)
 Number     Number              X              Y              Z
 -------------------------------------------------------------------
      1        6           0.003653425    0.020851754   -0.001966363
      2        6           0.008216819    0.000477482    0.004928016
      3        6          -0.003175848    0.000520379    0.000005631
      4        6           0.004616367   -0.009479908   -0.003944071
      5        1           0.000839774   -0.002777753   -0.002532469
      6        1          -0.001690995    0.000458213    0.003374309
      7        1          -0.000787533   -0.000302653   -0.001374343
      8        6          -0.006870039   -0.015197865    0.004318626
      9        6           0.001132420    0.003433653   -0.005047390
     10        1          -0.000441188    0.000296681   -0.000268051
     11        1           0.000020368   -0.000064262    0.000141381
     12        1           0.000676851   -0.000460644    0.001394232
     13        1          -0.002194776    0.000629906   -0.000548191
     14        1           0.000210956   -0.000958648    0.000364384
     15        8           0.006835305    0.006771457   -0.004277011
     16        6          -0.000666878   -0.005765358   -0.001982416
     17        1          -0.001048470    0.001543262    0.000262142
     18        1          -0.000538532    0.001028175    0.000179650
     19        1           0.001608413    0.002387477    0.001219955
     20        6          -0.013582584   -0.010937853   -0.004712620
     21        8           0.004034658    0.006932939    0.010103675
     22        1          -0.000848512    0.000613565    0.000360924
 -------------------------------------------------------------------
 Cartesian Forces:  Max     0.020851754 RMS     0.005097786
 FormGI is forming the generalized inverse of G from B-inverse, IUseBI=4.

 GradGradGradGradGradGradGradGradGradGradGradGradGradGradGradGradGradGrad
 Berny optimization.
 Internal  Forces:  Max     0.012228900 RMS     0.003243842
 Search for a saddle point.
 Step number   1 out of a maximum of  103
 All quantities printed in internal units (Hartrees-Bohrs-Radians)
 Swapping is turned off.
 Second derivative matrix not updated -- analytic derivatives used.
 ITU=  0
     Eigenvalues ---   -0.02879   0.00241   0.00307   0.00583   0.00861
     Eigenvalues ---    0.01283   0.01579   0.01878   0.02199   0.02451
     Eigenvalues ---    0.02741   0.02940   0.03492   0.03882   0.03963
     Eigenvalues ---    0.05086   0.05435   0.05983   0.07047   0.07929
     Eigenvalues ---    0.08144   0.08914   0.09131   0.10590   0.10960
     Eigenvalues ---    0.11363   0.11680   0.13685   0.13947   0.14251
     Eigenvalues ---    0.14382   0.18330   0.19117   0.19254   0.19470
     Eigenvalues ---    0.21722   0.24888   0.27424   0.30545   0.32045
     Eigenvalues ---    0.34125   0.34566   0.35872   0.35989   0.36402
     Eigenvalues ---    0.36822   0.37193   0.37249   0.37333   0.37834
     Eigenvalues ---    0.38349   0.39190   0.39948   0.40834   0.46129
     Eigenvalues ---    0.51677   0.54630   0.61074   0.62477   0.81503
 Eigenvectors required to have negative eigenvalues:
                          R1        D24       D20       D13       D14
   1                    0.73068  -0.22433   0.22366   0.20002  -0.19344
                          A2        D21       D31       D25       D16
   1                   -0.16158   0.16085  -0.14697  -0.13096   0.13036
 RFO step:  Lambda0=6.339520401D-04 Lambda=-9.71836381D-03.
 Linear search not attempted -- option 19 set.
 Iteration  1 RMS(Cart)=  0.17654333 RMS(Int)=  0.01490127
 Iteration  2 RMS(Cart)=  0.02296399 RMS(Int)=  0.00077766
 Iteration  3 RMS(Cart)=  0.00060671 RMS(Int)=  0.00062669
 Iteration  4 RMS(Cart)=  0.00000079 RMS(Int)=  0.00062669
 Variable       Old X    -DE/DX   Delta X   Delta X   Delta X     New X
                                 (Linear)    (Quad)   (Total)
    R1        3.89645   0.00609   0.00000   0.00701   0.00701   3.90346
    R2        2.62210  -0.00347   0.00000  -0.00655  -0.00655   2.61555
    R3        2.05319   0.00058   0.00000  -0.00150  -0.00150   2.05169
    R4        2.05364  -0.00100   0.00000  -0.00026  -0.00026   2.05339
    R5        2.61765  -0.00718   0.00000  -0.00884  -0.00884   2.60882
    R6        2.05083  -0.00002   0.00000   0.00043   0.00043   2.05126
    R7        2.04491   0.00053   0.00000   0.00237   0.00237   2.04728
    R8        2.55210   0.00289   0.00000   0.01358   0.01358   2.56568
    R9        2.05051   0.00009   0.00000   0.00111   0.00111   2.05162
   R10        2.04510   0.00043   0.00000   0.00030   0.00030   2.04540
   R11        2.05015  -0.00100   0.00000  -0.00130  -0.00130   2.04886
   R12        2.71845   0.01223   0.00000   0.02157   0.02157   2.74001
   R13        2.71404  -0.00177   0.00000  -0.01687  -0.01687   2.69717
   R14        2.53929   0.00938   0.00000   0.02368   0.02368   2.56297
   R15        2.04940   0.00065   0.00000   0.00104   0.00104   2.05044
   R16        2.68483  -0.00106   0.00000  -0.01351  -0.01351   2.67131
   R17        2.07084  -0.00054   0.00000   0.00031   0.00031   2.07115
   R18        2.05939  -0.00019   0.00000   0.00000   0.00000   2.05940
   R19        2.06697   0.00070   0.00000   0.00366   0.00366   2.07063
   R20        2.32559  -0.01097   0.00000  -0.01515  -0.01515   2.31044
   R21        2.09413   0.00093   0.00000   0.00416   0.00416   2.09829
    A1        1.97972   0.00252   0.00000  -0.00042  -0.00261   1.97710
    A2        1.59435   0.00024   0.00000   0.08151   0.07968   1.67403
    A3        1.63250  -0.00246   0.00000  -0.07935  -0.08132   1.55117
    A4        2.03181   0.00362   0.00000   0.04604   0.04465   2.07646
    A5        2.08414  -0.00384   0.00000  -0.04442  -0.04610   2.03804
    A6        2.02285   0.00011   0.00000   0.00077   0.00310   2.02595
    A7        1.79775   0.00353   0.00000   0.02514   0.02485   1.82260
    A8        1.72818  -0.00015   0.00000   0.03448   0.03415   1.76233
    A9        1.68824  -0.00405   0.00000  -0.08412  -0.08390   1.60434
   A10        2.04055  -0.00044   0.00000   0.00404   0.00310   2.04364
   A11        2.07440   0.00039   0.00000   0.00963   0.00965   2.08404
   A12        2.02537   0.00038   0.00000  -0.00034   0.00014   2.02551
   A13        2.10104   0.00001   0.00000  -0.00468  -0.00556   2.09548
   A14        2.14659  -0.00006   0.00000   0.00435   0.00348   2.15007
   A15        2.03168  -0.00002   0.00000  -0.00612  -0.00701   2.02467
   A16        2.13905  -0.00522   0.00000  -0.01147  -0.01193   2.12713
   A17        2.05200   0.01000   0.00000   0.03029   0.02984   2.08184
   A18        2.09186  -0.00476   0.00000  -0.01760  -0.01805   2.07382
   A19        2.12425  -0.00155   0.00000  -0.00601  -0.00635   2.11790
   A20        2.02061   0.00180   0.00000   0.00128   0.00094   2.02154
   A21        2.13306  -0.00042   0.00000   0.00008  -0.00027   2.13278
   A22        2.13798  -0.00138   0.00000  -0.00885  -0.00885   2.12914
   A23        2.07101   0.00006   0.00000  -0.00307  -0.00307   2.06794
   A24        2.06357   0.00136   0.00000   0.01188   0.01188   2.07545
   A25        2.07814   0.00156   0.00000   0.00200   0.00200   2.08014
   A26        1.93685   0.00092   0.00000   0.00857   0.00850   1.94535
   A27        1.84099   0.00053   0.00000   0.00545   0.00538   1.84636
   A28        1.92125   0.00380   0.00000   0.02341   0.02334   1.94459
   A29        1.90164  -0.00019   0.00000   0.00254   0.00247   1.90411
   A30        1.93454  -0.00288   0.00000  -0.02326  -0.02332   1.91122
   A31        1.92641  -0.00206   0.00000  -0.01558  -0.01566   1.91075
   A32        2.15024   0.00726   0.00000   0.01645   0.01591   2.16615
   A33        2.03981  -0.00339   0.00000  -0.01774  -0.01828   2.02154
   A34        2.09299  -0.00381   0.00000   0.00225   0.00171   2.09470
    D1       -0.93449  -0.00306   0.00000  -0.04388  -0.04350  -0.97799
    D2       -3.03703  -0.00366   0.00000  -0.06873  -0.06906  -3.10610
    D3        1.19016  -0.00305   0.00000  -0.05554  -0.05528   1.13488
    D4        1.15434   0.00183   0.00000   0.04950   0.05071   1.20506
    D5       -0.94820   0.00122   0.00000   0.02466   0.02515  -0.92304
    D6       -3.00420   0.00184   0.00000   0.03784   0.03894  -2.96526
    D7       -3.10331   0.00182   0.00000   0.05234   0.05159  -3.05173
    D8        1.07733   0.00122   0.00000   0.02750   0.02603   1.10336
    D9       -0.97866   0.00183   0.00000   0.04069   0.03981  -0.93885
   D10        1.45237   0.00488   0.00000   0.25195   0.25184   1.70421
   D11       -1.66403   0.00436   0.00000   0.19583   0.19566  -1.46837
   D12       -0.36483   0.00095   0.00000   0.12363   0.12305  -0.24177
   D13        2.80196   0.00043   0.00000   0.06750   0.06687   2.86883
   D14       -2.93276   0.00102   0.00000   0.11818   0.11894  -2.81382
   D15        0.23402   0.00050   0.00000   0.06205   0.06276   0.29679
   D16        1.34109  -0.00321   0.00000  -0.12063  -0.12067   1.22042
   D17       -1.69261  -0.00143   0.00000  -0.07326  -0.07334  -1.76595
   D18       -3.06909  -0.00143   0.00000  -0.06278  -0.06275  -3.13184
   D19        0.18040   0.00035   0.00000  -0.01541  -0.01542   0.16498
   D20       -0.49744  -0.00071   0.00000  -0.03883  -0.03876  -0.53620
   D21        2.75205   0.00107   0.00000   0.00854   0.00857   2.76062
   D22       -3.04264  -0.00029   0.00000   0.00935   0.00941  -3.03323
   D23       -0.06000   0.00007   0.00000   0.01015   0.01021  -0.04979
   D24        0.19684   0.00064   0.00000   0.09091   0.09084   0.28768
   D25       -3.10371   0.00099   0.00000   0.09170   0.09164  -3.01207
   D26       -0.10498   0.00499   0.00000   0.23668   0.23662   0.13164
   D27        3.05488   0.00075   0.00000   0.17543   0.17539  -3.05291
   D28        3.06110   0.00450   0.00000   0.18206   0.18210  -3.03999
   D29       -0.06223   0.00026   0.00000   0.12082   0.12087   0.05865
   D30       -0.08080   0.00049   0.00000   0.07834   0.07831  -0.00249
   D31       -3.06408   0.00025   0.00000   0.07884   0.07881  -2.98527
   D32        2.94593  -0.00128   0.00000   0.02795   0.02798   2.97390
   D33       -0.03736  -0.00152   0.00000   0.02844   0.02848  -0.00888
   D34        2.80504  -0.00030   0.00000   0.03829   0.03822   2.84326
   D35       -0.22806   0.00157   0.00000   0.08633   0.08640  -0.14165
   D36        1.24589  -0.00044   0.00000  -0.04549  -0.04550   1.20040
   D37       -2.98043   0.00011   0.00000  -0.03490  -0.03490  -3.01533
   D38       -0.90225  -0.00005   0.00000  -0.03807  -0.03806  -0.94031
         Item               Value     Threshold  Converged?
 Maximum Force            0.012229     0.000450     NO 
 RMS     Force            0.003244     0.000300     NO 
 Maximum Displacement     0.759421     0.001800     NO 
 RMS     Displacement     0.185942     0.001200     NO 
 Predicted change in Energy=-6.351529D-03
 GradGradGradGradGradGradGradGradGradGradGradGradGradGradGradGradGradGrad

                          Input orientation:                          
 ---------------------------------------------------------------------
 Center     Atomic      Atomic             Coordinates (Angstroms)
 Number     Number       Type             X           Y           Z
 ---------------------------------------------------------------------
      1          6           0       -1.497904   -0.487812   -1.347415
      2          6           0        0.072610   -1.660865   -0.696085
      3          6           0       -0.761651   -0.608479    1.834517
      4          6           0       -2.171792    0.145132   -0.317387
      5          1           0       -0.911703    0.110464   -2.038209
      6          1           0       -1.962794   -1.378066   -1.762188
      7          1           0       -1.963190    1.173170   -0.043287
      8          6           0        0.866796   -0.798498    0.032917
      9          6           0        0.440020   -0.282289    1.293285
     10          1           0        0.469149   -2.018560   -1.641111
     11          1           0       -1.098600   -0.121254    2.744331
     12          1           0        1.023568    0.502286    1.763643
     13          1           0       -0.598178   -2.334217   -0.176142
     14          1           0       -1.352072   -1.452278    1.501424
     15          8           0        1.971928   -0.334107   -0.601495
     16          6           0        2.631670    0.806918   -0.090550
     17          1           0        3.116441    0.593709    0.869015
     18          1           0        3.394001    1.062855   -0.826064
     19          1           0        1.940764    1.649104    0.027759
     20          6           0       -3.213418   -0.570265    0.393659
     21          8           0       -3.459958   -1.757396    0.236280
     22          1           0       -3.775619    0.018472    1.148794
 ---------------------------------------------------------------------
                    Distance matrix (angstroms):
                    1          2          3          4          5
     1  C    0.000000
     2  C    2.065623   0.000000
     3  C    3.268229   2.864866   0.000000
     4  C    1.384089   2.905578   2.680880   0.000000
     5  H    1.085708   2.430591   3.941751   2.133132   0.000000
     6  H    1.086605   2.315042   3.869275   2.109801   1.843014
     7  H    2.162430   3.549983   2.853790   1.084208   2.492926
     8  C    2.755658   1.380526   2.435921   3.200964   2.877296
     9  C    3.281933   2.448072   1.357698   3.098147   3.616664
    10  H    2.509730   1.085478   3.947555   3.661745   2.568498
    11  H    4.127493   3.946974   1.085672   3.255276   4.791796
    12  H    4.125142   3.410837   2.103766   3.829957   4.284025
    13  H    2.364444   1.083375   2.654740   2.939963   3.089021
    14  H    3.011203   2.627218   1.082379   2.555725   3.894237
    15  O    3.552430   2.318758   3.671769   4.181005   3.252248
    16  C    4.506597   3.606301   4.150164   4.854139   4.102915
    17  H    5.232058   4.098481   4.173374   5.438215   4.991134
    18  H    5.158208   4.297346   5.209750   5.663834   4.573339
    19  H    4.275740   3.869088   3.957790   4.392513   3.843462
    20  C    2.445634   3.629729   2.844062   1.449953   3.416908
    21  O    2.823045   3.654813   3.339945   2.363373   3.893045
    22  H    3.416924   4.586133   3.153932   2.176692   4.285727
                    6          7          8          9         10
     6  H    0.000000
     7  H    3.076267   0.000000
     8  C    3.400718   3.449943   0.000000
     9  C    4.038583   3.111302   1.427283   0.000000
    10  H    2.517784   4.319312   2.109276   3.409716   0.000000
    11  H    4.757638   3.192783   3.416608   2.121042   5.028888
    12  H    4.988543   3.554688   2.170721   1.085046   4.272517
    13  H    2.300422   3.765988   2.132671   2.729006   1.839826
    14  H    3.321091   3.106859   2.739948   2.150299   3.676009
    15  O    4.233095   4.250721   1.356264   2.437133   2.485262
    16  C    5.355149   4.609676   2.389013   2.811530   3.881245
    17  H    6.050599   5.193334   2.774563   2.847913   4.486963
    18  H    5.960677   5.415201   3.254112   3.876475   4.325989
    19  H    5.254087   3.933499   2.672862   2.753919   4.289818
    20  C    2.619976   2.189419   4.102483   3.773574   4.449623
    21  O    2.525720   3.302527   4.436399   4.301514   4.362416
    22  H    3.702764   2.457495   4.844031   4.228823   5.472762
                   11         12         13         14         15
    11  H    0.000000
    12  H    2.419535   0.000000
    13  H    3.698214   3.799813   0.000000
    14  H    1.838666   3.087515   2.039706   0.000000
    15  O    4.546207   2.681942   3.284327   4.089199   0.000000
    16  C    4.776292   2.473221   4.506214   4.848561   1.413599
    17  H    4.668464   2.277901   4.843913   4.955160   2.081622
    18  H    5.859462   3.555245   5.282044   5.853913   2.006048
    19  H    4.444285   2.273704   4.728070   4.757418   2.080879
    20  C    3.193700   4.580313   3.205569   2.338738   5.285254
    21  O    3.813567   5.247952   2.948321   2.477270   5.677411
    22  H    3.119566   4.862542   4.169739   2.856752   6.018481
                   16         17         18         19         20
    16  C    0.000000
    17  H    1.096004   0.000000
    18  H    1.089786   1.780570   0.000000
    19  H    1.095731   1.789913   1.784545   0.000000
    20  C    6.024628   6.453519   6.914679   5.623617   0.000000
    21  O    6.617435   7.012636   7.487265   6.388702   1.222632
    22  H    6.573505   6.921681   7.509610   6.049191   1.110365
                   21         22
    21  O    0.000000
    22  H    2.021393   0.000000
 Stoichiometry    C8H12O2
 Framework group  C1[X(C8H12O2)]
 Deg. of freedom    60
 Full point group                 C1      NOp   1
 Largest Abelian subgroup         C1      NOp   1
 Largest concise Abelian subgroup C1      NOp   1
                         Standard orientation:                         
 ---------------------------------------------------------------------
 Center     Atomic      Atomic             Coordinates (Angstroms)
 Number     Number       Type             X           Y           Z
 ---------------------------------------------------------------------
      1          6           0        0.928215   -1.372503    0.572173
      2          6           0       -0.323167   -1.004454   -1.029508
      3          6           0        0.395994    1.698714   -0.410521
      4          6           0        1.503885   -0.225877    1.091360
      5          1           0        0.194432   -1.908111    1.166687
      6          1           0        1.549590   -1.979804   -0.080352
      7          1           0        1.096347    0.275652    1.961928
      8          6           0       -1.244145   -0.097267   -0.545088
      9          6           0       -0.873284    1.247229   -0.241885
     10          1           0       -0.682162   -2.005794   -1.245620
     11          1           0        0.667609    2.695365   -0.076462
     12          1           0       -1.585271    1.884656    0.272007
     13          1           0        0.500445   -0.652393   -1.638947
     14          1           0        1.134171    1.181420   -1.009725
     15          8           0       -2.453189   -0.608044   -0.203368
     16          6           0       -3.313004    0.150265    0.623643
     17          1           0       -3.692479    1.036352    0.102036
     18          1           0       -4.148424   -0.506802    0.864411
     19          1           0       -2.811126    0.456906    1.548151
     20          6           0        2.707996    0.302326    0.480229
     21          8           0        3.192164   -0.121877   -0.559224
     22          1           0        3.170134    1.171322    0.994217
 ---------------------------------------------------------------------
 Rotational constants (GHZ):           2.6782746           0.7543469           0.6934254
 Standard basis: 6-31G(d) (6D, 7F)
 There are   174 symmetry adapted cartesian basis functions of A   symmetry.
 There are   174 symmetry adapted basis functions of A   symmetry.
   174 basis functions,   328 primitive gaussians,   174 cartesian basis functions
    38 alpha electrons       38 beta electrons
       nuclear repulsion energy       525.9450979314 Hartrees.
 NAtoms=   22 NActive=   22 NUniq=   22 SFac= 1.00D+00 NAtFMM=   60 NAOKFM=F Big=F
 Integral buffers will be    131072 words long.
 Raffenetti 2 integral format.
 Two-electron integral symmetry is turned on.
 One-electron integrals computed using PRISM.
 NBasis=   174 RedAO= T EigKep=  1.86D-03  NBF=   174
 NBsUse=   174 1.00D-06 EigRej= -1.00D+00 NBFU=   174
 Initial guess from the checkpoint file:  "/tmp/Gau-3358753.chk"
 B after Tr=     0.000000   -0.000000   -0.000000
         Rot=    0.999621    0.024143    0.002121    0.013088 Ang=   3.16 deg.
 ExpMin= 1.61D-01 ExpMax= 5.48D+03 ExpMxC= 8.25D+02 IAcc=3 IRadAn=         5 AccDes= 0.00D+00
 Harris functional with IExCor= 1009 and IRadAn=       5 diagonalized for initial guess.
 HarFok:  IExCor= 1009 AccDes= 0.00D+00 IRadAn=         5 IDoV= 1 UseB2=F ITyADJ=14
 ICtDFT=  3500011 ScaDFX=  1.000000  1.000000  1.000000  1.000000
 FoFCou: FMM=F IPFlag=           0 FMFlag=      100000 FMFlg1=           0
         NFxFlg=           0 DoJE=T BraDBF=F KetDBF=T FulRan=T
         wScrn=  0.000000 ICntrl=       500 IOpCl=  0 I1Cent=   200000004 NGrid=           0
         NMat0=    1 NMatS0=      1 NMatT0=    0 NMatD0=    1 NMtDS0=    0 NMtDT0=    0
 Petite list used in FoFCou.
 Requested convergence on RMS density matrix=1.00D-08 within 128 cycles.
 Requested convergence on MAX density matrix=1.00D-06.
 Requested convergence on             energy=1.00D-06.
 No special actions if energy rises.
 Integral accuracy reduced to 1.0D-05 until final iterations.
 Initial convergence to 1.0D-05 achieved.  Increase integral accuracy.
 SCF Done:  E(RM062X) =  -462.180032579     A.U. after   17 cycles
            NFock= 17  Conv=0.48D-08     -V/T= 2.0084
 Calling FoFJK, ICntrl=      2127 FMM=F ISym2X=0 I1Cent= 0 IOpClX= 0 NMat=1 NMatS=1 NMatT=0.
 ***** Axes restored to original set *****
 -------------------------------------------------------------------
 Center     Atomic                   Forces (Hartrees/Bohr)
 Number     Number              X              Y              Z
 -------------------------------------------------------------------
      1        6          -0.000172015    0.003567913   -0.002082737
      2        6           0.000977936   -0.002083988   -0.000319563
      3        6          -0.000302172    0.000365862   -0.000438531
      4        6           0.000342981   -0.002481014    0.002607861
      5        1           0.000392298   -0.000814177   -0.000341978
      6        1          -0.000613773    0.000454880   -0.000398282
      7        1          -0.000730752    0.000335030   -0.000355086
      8        6           0.000154036   -0.001119034    0.002243514
      9        6           0.000821107    0.001561688   -0.000688985
     10        1          -0.000270488    0.000164345   -0.000213716
     11        1           0.000156697   -0.000016259    0.000268555
     12        1           0.000234468   -0.000087816    0.000113663
     13        1          -0.000408396    0.000134295    0.000190527
     14        1           0.001569891   -0.000604827    0.001024058
     15        8          -0.000200881    0.000628769   -0.001089973
     16        6           0.000305687   -0.000748281    0.000323359
     17        1          -0.000275204    0.000169047    0.000147991
     18        1           0.000089906    0.000025622    0.000084861
     19        1           0.000153850    0.000254839   -0.000088448
     20        6          -0.001274431    0.001476242   -0.000276234
     21        8           0.000000927   -0.001439431    0.000088496
     22        1          -0.000951671    0.000256295   -0.000799353
 -------------------------------------------------------------------
 Cartesian Forces:  Max     0.003567913 RMS     0.000976578

 GradGradGradGradGradGradGradGradGradGradGradGradGradGradGradGradGradGrad
 Berny optimization.
 FormGI is forming the generalized inverse of G from B-inverse, IUseBI=4.
 Internal  Forces:  Max     0.006346125 RMS     0.001531191
 Search for a saddle point.
 Step number   2 out of a maximum of  103
 All quantities printed in internal units (Hartrees-Bohrs-Radians)
 Swapping is turned off.
 Update second derivatives using D2CorX and points    1    2
 ITU=  0  0
     Eigenvalues ---   -0.02822   0.00103   0.00308   0.00830   0.00944
     Eigenvalues ---    0.01264   0.01873   0.01899   0.02238   0.02458
     Eigenvalues ---    0.02736   0.02975   0.03442   0.03885   0.03953
     Eigenvalues ---    0.05064   0.05432   0.06117   0.07057   0.07931
     Eigenvalues ---    0.08154   0.08915   0.09132   0.10580   0.10958
     Eigenvalues ---    0.11373   0.11666   0.13686   0.13937   0.14228
     Eigenvalues ---    0.14395   0.18315   0.19116   0.19249   0.19488
     Eigenvalues ---    0.21718   0.24899   0.27386   0.30638   0.32046
     Eigenvalues ---    0.34123   0.34564   0.35872   0.35997   0.36402
     Eigenvalues ---    0.36826   0.37193   0.37250   0.37334   0.37833
     Eigenvalues ---    0.38343   0.39181   0.40027   0.40852   0.46082
     Eigenvalues ---    0.51697   0.54808   0.61083   0.62498   0.81516
 Eigenvectors required to have negative eigenvalues:
                          R1        D20       D24       D13       D14
   1                    0.73164   0.22522  -0.22163   0.21862  -0.18778
                          D21       A2        D31       D25       D16
   1                    0.16340  -0.15082  -0.14718  -0.13083   0.12189
 RFO step:  Lambda0=7.275383397D-05 Lambda=-3.65688745D-03.
 Linear search not attempted -- option 19 set.
 Iteration  1 RMS(Cart)=  0.21473055 RMS(Int)=  0.01034930
 Iteration  2 RMS(Cart)=  0.01902350 RMS(Int)=  0.00033724
 Iteration  3 RMS(Cart)=  0.00017094 RMS(Int)=  0.00033137
 Iteration  4 RMS(Cart)=  0.00000005 RMS(Int)=  0.00033137
 Variable       Old X    -DE/DX   Delta X   Delta X   Delta X     New X
                                 (Linear)    (Quad)   (Total)
    R1        3.90346   0.00355   0.00000   0.04657   0.04657   3.95003
    R2        2.61555   0.00138   0.00000  -0.00203  -0.00203   2.61352
    R3        2.05169  -0.00002   0.00000  -0.00150  -0.00150   2.05019
    R4        2.05339   0.00004   0.00000   0.00079   0.00079   2.05418
    R5        2.60882   0.00282   0.00000  -0.00057  -0.00057   2.60824
    R6        2.05126   0.00003   0.00000   0.00046   0.00046   2.05172
    R7        2.04728   0.00026   0.00000   0.00031   0.00031   2.04759
    R8        2.56568  -0.00086   0.00000  -0.00439  -0.00439   2.56129
    R9        2.05162   0.00017   0.00000  -0.00009  -0.00009   2.05153
   R10        2.04540  -0.00070   0.00000  -0.00060  -0.00060   2.04480
   R11        2.04886   0.00009   0.00000  -0.00110  -0.00110   2.04776
   R12        2.74001   0.00097   0.00000   0.00320   0.00320   2.74321
   R13        2.69717  -0.00006   0.00000   0.00429   0.00429   2.70146
   R14        2.56297   0.00047   0.00000   0.00742   0.00742   2.57039
   R15        2.05044   0.00011   0.00000  -0.00075  -0.00075   2.04969
   R16        2.67131   0.00005   0.00000  -0.00494  -0.00494   2.66637
   R17        2.07115  -0.00003   0.00000   0.00034   0.00034   2.07149
   R18        2.05940   0.00001   0.00000  -0.00023  -0.00023   2.05916
   R19        2.07063   0.00009   0.00000   0.00110   0.00110   2.07173
   R20        2.31044   0.00139   0.00000   0.00229   0.00229   2.31273
   R21        2.09829   0.00008   0.00000  -0.00085  -0.00085   2.09744
    A1        1.97710   0.00495   0.00000  -0.02454  -0.02487   1.95224
    A2        1.67403  -0.00313   0.00000   0.02417   0.02420   1.69823
    A3        1.55117  -0.00035   0.00000  -0.02945  -0.03029   1.52089
    A4        2.07646   0.00125   0.00000   0.03736   0.03755   2.11400
    A5        2.03804  -0.00219   0.00000  -0.02068  -0.02158   2.01646
    A6        2.02595  -0.00004   0.00000  -0.00289  -0.00264   2.02331
    A7        1.82260   0.00405   0.00000  -0.00748  -0.00731   1.81529
    A8        1.76233  -0.00248   0.00000   0.00395   0.00391   1.76624
    A9        1.60434  -0.00076   0.00000  -0.04076  -0.04043   1.56391
   A10        2.04364  -0.00183   0.00000  -0.01510  -0.01533   2.02831
   A11        2.08404   0.00105   0.00000   0.03206   0.03156   2.11560
   A12        2.02551   0.00036   0.00000   0.00755   0.00720   2.03271
   A13        2.09548   0.00010   0.00000   0.00134   0.00119   2.09668
   A14        2.15007  -0.00074   0.00000  -0.01111  -0.01125   2.13881
   A15        2.02467   0.00038   0.00000   0.00518   0.00504   2.02971
   A16        2.12713   0.00043   0.00000   0.00518   0.00367   2.13080
   A17        2.08184  -0.00042   0.00000  -0.01193  -0.01343   2.06841
   A18        2.07382  -0.00006   0.00000   0.00405   0.00255   2.07637
   A19        2.11790   0.00635   0.00000   0.02320   0.02316   2.14106
   A20        2.02154  -0.00337   0.00000  -0.01903  -0.01904   2.00250
   A21        2.13278  -0.00295   0.00000  -0.00614  -0.00616   2.12663
   A22        2.12914   0.00135   0.00000   0.00334   0.00326   2.13239
   A23        2.06794  -0.00034   0.00000  -0.00070  -0.00078   2.06717
   A24        2.07545  -0.00087   0.00000   0.00049   0.00042   2.07586
   A25        2.08014  -0.00034   0.00000   0.00752   0.00752   2.08765
   A26        1.94535   0.00004   0.00000   0.00206   0.00206   1.94741
   A27        1.84636   0.00010   0.00000  -0.00110  -0.00110   1.84527
   A28        1.94459   0.00026   0.00000   0.00597   0.00597   1.95055
   A29        1.90411   0.00003   0.00000   0.00149   0.00149   1.90560
   A30        1.91122  -0.00023   0.00000  -0.00334  -0.00335   1.90787
   A31        1.91075  -0.00020   0.00000  -0.00520  -0.00520   1.90556
   A32        2.16615  -0.00014   0.00000  -0.00047  -0.00052   2.16563
   A33        2.02154   0.00024   0.00000   0.00238   0.00233   2.02387
   A34        2.09470  -0.00007   0.00000  -0.00125  -0.00129   2.09341
    D1       -0.97799  -0.00313   0.00000  -0.21589  -0.21575  -1.19375
    D2       -3.10610  -0.00163   0.00000  -0.19800  -0.19769   2.97940
    D3        1.13488  -0.00149   0.00000  -0.19673  -0.19636   0.93852
    D4        1.20506  -0.00142   0.00000  -0.16823  -0.16834   1.03671
    D5       -0.92304   0.00008   0.00000  -0.15033  -0.15028  -1.07333
    D6       -2.96526   0.00023   0.00000  -0.14907  -0.14895  -3.11421
    D7       -3.05173  -0.00159   0.00000  -0.17355  -0.17397   3.05749
    D8        1.10336  -0.00009   0.00000  -0.15565  -0.15591   0.94745
    D9       -0.93885   0.00005   0.00000  -0.15439  -0.15458  -1.09343
   D10        1.70421   0.00013   0.00000   0.15164   0.15142   1.85563
   D11       -1.46837  -0.00168   0.00000   0.04890   0.04870  -1.41967
   D12       -0.24177  -0.00033   0.00000   0.11282   0.11277  -0.12900
   D13        2.86883  -0.00215   0.00000   0.01008   0.01005   2.87889
   D14       -2.81382   0.00148   0.00000   0.08924   0.08948  -2.72434
   D15        0.29679  -0.00034   0.00000  -0.01351  -0.01324   0.28355
   D16        1.22042   0.00171   0.00000  -0.02572  -0.02594   1.19448
   D17       -1.76595   0.00184   0.00000  -0.01110  -0.01129  -1.77724
   D18       -3.13184   0.00044   0.00000  -0.03279  -0.03284   3.11851
   D19        0.16498   0.00056   0.00000  -0.01817  -0.01819   0.14679
   D20       -0.53620  -0.00028   0.00000   0.01627   0.01650  -0.51970
   D21        2.76062  -0.00015   0.00000   0.03089   0.03115   2.79177
   D22       -3.03323  -0.00072   0.00000  -0.00109  -0.00108  -3.03430
   D23       -0.04979   0.00026   0.00000   0.02201   0.02203  -0.02776
   D24        0.28768   0.00104   0.00000   0.02985   0.02983   0.31751
   D25       -3.01207   0.00203   0.00000   0.05295   0.05294  -2.95913
   D26        0.13164   0.00126   0.00000   0.14299   0.14292   0.27456
   D27       -3.05291   0.00206   0.00000   0.16085   0.16078  -2.89213
   D28       -3.03999  -0.00050   0.00000   0.04343   0.04350  -2.99649
   D29        0.05865   0.00031   0.00000   0.06129   0.06136   0.12000
   D30       -0.00249   0.00196   0.00000   0.12184   0.12189   0.11941
   D31       -2.98527   0.00093   0.00000   0.09875   0.09878  -2.88649
   D32        2.97390   0.00187   0.00000   0.10538   0.10534   3.07924
   D33       -0.00888   0.00084   0.00000   0.08228   0.08223   0.07335
   D34        2.84326   0.00085   0.00000   0.12141   0.12154   2.96481
   D35       -0.14165   0.00007   0.00000   0.13332   0.13319  -0.00847
   D36        1.20040  -0.00046   0.00000  -0.12666  -0.12665   1.07374
   D37       -3.01533  -0.00035   0.00000  -0.12442  -0.12442  -3.13975
   D38       -0.94031  -0.00038   0.00000  -0.12811  -0.12812  -1.06843
         Item               Value     Threshold  Converged?
 Maximum Force            0.006346     0.000450     NO 
 RMS     Force            0.001531     0.000300     NO 
 Maximum Displacement     0.653456     0.001800     NO 
 RMS     Displacement     0.221389     0.001200     NO 
 Predicted change in Energy=-2.728572D-03
 GradGradGradGradGradGradGradGradGradGradGradGradGradGradGradGradGradGrad

                          Input orientation:                          
 ---------------------------------------------------------------------
 Center     Atomic      Atomic             Coordinates (Angstroms)
 Number     Number       Type             X           Y           Z
 ---------------------------------------------------------------------
      1          6           0       -1.537863   -0.361686   -1.310170
      2          6           0        0.019110   -1.592727   -0.654741
      3          6           0       -0.664805   -0.472328    1.930917
      4          6           0       -2.318996    0.083953   -0.259472
      5          1           0       -0.933759    0.327058   -1.891313
      6          1           0       -1.922353   -1.225548   -1.846388
      7          1           0       -2.272023    1.105144    0.099987
      8          6           0        0.851008   -0.738051    0.039874
      9          6           0        0.477329   -0.137806    1.282327
     10          1           0        0.400143   -1.971216   -1.598326
     11          1           0       -0.966726    0.073388    2.819522
     12          1           0        1.058780    0.697403    1.657561
     13          1           0       -0.701323   -2.216980   -0.139629
     14          1           0       -1.207375   -1.384766    1.721320
     15          8           0        1.961714   -0.346826   -0.640857
     16          6           0        2.770159    0.686259   -0.121215
     17          1           0        3.189725    0.417431    0.855164
     18          1           0        3.581919    0.814310   -0.836766
     19          1           0        2.217316    1.628685   -0.031239
     20          6           0       -3.344939   -0.799321    0.264498
     21          8           0       -3.396135   -2.001030    0.038513
     22          1           0       -4.100838   -0.327323    0.926123
 ---------------------------------------------------------------------
                    Distance matrix (angstroms):
                    1          2          3          4          5
     1  C    0.000000
     2  C    2.090267   0.000000
     3  C    3.358440   2.899769   0.000000
     4  C    1.383014   2.904175   2.800643   0.000000
     5  H    1.084914   2.474398   3.914179   2.154271   0.000000
     6  H    1.087023   2.307406   4.051765   2.095333   1.841174
     7  H    2.163129   3.619036   2.902391   1.083628   2.522230
     8  C    2.769652   1.380222   2.438102   3.288498   2.837134
     9  C    3.291225   2.465561   1.355376   3.200899   3.504178
    10  H    2.535643   1.085722   3.979490   3.661962   2.673424
    11  H    4.191640   3.977225   1.085625   3.362878   4.717775
    12  H    4.083093   3.416481   2.100890   3.932010   4.086792
    13  H    2.347782   1.083539   2.707823   2.815230   3.097508
    14  H    3.216496   2.682010   1.082061   2.704879   4.007034
    15  O    3.563038   2.307850   3.678094   4.319202   3.225140
    16  C    4.590300   3.612021   4.165639   5.126537   4.120835
    17  H    5.257925   4.046398   4.099551   5.630242   4.955241
    18  H    5.274395   4.303552   5.229739   5.973900   4.662706
    19  H    4.438312   3.949476   4.070741   4.797542   3.883733
    20  C    2.436520   3.576496   3.172853   1.451647   3.424915
    21  O    2.821270   3.508733   3.657634   2.365624   3.899681
    22  H    3.401622   4.590681   3.582870   2.179391   4.289120
                    6          7          8          9         10
     6  H    0.000000
     7  H    3.056595   0.000000
     8  C    3.389272   3.626887   0.000000
     9  C    4.090295   3.240647   1.429553   0.000000
    10  H    2.451845   4.414604   2.099446   3.415482   0.000000
    11  H    4.936717   3.188133   3.418923   2.119638   5.056295
    12  H    4.986236   3.699532   2.172696   1.084647   4.261001
    13  H    2.320965   3.682530   2.151554   2.781033   1.844296
    14  H    3.642126   3.156240   2.735405   2.141460   3.734714
    15  O    4.160701   4.536695   1.360191   2.438386   2.448244
    16  C    5.352653   5.064385   2.395359   2.811776   3.854997
    17  H    6.010915   5.556432   2.733026   2.801401   4.416674
    18  H    5.956288   5.935548   3.261318   3.877571   4.296839
    19  H    5.345865   4.521668   2.733733   2.805976   4.326334
    20  C    2.580942   2.192077   4.202402   4.010401   4.343857
    21  O    2.515204   3.303895   4.430952   4.474640   4.134229
    22  H    3.638602   2.465568   5.047268   4.595913   5.416093
                   11         12         13         14         15
    11  H    0.000000
    12  H    2.417069   0.000000
    13  H    3.751373   3.849867   0.000000
    14  H    1.841243   3.078141   2.100428   0.000000
    15  O    4.552644   2.681124   3.292488   4.086603   0.000000
    16  C    4.794565   2.468397   4.525519   4.848180   1.410983
    17  H    4.610114   2.294156   4.803123   4.830386   2.080907
    18  H    5.882821   3.549868   5.293475   5.858078   2.002917
    19  H    4.547957   2.249786   4.829011   4.886804   2.083173
    20  C    3.598009   4.855260   3.026843   2.652217   5.402313
    21  O    4.235475   5.454275   2.709313   2.828832   5.648405
    22  H    3.683502   5.311000   4.032782   3.181612   6.261817
                   16         17         18         19         20
    16  C    0.000000
    17  H    1.096184   0.000000
    18  H    1.089663   1.781560   0.000000
    19  H    1.096312   1.788414   1.781635   0.000000
    20  C    6.304772   6.673170   7.197079   6.076294   0.000000
    21  O    6.728314   7.063244   7.575320   6.685097   1.223844
    22  H    7.023878   7.328847   7.964663   6.682932   1.109916
                   21         22
    21  O    0.000000
    22  H    2.021325   0.000000
 Stoichiometry    C8H12O2
 Framework group  C1[X(C8H12O2)]
 Deg. of freedom    60
 Full point group                 C1      NOp   1
 Largest Abelian subgroup         C1      NOp   1
 Largest concise Abelian subgroup C1      NOp   1
                         Standard orientation:                         
 ---------------------------------------------------------------------
 Center     Atomic      Atomic             Coordinates (Angstroms)
 Number     Number       Type             X           Y           Z
 ---------------------------------------------------------------------
      1          6           0        0.973141   -1.247295    0.725593
      2          6           0       -0.248672   -0.948042   -0.943789
      3          6           0        0.214056    1.848486   -0.332256
      4          6           0        1.653239   -0.096031    1.078845
      5          1           0        0.216321   -1.673368    1.375765
      6          1           0        1.533475   -1.955569    0.120620
      7          1           0        1.382031    0.488297    1.950198
      8          6           0       -1.239243   -0.103110   -0.485673
      9          6           0       -0.987147    1.256529   -0.123111
     10          1           0       -0.552423   -1.966017   -1.167969
[...]
 0,-0.02144144,-0.00606364,-0.04666460,-0.08962658,-0.08686540,-0.00119
 660,-0.00071785,-0.00076743,-0.00246522,0.00250094,-0.00178164,0.04503
 466,0.09729035,0.08859599,-0.00589213,0.01079445,-0.00543621,-0.162904
 29,-0.12333458,0.10919368,0.00353637,0.00063921,0.00169723,-0.00121892
 ,-0.00024838,-0.00303448,-0.00091165,0.00068758,-0.00011460,0.00046226
 ,0.00098615,-0.00041082,0.00035060,-0.00035653,0.00024762,-0.01550617,
 -0.01039044,0.00382516,-0.00467557,0.00165710,0.00255247,-0.00369171,-
 0.00436844,0.00188690,-0.00028391,0.00065014,-0.00045093,-0.00021911,0
 .00016050,0.00012163,0.18375594,0.00810277,-0.01282617,0.00530529,-0.1
 3433045,-0.14176697,0.07149199,-0.00363548,-0.00006350,-0.00046639,-0.
 00182992,-0.00034871,0.00413288,0.00090885,-0.00042909,0.00020390,-0.0
 0098873,0.00072145,-0.00066415,-0.00044969,0.00023578,-0.00023558,-0.0
 0402715,-0.00160132,0.01596203,0.00323796,-0.00072501,-0.00223175,0.00
 873573,0.01003957,-0.00587317,0.00057436,0.00011642,0.00046698,0.00015
 692,0.00002580,0.00003196,0.12678688,0.14660878,-0.00421044,0.00790974
 ,-0.00271475,0.11154503,0.07738786,-0.12376529,0.00112523,-0.00261644,
 -0.00098889,0.00228810,-0.00087441,-0.00263506,-0.00068426,0.00006086,
 -0.00005870,0.00033269,0.00044365,-0.00049668,0.00038668,-0.00014713,0
 .00021874,-0.01258589,-0.00926531,0.01120265,-0.00034046,0.00169585,0.
 00009600,0.01373240,0.01484558,-0.00807177,-0.00009927,0.00016383,-0.0
 0000848,-0.00015775,0.00038133,0.00004372,-0.10946820,-0.08355802,0.13
 090153,-0.00142833,0.00115226,0.00098250,0.00166314,-0.00093332,0.0012
 1002,-0.11546416,-0.13069822,-0.02086267,-0.00427290,0.00102583,-0.003
 79259,0.00002591,0.00001431,0.00007337,0.00031106,-0.00020963,0.000119
 98,0.00001124,-0.00006257,0.00018148,-0.00174231,-0.00065170,-0.006304
 13,-0.01228040,-0.02197231,-0.00340640,-0.00006791,0.00048167,-0.00032
 074,0.00751858,0.00923673,0.00270051,-0.00055082,-0.00386342,0.0054821
 5,0.00113720,0.00030556,0.00139193,0.12739359,0.00261512,-0.00244096,-
 0.00095039,-0.00126759,0.00100124,-0.00276040,-0.13854184,-0.26844696,
 -0.06450539,0.00236524,-0.00135141,0.00531954,-0.00008874,0.00001310,-
 0.00010216,-0.00041404,0.00034988,-0.00025445,-0.00029326,0.00011392,-
 0.00025245,0.00121061,-0.00009746,0.00359724,0.00129813,-0.00083398,-0
 .00539709,0.00034334,0.00015875,0.00010308,-0.00699536,-0.00704016,-0.
 00180835,-0.00222028,0.00377675,-0.00208562,0.00011293,0.00021008,-0.0
 0140570,0.14180196,0.27545371,-0.00333447,0.00224260,0.00109003,0.0043
 2198,0.00030420,0.00054397,-0.01572853,-0.06459643,-0.06183147,-0.0040
 1211,0.00153235,-0.00600034,0.00024905,-0.00011885,0.00021584,0.000304
 53,-0.00023968,0.00009613,0.00025811,-0.00016048,0.00022709,-0.0024805
 2,-0.00140333,-0.00624195,0.00089854,0.01317024,0.01321098,-0.00045580
 ,0.00014091,0.00016752,-0.01149196,-0.01940493,-0.00106500,0.00507928,
 -0.00298092,0.00225212,0.00143777,-0.00201237,-0.00243897,0.02633403,0
 .07072571,0.06163914,0.01266764,-0.01052431,0.00203622,-0.05324624,-0.
 02556302,0.00968879,0.00556971,0.00019929,0.00123144,-0.01506098,0.000
 86337,0.00826228,0.00038679,0.00092799,-0.00137820,-0.00114459,0.00135
 867,-0.00085798,-0.00026771,0.00018719,0.00001802,-0.22878683,-0.06201
 766,0.11303333,-0.01883262,-0.00864692,0.02391189,0.00042542,0.0016380
 7,0.00095757,-0.00080135,0.00020477,-0.00004675,-0.00151135,0.00102121
 ,-0.00112704,0.00297879,-0.00355392,-0.00134036,-0.00048522,0.00070910
 ,-0.00080024,0.44596165,0.00910711,-0.00616746,0.00051032,-0.04564988,
 -0.01156825,0.01213544,-0.00340656,0.00040283,-0.00367354,-0.00765201,
 0.00048570,0.00605768,-0.00122503,0.00026865,-0.00112258,-0.00045912,0
 .00093324,-0.00078599,-0.00048955,0.00024404,-0.00020643,-0.08226610,-
 0.08600181,0.01578327,0.00768065,0.00939010,-0.00386966,0.00296781,-0.
 00107070,0.00290271,0.00078912,0.00010178,0.00007900,-0.00072417,-0.00
 069202,0.00202874,-0.00421426,-0.00082262,-0.00345985,0.00023853,0.000
 17919,-0.00029561,0.23063158,0.29073087,-0.00307025,0.00288915,-0.0008
 9573,-0.00711809,-0.00327375,0.02076587,-0.00470829,-0.00568212,-0.002
 96184,0.00792256,-0.00059876,-0.00254277,0.00145832,-0.00035857,0.0009
 7567,0.00017386,-0.00072489,0.00071986,0.00000137,0.00002441,-0.000003
 41,0.08727472,-0.00435915,-0.15048674,0.03896575,0.01271807,-0.0206224
 0,-0.00131394,0.00233800,-0.00045556,0.00155934,0.00039024,-0.00072587
 ,-0.00119544,0.00023184,0.00118081,-0.00173846,-0.00258057,-0.00134565
 ,0.00046380,-0.00024073,0.00070126,-0.07594269,0.08308945,0.27521011,-
 0.00304303,0.00233808,-0.00007539,0.00299668,-0.00076402,0.00562417,-0
 .00155675,-0.00161771,-0.00139866,0.00437589,-0.00003819,-0.00217068,-
 0.00012939,0.00004956,0.00005502,0.00033400,-0.00035352,0.00022430,0.0
 0001373,-0.00002339,0.00000047,-0.03989173,-0.02991767,-0.00681647,0.0
 0117003,0.00261686,-0.00158285,-0.00042636,0.00024966,-0.00075255,0.00
 033114,0.00006575,-0.00018167,-0.00283699,-0.00220569,0.00090729,-0.00
 007451,-0.00055356,-0.00069600,0.00007075,-0.00031846,0.00051321,-0.12
 704719,-0.06537445,-0.02401947,0.58802350,-0.00266059,0.00155090,-0.00
 095691,0.00404301,0.00371394,0.00076975,-0.00206459,-0.00142411,-0.001
 25528,0.00434290,0.00003481,-0.00126677,-0.00023687,0.00004249,0.00031
 835,-0.00000107,-0.00013746,0.00007911,0.00012838,-0.00004893,-0.00009
 245,-0.02128388,-0.01934431,0.00647978,0.00616497,0.00308526,-0.002087
 14,0.00012829,-0.00044362,0.00021734,0.00039032,0.00001046,-0.00024904
 ,0.00035778,-0.00046068,-0.00077843,-0.00107143,0.00151866,-0.00048280
 ,-0.00012775,-0.00020642,0.00023963,-0.07922394,-0.15918830,-0.0578366
 2,-0.03674256,0.54307622,-0.00133260,0.00104894,-0.00022394,0.00454948
 ,0.00004470,-0.00163917,-0.00115982,-0.00043993,-0.00012666,0.00274453
 ,0.00006618,-0.00108701,-0.00002928,0.00000984,0.00008404,0.00009022,-
 0.00021581,0.00009430,0.00002894,-0.00003886,-0.00002286,0.00723585,0.
 01574646,0.01131083,0.00593337,0.00435765,-0.00272992,-0.00043951,0.00
 047261,-0.00014218,0.00014240,-0.00003202,-0.00006921,0.00265602,0.000
 78633,-0.00112880,0.00091237,0.00020402,0.00071506,0.00016160,-0.00014
 334,0.00039990,-0.04465393,-0.07370839,-0.12081181,-0.04875010,-0.0290
 8640,0.60288289,0.00101059,-0.00055730,-0.00011273,-0.00155509,-0.0006
 5014,-0.00016986,-0.00060043,0.00001236,0.00033858,-0.00019096,0.00004
 547,0.00073645,0.00000925,0.00000176,0.00000026,-0.00007594,0.00003273
 ,-0.00002583,-0.00004363,0.00003327,-0.00005232,0.00452115,0.00295439,
 -0.00385912,0.00029667,0.00003272,0.00014935,0.00001430,0.00021797,0.0
 0004547,-0.00004122,0.00002400,-0.00003717,-0.00216270,0.00080683,0.00
 018749,0.00018110,-0.00027172,0.00004268,0.00008911,0.00001005,0.00004
 878,-0.01387530,-0.00505762,-0.02174641,-0.07822021,0.02540636,-0.0690
 8835,0.08394763,0.00061354,-0.00044019,0.00002872,-0.00094414,-0.00082
 183,-0.00014707,-0.00040669,-0.00040171,-0.00006634,-0.00016927,0.0000
 5260,0.00033075,0.00002960,-0.00000688,-0.00004882,-0.00004077,0.00004
 392,-0.00003339,-0.00004741,0.00000807,0.00000517,0.00370660,0.0028669
 6,-0.00270067,0.00023703,0.00091550,0.00113869,-0.00004372,0.00022230,
 -0.00003018,-0.00003996,0.00003822,-0.00000193,-0.00047407,-0.00027748
 ,-0.00004853,0.00017254,-0.00022054,0.00007681,-0.00003277,-0.00004290
 ,0.00013522,-0.01796268,0.00216340,-0.03076184,0.02781807,-0.07918662,
 0.07742711,-0.02198745,0.08138334,0.00043746,-0.00022271,0.00013285,-0
 .00088757,-0.00043516,0.00013712,0.00060783,0.00058506,0.00022719,-0.0
 0096029,-0.00004725,0.00027275,0.00006088,-0.00002453,-0.00002002,-0.0
 0000288,0.00002256,-0.00000330,0.00000958,0.00000946,0.00001206,0.0038
 1796,0.00121177,-0.00168390,-0.00043738,-0.00118923,0.00023877,0.00006
 901,0.00014318,0.00005410,-0.00001317,-0.00004261,0.00008035,0.0012504
 8,0.00034427,0.00038270,0.00004659,-0.00010100,0.00000425,-0.00003877,
 0.00014730,-0.00025411,-0.01294866,-0.00893951,-0.01136338,-0.07332433
 ,0.07368435,-0.26485576,0.08590201,-0.07249621,0.28967095,0.00035553,-
 0.00027745,0.00005001,-0.00101018,-0.00044336,0.00057342,0.00004988,0.
 00003861,0.00013967,-0.00039269,0.00002687,0.00019987,-0.00002316,0.00
 002065,-0.00000763,-0.00002200,0.00003446,-0.00002140,0.00000241,-0.00
 000391,0.00000680,0.00106583,-0.00095631,-0.00309978,0.00027476,-0.000
 42237,-0.00020232,0.00003227,-0.00001755,-0.00001133,-0.00002011,-0.00
 001865,0.00003681,-0.00001840,0.00021398,-0.00015234,-0.00010842,-0.00
 016802,-0.00017892,-0.00001767,0.00003091,-0.00006640,-0.02331518,-0.0
 1056370,0.01025416,-0.21518678,-0.01658125,0.13508711,0.01109665,0.001
 49069,-0.00653694,0.23798018,0.00032459,-0.00020665,0.00002602,-0.0012
 4423,-0.00032691,0.00072754,0.00002548,0.00045118,0.00022922,-0.000303
 81,-0.00001982,0.00020354,-0.00002053,0.00000383,-0.00003720,-0.000013
 33,0.00002873,-0.00001519,-0.00003244,0.00001511,-0.00000323,-0.001238
 07,-0.00198904,-0.00318626,-0.00005519,-0.00056622,-0.00096533,0.00003
 809,0.00001182,-0.00002581,-0.00007419,0.00001245,-0.00001116,0.000474
 63,0.00037059,0.00040229,-0.00011295,-0.00019938,-0.00019277,0.0001367
 6,-0.00002918,-0.00003464,-0.03031355,-0.01057789,0.01535000,-0.009660
 28,-0.05162800,0.01281869,-0.00773816,-0.00015212,0.00714582,0.0283957
 0,0.05935361,0.00021076,-0.00009090,-0.00000170,-0.00063562,-0.0002873
 0,0.00051840,-0.00006771,0.00038112,0.00031513,0.00003614,0.00001663,0
 .00014519,-0.00001322,0.00001153,-0.00000239,-0.00000427,0.00000148,0.
 00000109,-0.00001646,0.00001482,-0.00001499,-0.00201196,-0.00202092,-0
 .00082279,0.00029020,-0.00102046,-0.00075093,0.00003867,0.00000881,-0.
 00000975,-0.00000968,-0.00002857,0.00002368,0.00029400,0.00082166,0.00
 019221,-0.00009827,-0.00015000,-0.00013322,0.00007186,0.00002085,-0.00
 009287,-0.01782768,-0.00497690,0.01162167,0.14458246,0.01971968,-0.169
 13325,0.02282984,0.00113200,-0.01589799,-0.14680126,-0.01397749,0.1736
 2445,0.00078288,-0.00055833,-0.00015007,-0.00143091,0.00024483,-0.0008
 9466,-0.00102528,-0.00004994,-0.00023297,-0.00009185,0.00000325,0.0006
 4515,-0.00009059,0.00000401,-0.00006940,-0.00009066,0.00008898,-0.0000
 9085,-0.00005473,0.00002510,-0.00002772,0.00452882,0.00012926,-0.00077
 915,0.00052616,0.00074770,0.00067314,0.00013911,-0.00006974,0.00015665
 ,0.00003133,-0.00003337,0.00003265,-0.00074542,-0.00151421,0.00122500,
 -0.00011629,0.00009900,-0.00002340,-0.00004486,-0.00000504,0.00000931,
 0.01045524,-0.02764829,-0.00307501,-0.12692942,0.12077239,0.00711214,-
 0.00444079,0.00803130,0.00257413,-0.01091303,0.02130659,-0.00082472,0.
 12947713,0.00114127,-0.00087854,0.00012640,-0.00210767,-0.00027593,-0.
 00037445,-0.00005110,0.00059528,0.00028967,-0.00103038,0.00007035,0.00
 077316,-0.00002109,0.00000350,-0.00013622,-0.00008159,0.00012884,-0.00
 009619,-0.00009732,0.00004167,-0.00001147,0.00671709,0.00193313,-0.003
 44236,-0.00038187,-0.00036604,-0.00019268,0.00027041,-0.00002989,0.000
 28604,-0.00007305,0.00000395,0.00001126,-0.00020792,-0.00002555,0.0011
 3299,-0.00007761,-0.00000364,-0.00005324,0.00015412,0.00001094,-0.0000
 3748,-0.00435712,-0.03125172,-0.00829487,0.11568584,-0.23955304,-0.008
 50790,0.00659959,-0.00621661,-0.00005260,-0.00091539,0.00534382,0.0004
 1691,-0.12158417,0.27012093,0.00022672,-0.00023220,0.00017405,-0.00047
 491,-0.00009754,-0.00017628,0.00036020,-0.00028331,-0.00002197,-0.0006
 2383,0.00003920,0.00011565,-0.00005940,-0.00000684,-0.00008672,0.00001
 606,0.00005476,-0.00005764,-0.00000315,-0.00000552,0.00003030,0.002049
 51,0.00103680,-0.00093460,-0.00048373,0.00062911,0.00058923,0.00010413
 ,-0.00006666,0.00011102,-0.00004717,0.00004782,-0.00000561,0.00049930,
 0.00082598,-0.00102800,-0.00006622,0.00006205,-0.00001630,-0.00008920,
 0.00000440,0.00001102,0.00226679,-0.01965586,-0.00158794,0.00662524,-0
 .00865731,-0.05431573,-0.01518495,0.02609591,0.00313904,0.01085536,-0.
 01838656,0.00038477,-0.00627282,0.01841063,0.05387479,-0.02811243,-0.0
 0111152,0.01946947,0.00698850,-0.00066380,0.00518620,-0.00941594,0.002
 90953,-0.00478409,-0.16525707,-0.07834218,0.07087096,0.00398368,-0.001
 60325,0.00467039,-0.00205702,0.00082907,-0.00156818,0.00394419,0.00553
 338,-0.00283875,-0.00540472,-0.00443060,0.00647265,0.00246296,-0.00249
 054,-0.00414621,-0.00019134,0.00004032,-0.00031965,0.00073823,-0.00012
 960,0.00065005,0.00021689,0.00003332,0.00022941,0.00101232,0.00127299,
 -0.00051949,-0.00231346,0.00008802,-0.00267602,0.00802714,0.00408728,-
 0.00434003,-0.00247633,-0.00244695,-0.00158384,0.00005693,0.00012402,0
 .00052368,0.00027671,0.00016596,-0.00007669,0.00003105,0.00048163,0.00
 037507,0.44244596,-0.02240821,0.03230464,0.01126162,0.01670714,-0.0019
 8195,0.01012000,-0.00870617,0.00543191,-0.00226750,-0.04192864,-0.1534
 4830,0.00776690,0.00070492,-0.00208595,-0.00448837,0.00445922,-0.00344
 723,-0.00168471,-0.01866219,-0.01205933,0.01612709,-0.00797089,-0.0089
 1728,0.00709706,0.00274077,-0.00592477,-0.00766041,-0.00071314,-0.0004
 5847,-0.00011633,-0.00081741,-0.00106044,-0.00030456,-0.00035002,-0.00
 002455,0.00061070,0.00589738,0.00040937,-0.00141878,0.00663787,-0.0008
 4273,0.00436431,0.01164388,0.00575677,-0.00652131,-0.00360254,-0.00328
 172,-0.00215212,0.00018410,0.00012913,0.00072797,0.00031166,0.00022782
 ,-0.00004049,0.00007858,0.00077389,0.00047966,0.03313942,0.92981062,0.
 02937191,0.01229142,-0.01651039,-0.00166220,-0.00034287,-0.00292114,0.
 00344143,-0.00003132,-0.00118156,0.07954863,0.03996929,-0.12006378,0.0
 0561340,-0.00393877,-0.00165002,-0.00097248,0.00286564,-0.00176625,-0.
 01299563,-0.00867539,0.00340434,0.00166828,0.00046667,-0.00661975,-0.0
 0374173,0.00217924,0.00581078,0.00048597,-0.00026706,0.00032799,-0.000
 46288,0.00022652,-0.00089140,0.00006477,-0.00012165,-0.00007707,-0.000
 19937,0.00019103,0.00014395,-0.00565495,0.00089906,-0.00272440,-0.0056
 0451,-0.00233266,0.00270869,0.00153641,0.00171127,0.00104158,-0.000057
 66,-0.00003922,-0.00037323,-0.00015812,-0.00010197,0.00002132,0.000076
 54,-0.00030349,-0.00021837,-0.20630541,0.12387309,0.40395707,-0.001011
 68,0.00023840,-0.00087110,-0.00041049,-0.00086669,-0.00021934,0.000257
 41,-0.00040780,0.00087415,0.01091509,-0.03474036,-0.00442513,-0.000546
 79,-0.00042274,-0.00148539,-0.00015457,-0.00096276,-0.00037317,-0.0013
 6798,-0.00452838,0.00493782,0.00112975,0.00050385,0.00057221,-0.000284
 90,-0.00076927,-0.00067801,-0.00035055,-0.00045356,0.00025329,-0.00078
 741,-0.00018850,-0.00066848,-0.00028131,-0.00004433,0.00001486,0.00190
 521,-0.00066993,-0.00032630,0.00043524,-0.00058192,0.00147453,-0.00166
 450,-0.00068379,0.00007836,0.00036698,0.00050857,0.00028859,-0.0000130
 7,-0.00006849,-0.00010611,-0.00009350,-0.00005070,0.00002646,-0.000016
 32,-0.00004953,-0.00006421,-0.09206078,-0.01964644,0.01827529,0.067045
 73,0.02167480,-0.01462386,-0.01081217,-0.01040207,0.00089039,-0.006298
 60,0.00564136,-0.00544847,0.00284235,-0.04930608,-0.05987633,0.0235617
 2,-0.00028579,0.00149400,-0.00020129,-0.00180106,0.00107645,0.00168503
 ,-0.00419489,-0.00192355,0.00081809,0.00555294,0.00600300,-0.00513614,
 -0.00200749,0.00423577,0.00436432,0.00044985,0.00030058,0.00002602,0.0
 0031665,0.00082158,0.00003079,0.00014948,0.00012881,-0.00043786,-0.003
 78130,-0.00088442,0.00070670,-0.00263578,0.00003743,-0.00137186,-0.007
 81644,-0.00365904,0.00443415,0.00250301,0.00204982,0.00145506,-0.00010
 936,-0.00006999,-0.00050921,-0.00021759,-0.00013964,0.00004920,-0.0000
 7724,-0.00046420,-0.00031792,-0.00451859,-0.69777947,-0.12040250,0.038
 63699,0.80290204,0.00201412,-0.00057682,-0.00357222,-0.00295068,0.0018
 3173,-0.00118115,-0.00105826,-0.00022983,0.00108952,-0.00320660,0.0159
 1883,0.02172709,-0.00017575,0.00138744,0.00130029,-0.00068896,0.000922
 53,0.00156402,0.00494570,0.00188488,0.00072529,0.00065848,0.00131292,0
 .00068629,0.00039744,-0.00059659,-0.00123737,-0.00021329,0.00010073,0.
 00006716,-0.00006660,-0.00008141,-0.00005896,-0.00023353,-0.00001220,0
 .00008648,-0.00093433,-0.00060853,-0.00034602,0.00097759,-0.00075096,0
 .00019947,-0.00000341,-0.00021426,0.00030708,0.00005438,-0.00014465,0.
 00000709,0.00003451,-0.00001198,0.00002651,-0.00000772,0.00000603,0.00
 001593,-0.00007404,-0.00002317,-0.00002728,0.02077558,-0.11284340,-0.1
 0627126,-0.02467219,0.12530074,0.07641154,-0.00252175,-0.00464833,0.00
 277909,0.00108160,-0.00075863,0.00023014,0.00096578,-0.00024869,0.0005
 7671,-0.00456125,0.00948032,0.01989819,-0.00112672,0.00099335,0.000802
 48,0.00050375,0.00011191,-0.00020979,-0.00029858,-0.00040063,-0.000622
 16,0.00027061,-0.00047866,-0.00070710,-0.00050648,0.00020523,0.0003474
 4,0.00011797,-0.00006773,-0.00001174,-0.00021766,-0.00006975,-0.000219
 56,-0.00003869,0.00001607,-0.00001598,0.00028289,0.00029757,-0.0002140
 0,0.00001225,0.00014111,0.00011691,-0.00043332,-0.00008756,0.00011584,
 0.00013598,0.00019789,0.00009480,-0.00000404,-0.00000597,-0.00004350,-
 0.00001309,-0.00001037,0.00000713,0.00001846,-0.00001415,-0.00000882,-
 0.16289548,0.04230071,0.09773231,0.01698845,0.01222858,0.00442755,0.15
 223930,-0.00380275,-0.00119779,0.00171048,0.00070666,0.00000657,0.0006
 6185,0.00019849,0.00013378,-0.00031780,-0.01097450,0.01156278,0.009194
 04,-0.00010751,0.00007555,0.00103898,-0.00013065,-0.00018396,0.0003203
 4,0.00143759,0.00028233,-0.00069457,-0.00043433,-0.00050689,-0.0000017
 8,0.00001679,-0.00010102,0.00009329,-0.00002746,0.00006035,-0.00005504
 ,0.00009689,0.00009794,0.00006114,0.00002949,0.00002267,0.00001438,-0.
 00058896,0.00000546,-0.00019775,0.00000188,0.00002716,-0.00019859,0.00
 059442,0.00034323,-0.00023213,-0.00015478,-0.00017934,-0.00011282,0.00
 001017,0.00001345,0.00003828,0.00002205,0.00001590,-0.00000168,0.00000
 934,0.00003887,0.00002340,0.04703207,-0.08353196,-0.04811634,0.0252473
 9,-0.03507090,-0.03257201,-0.05918229,0.10808586,0.00189545,0.00208496
 ,0.00173957,0.00119349,-0.00048524,0.00076381,-0.00031177,0.00000977,0
 .00023078,0.01463814,-0.00882553,-0.00048645,-0.00031512,0.00022392,-0
 .00072020,-0.00004671,-0.00051753,0.00047267,-0.00010747,0.00107467,-0
 .00072720,-0.00055591,-0.00080744,0.00025095,0.00009008,-0.00015878,-0
 .00036593,0.00009211,0.00000339,-0.00005623,0.00027952,0.00001006,0.00
 023544,0.00000599,0.00003878,0.00002705,0.00003048,0.00042939,-0.00030
 612,0.00031861,-0.00016016,-0.00010534,0.00112513,0.00065462,-0.000387
 94,-0.00035478,-0.00032545,-0.00024939,0.00001896,0.00001580,0.0000730
 4,0.00004094,0.00002845,-0.00000398,0.00001007,0.00007905,0.00004656,0
 .09993488,-0.04293041,-0.15614712,0.00709386,-0.01978664,0.00848047,-0
 .12507597,0.06934432,0.14723556\\0.00000114,-0.00000967,-0.00000235,0.
 00000024,-0.00000061,-0.00000449,-0.00000248,0.00000364,0.00000113,0.0
 0000205,0.00000429,0.00000229,-0.00000027,-0.00000297,-0.00000436,0.00
 000137,-0.00000308,-0.00000069,-0.00000416,0.00000064,-0.00000700,0.00
 000129,0.00000384,0.00000810,0.00000232,0.00000117,0.00000177,0.000003
 91,-0.00000358,0.00000446,-0.00000348,0.00000425,-0.00000166,-0.000000
 64,0.00000659,-0.00000262,0.00000898,-0.00000940,0.00000489,0.00000374
 ,-0.00000088,-0.00000010,-0.00000843,-0.00000239,0.00000128,0.00000103
 ,0.00000326,0.00000638,-0.00000255,0.00000422,0.00000305,0.00000065,0.
 00000169,0.00000263,-0.00000190,0.00000170,-0.00000103,-0.00000406,0.0
 0000308,-0.00000905,0.00000026,-0.00000455,0.00000030,0.00000099,-0.00
 000125,-0.00000294\\\@
 The archive entry for this job was punched.


 THE SCIENTIFIC THEORIST IS NOT TO BE ENVIED. FOR NATURE, OR MORE
 PRECISELY EXPERIMENT, IS AN INEXORABLE AND NOT VERY FRIENDLY JUDGE OF HIS
 WORK.  IT NEVER SAYS "YES" TO A THEORY. IN THE MOST FAVORABLE CASES
 IT SAYS "MAYBE", AND IN THE GREAT MAJORITY OF CASES SIMPLY "NO"...
 PROBABLY EVERY THEORY WILL SOME DAY EXPERIENCE ITS "NO" - MOST
 THEORIES, SOON AFTER CONCEPTION.  -- A.EINSTEIN, NOV 11, 1922.
 Job cpu time:       0 days  0 hours 23 minutes 14.6 seconds.
 Elapsed time:       0 days  0 hours  1 minutes 28.8 seconds.
 File lengths (MBytes):  RWF=     84 Int=      0 D2E=      0 Chk=      4 Scr=      1
 Normal termination of Gaussian 16 at Tue Jun 21 10:23:37 2022.
