Job Start Time: Tue Jun 21 11:23:57 MDT 2022
SLURM Job ID: 40894
SLURM Job Name: DATS_14_exo_iii_TZVP
 Entering Gaussian System, Link 0=/opt/apps/Gaussian/G16C/g16/g16
 Initial command:
 /opt/apps/Gaussian/G16C/g16/l1.exe "/tmp/Gau-2604783.inp" -scrdir="/tmp/"
 Entering Link 1 = /opt/apps/Gaussian/G16C/g16/l1.exe PID=   2604784.
  
 Copyright (c) 1988-2019, Gaussian, Inc.  All Rights Reserved.
  
 This is part of the Gaussian(R) 16 program.  It is based on
 the Gaussian(R) 09 system (copyright 2009, Gaussian, Inc.),
 the Gaussian(R) 03 system (copyright 2003, Gaussian, Inc.),
 the Gaussian(R) 98 system (copyright 1998, Gaussian, Inc.),
 the Gaussian(R) 94 system (copyright 1995, Gaussian, Inc.),
 the Gaussian 92(TM) system (copyright 1992, Gaussian, Inc.),
 the Gaussian 90(TM) system (copyright 1990, Gaussian, Inc.),
 the Gaussian 88(TM) system (copyright 1988, Gaussian, Inc.),
 the Gaussian 86(TM) system (copyright 1986, Carnegie Mellon
 University), and the Gaussian 82(TM) system (copyright 1983,
 Carnegie Mellon University). Gaussian is a federally registered
 trademark of Gaussian, Inc.
  
 This software contains proprietary and confidential information,
 including trade secrets, belonging to Gaussian, Inc.
  
 This software is provided under written license and may be
 used, copied, transmitted, or stored only in accord with that
 written license.
  
 The following legend is applicable only to US Government
 contracts under FAR:
  
                    RESTRICTED RIGHTS LEGEND
  
 Use, reproduction and disclosure by the US Government is
 subject to restrictions as set forth in subparagraphs (a)
 and (c) of the Commercial Computer Software - Restricted
 Rights clause in FAR 52.227-19.
  
 Gaussian, Inc.
 340 Quinnipiac St., Bldg. 40, Wallingford CT 06492
  
  
 ---------------------------------------------------------------
 Warning -- This program may not be used in any manner that
 competes with the business of Gaussian, Inc. or will provide
 assistance to any competitor of Gaussian, Inc.  The licensee
 of this program is prohibited from giving any competitor of
 Gaussian, Inc. access to this program.  By using this program,
 the user acknowledges that Gaussian, Inc. is engaged in the
 business of creating and licensing software in the field of
 computational chemistry and represents and warrants to the
 licensee that it is not a competitor of Gaussian, Inc. and that
 it will not use this program in any manner prohibited above.
 ---------------------------------------------------------------
  

 Cite this work as:
 Gaussian 16, Revision C.01,
 M. J. Frisch, G. W. Trucks, H. B. Schlegel, G. E. Scuseria, 
 M. A. Robb, J. R. Cheeseman, G. Scalmani, V. Barone, 
 G. A. Petersson, H. Nakatsuji, X. Li, M. Caricato, A. V. Marenich, 
 J. Bloino, B. G. Janesko, R. Gomperts, B. Mennucci, H. P. Hratchian, 
 J. V. Ortiz, A. F. Izmaylov, J. L. Sonnenberg, D. Williams-Young, 
 F. Ding, F. Lipparini, F. Egidi, J. Goings, B. Peng, A. Petrone, 
 T. Henderson, D. Ranasinghe, V. G. Zakrzewski, J. Gao, N. Rega, 
 G. Zheng, W. Liang, M. Hada, M. Ehara, K. Toyota, R. Fukuda, 
 J. Hasegawa, M. Ishida, T. Nakajima, Y. Honda, O. Kitao, H. Nakai, 
 T. Vreven, K. Throssell, J. A. Montgomery, Jr., J. E. Peralta, 
 F. Ogliaro, M. J. Bearpark, J. J. Heyd, E. N. Brothers, K. N. Kudin, 
 V. N. Staroverov, T. A. Keith, R. Kobayashi, J. Normand, 
 K. Raghavachari, A. P. Rendell, J. C. Burant, S. S. Iyengar, 
 J. Tomasi, M. Cossi, J. M. Millam, M. Klene, C. Adamo, R. Cammi, 
 J. W. Ochterski, R. L. Martin, K. Morokuma, O. Farkas, 
 J. B. Foresman, and D. J. Fox, Gaussian, Inc., Wallingford CT, 2019.
 
 ******************************************
 Gaussian 16:  AS64L-G16RevC.01  3-Jul-2019
                21-Jun-2022 
 ******************************************
 %chk=DATS_14_exo_iii_TZVP.chk
 %mem=48GB
 %nprocshared=16
 Will use up to   16 processors via shared memory.
 ----------------
 # M062X/def2tzvp
 ----------------
 1/38=1,172=1/1;
 2/12=2,17=6,18=5,40=1/2;
 3/5=44,7=101,11=2,25=1,30=1,74=-55/1,2,3;
 4//1;
 5/5=2,38=5/2;
 6/7=2,8=2,9=2,10=2,28=1/1;
 99/5=1,9=1/99;
 -------------------------------------------
 DATS_14_exo_iii_TZVPcreated by GaussianPrep
 -------------------------------------------
 Symbolic Z-matrix:
 Charge =  0 Multiplicity = 1
 C                    -0.81251  -1.49055  -0.53519 
 C                     0.68805  -1.22175   0.98202 
 C                    -0.50035   1.35458   0.7242 
 C                    -1.55453  -0.34058  -0.74282 
 H                    -0.08714  -1.81057  -1.27496 
 H                    -1.25961  -2.29647   0.04384 
 H                    -1.34071   0.33618  -1.56232 
 C                     1.39999  -0.1409    0.49956 
 C                     0.79267   1.13609   0.35151 
 H                     1.18972  -2.18369   1.01237 
 H                    -1.00932   2.27628   0.46156 
 H                     1.2856    1.88519  -0.25906 
 H                    -0.08353  -1.06226   1.72253 
 H                    -0.99023   0.75469   1.48102 
 O                     2.61028  -0.43707  -0.04658 
 C                     3.31305   0.57574  -0.73476 
 H                     3.50987   1.43793  -0.08724 
 H                     4.26021   0.12872  -1.03592 
 H                     2.77071   0.90898  -1.62758 
 C                    -2.83238  -0.16354  -0.05817 
 O                    -3.63196   0.72505  -0.26802 
 H                    -3.03619  -0.9334    0.72443 
 
                          Input orientation:                          
 ---------------------------------------------------------------------
 Center     Atomic      Atomic             Coordinates (Angstroms)
 Number     Number       Type             X           Y           Z
 ---------------------------------------------------------------------
      1          6           0       -0.812507   -1.490551   -0.535187
      2          6           0        0.688053   -1.221747    0.982020
      3          6           0       -0.500346    1.354575    0.724203
      4          6           0       -1.554528   -0.340578   -0.742816
      5          1           0       -0.087138   -1.810566   -1.274961
      6          1           0       -1.259606   -2.296474    0.043839
      7          1           0       -1.340707    0.336180   -1.562318
      8          6           0        1.399987   -0.140900    0.499560
      9          6           0        0.792672    1.136092    0.351506
     10          1           0        1.189717   -2.183685    1.012368
     11          1           0       -1.009316    2.276276    0.461563
     12          1           0        1.285604    1.885185   -0.259064
     13          1           0       -0.083525   -1.062257    1.722528
     14          1           0       -0.990233    0.754694    1.481016
     15          8           0        2.610277   -0.437065   -0.046583
     16          6           0        3.313052    0.575740   -0.734758
     17          1           0        3.509870    1.437928   -0.087244
     18          1           0        4.260212    0.128715   -1.035919
     19          1           0        2.770711    0.908983   -1.627584
     20          6           0       -2.832378   -0.163540   -0.058167
     21          8           0       -3.631955    0.725048   -0.268020
     22          1           0       -3.036193   -0.933396    0.724431
 ---------------------------------------------------------------------
                    Distance matrix (angstroms):
                    1          2          3          4          5
     1  C    0.000000
     2  C    2.150780   0.000000
     3  C    3.127019   2.848894   0.000000
     4  C    1.384248   2.963222   2.477295   0.000000
     5  H    1.084359   2.457965   3.766366   2.144126   0.000000
     6  H    1.088430   2.414249   3.790716   2.128693   1.830306
     7  H    2.161236   3.607861   2.640362   1.084115   2.502504
     8  C    2.790589   1.381249   2.428616   3.211313   2.854514
     9  C    3.203448   2.442928   1.363280   2.981181   3.478829
    10  H    2.623788   1.085317   3.931747   3.742806   2.646025
    11  H    3.901439   3.922767   1.085156   2.931844   4.535218
    12  H    3.984207   3.398585   2.106651   3.640657   4.071246
    13  H    2.410835   1.081259   2.647918   2.960167   3.089485
    14  H    3.022877   2.640447   1.082872   2.542337   3.871892
    15  O    3.614418   2.317044   3.671520   4.223701   3.266721
    16  C    4.618401   3.615094   4.156580   4.953084   4.188982
    17  H    5.240189   4.022418   4.092338   5.407493   4.990175
    18  H    5.348386   4.319276   5.221463   5.841006   4.766278
    19  H    4.448657   3.960746   4.053303   4.588236   3.960756
    20  C    2.463409   3.820370   2.890527   1.460475   3.424854
    21  O    3.595768   4.900518   3.344815   2.382581   4.473142
    22  H    2.615691   3.744263   3.415455   2.167851   3.669322
                    6          7          8          9         10
     6  H    0.000000
     7  H    3.084993   0.000000
     8  C    3.453638   3.462708   0.000000
     9  C    4.011111   2.975548   1.421781   0.000000
    10  H    2.636276   4.402474   2.116638   3.408123   0.000000
    11  H    4.598606   2.823099   3.413052   2.135250   5.003038
    12  H    4.904703   3.315931   2.166475   1.084859   4.263970
    13  H    2.392583   3.785016   2.131984   2.734988   1.839313
    14  H    3.383440   3.091904   2.734684   2.144763   3.688615
    15  O    4.294365   4.301818   1.360437   2.436593   2.487981
    16  C    5.455733   4.732834   2.386825   2.801121   3.895565
    17  H    6.058947   5.188236   2.699749   2.768894   4.439407
    18  H    6.125015   5.629425   3.257495   3.868280   4.355527
    19  H    5.414062   4.151641   2.739686   2.807314   4.362738
    20  C    2.652060   2.176528   4.269015   3.872707   4.626476
    21  O    3.854204   2.660121   5.163282   4.486657   5.774828
    22  H    2.340395   3.117004   4.512018   4.368302   4.416384
                   11         12         13         14         15
    11  H    0.000000
    12  H    2.436989   0.000000
    13  H    3.686858   3.806394   0.000000
    14  H    1.831628   3.079825   2.044935   0.000000
    15  O    4.552130   2.681931   3.282863   4.088706   0.000000
    16  C    4.796444   2.459975   4.500891   4.843546   1.411826
    17  H    4.628937   2.275285   4.736949   4.814268   2.080029
    18  H    5.884080   3.540760   5.281619   5.856107   2.005288
    19  H    4.530191   2.243069   4.822416   4.881793   2.082582
    20  C    3.089721   4.603847   3.396286   2.570163   5.449536
    21  O    3.133183   5.052562   4.443883   3.168391   6.353346
    22  H    3.805171   5.252579   3.119463   2.758264   5.720440
                   16         17         18         19         20
    16  C    0.000000
    17  H    1.096075   0.000000
    18  H    1.089790   1.782424   0.000000
    19  H    1.096505   1.788515   1.782554   0.000000
    20  C    6.226606   6.541380   7.165629   5.916754   0.000000
    21  O    6.962274   7.179592   7.951829   6.548006   1.213652
    22  H    6.687274   7.009489   7.580530   6.530426   1.116548
                   21         22
    21  O    0.000000
    22  H    2.022456   0.000000
 Stoichiometry    C8H12O2
 Framework group  C1[X(C8H12O2)]
 Deg. of freedom    60
 Full point group                 C1      NOp   1
 Largest Abelian subgroup         C1      NOp   1
 Largest concise Abelian subgroup C1      NOp   1
                         Standard orientation:                         
 ---------------------------------------------------------------------
 Center     Atomic      Atomic             Coordinates (Angstroms)
 Number     Number       Type             X           Y           Z
 ---------------------------------------------------------------------
      1          6           0        0.812507    1.490551   -0.535187
      2          6           0       -0.688053    1.221747    0.982020
      3          6           0        0.500346   -1.354575    0.724203
      4          6           0        1.554528    0.340578   -0.742816
      5          1           0        0.087138    1.810566   -1.274961
      6          1           0        1.259606    2.296474    0.043839
      7          1           0        1.340707   -0.336180   -1.562318
      8          6           0       -1.399987    0.140900    0.499560
      9          6           0       -0.792672   -1.136092    0.351506
     10          1           0       -1.189717    2.183685    1.012368
     11          1           0        1.009316   -2.276276    0.461563
     12          1           0       -1.285604   -1.885185   -0.259064
     13          1           0        0.083525    1.062257    1.722528
     14          1           0        0.990233   -0.754694    1.481016
     15          8           0       -2.610277    0.437065   -0.046583
     16          6           0       -3.313052   -0.575740   -0.734758
     17          1           0       -3.509870   -1.437928   -0.087244
     18          1           0       -4.260212   -0.128715   -1.035919
     19          1           0       -2.770711   -0.908983   -1.627584
     20          6           0        2.832378    0.163540   -0.058167
     21          8           0        3.631955   -0.725048   -0.268020
     22          1           0        3.036193    0.933396    0.724431
 ---------------------------------------------------------------------
 Rotational constants (GHZ):           2.7771134           0.6868886           0.6251969
 Standard basis: def2TZVP (5D, 7F)
 There are   432 symmetry adapted cartesian basis functions of A   symmetry.
 There are   382 symmetry adapted basis functions of A   symmetry.
   382 basis functions,   606 primitive gaussians,   432 cartesian basis functions
    38 alpha electrons       38 beta electrons
       nuclear repulsion energy       518.6936116206 Hartrees.
 NAtoms=   22 NActive=   22 NUniq=   22 SFac= 1.00D+00 NAtFMM=   60 NAOKFM=F Big=F
 Integral buffers will be    131072 words long.
 Raffenetti 2 integral format.
 Two-electron integral symmetry is turned on.
 One-electron integrals computed using PRISM.
   1 Symmetry operations used in ECPInt.
 ECPInt:  NShTT=   12561 NPrTT=   37384 LenC2=   12019 LenP2D=   27868.
 LDataN:  DoStor=T MaxTD1= 6 Len=  172
 NBasis=   382 RedAO= T EigKep=  5.96D-05  NBF=   382
 NBsUse=   382 1.00D-06 EigRej= -1.00D+00 NBFU=   382
 ExpMin= 9.52D-02 ExpMax= 2.70D+04 ExpMxC= 9.22D+02 IAcc=3 IRadAn=         5 AccDes= 0.00D+00
 Harris functional with IExCor= 1009 and IRadAn=       5 diagonalized for initial guess.
 HarFok:  IExCor= 1009 AccDes= 0.00D+00 IRadAn=         5 IDoV= 1 UseB2=F ITyADJ=14
 ICtDFT=  3500011 ScaDFX=  1.000000  1.000000  1.000000  1.000000
 FoFCou: FMM=F IPFlag=           0 FMFlag=      100000 FMFlg1=           0
         NFxFlg=           0 DoJE=T BraDBF=F KetDBF=T FulRan=T
         wScrn=  0.000000 ICntrl=       500 IOpCl=  0 I1Cent=   200000004 NGrid=           0
         NMat0=    1 NMatS0=      1 NMatT0=    0 NMatD0=    1 NMtDS0=    0 NMtDT0=    0
 Petite list used in FoFCou.
 Requested convergence on RMS density matrix=1.00D-08 within 128 cycles.
 Requested convergence on MAX density matrix=1.00D-06.
 Requested convergence on             energy=1.00D-06.
 No special actions if energy rises.
 Integral accuracy reduced to 1.0D-05 until final iterations.
 Initial convergence to 1.0D-05 achieved.  Increase integral accuracy.
 SCF Done:  E(RM062X) =  -462.367779830     A.U. after   17 cycles
            NFock= 17  Conv=0.15D-08     -V/T= 2.0051

 **********************************************************************

            Population analysis using the SCF Density.

 **********************************************************************

 Orbital symmetries:
       Occupied  (A) (A) (A) (A) (A) (A) (A) (A) (A) (A) (A) (A)
                 (A) (A) (A) (A) (A) (A) (A) (A) (A) (A) (A) (A)
                 (A) (A) (A) (A) (A) (A) (A) (A) (A) (A) (A) (A)
                 (A) (A)
       Virtual   (A) (A) (A) (A) (A) (A) (A) (A) (A) (A) (A) (A)
                 (A) (A) (A) (A) (A) (A) (A) (A) (A) (A) (A) (A)
                 (A) (A) (A) (A) (A) (A) (A) (A) (A) (A) (A) (A)
                 (A) (A) (A) (A) (A) (A) (A) (A) (A) (A) (A) (A)
                 (A) (A) (A) (A) (A) (A) (A) (A) (A) (A) (A) (A)
                 (A) (A) (A) (A) (A) (A) (A) (A) (A) (A) (A) (A)
                 (A) (A) (A) (A) (A) (A) (A) (A) (A) (A) (A) (A)
                 (A) (A) (A) (A) (A) (A) (A) (A) (A) (A) (A) (A)
                 (A) (A) (A) (A) (A) (A) (A) (A) (A) (A) (A) (A)
                 (A) (A) (A) (A) (A) (A) (A) (A) (A) (A) (A) (A)
                 (A) (A) (A) (A) (A) (A) (A) (A) (A) (A) (A) (A)
                 (A) (A) (A) (A) (A) (A) (A) (A) (A) (A) (A) (A)
                 (A) (A) (A) (A) (A) (A) (A) (A) (A) (A) (A) (A)
                 (A) (A) (A) (A) (A) (A) (A) (A) (A) (A) (A) (A)
                 (A) (A) (A) (A) (A) (A) (A) (A) (A) (A) (A) (A)
                 (A) (A) (A) (A) (A) (A) (A) (A) (A) (A) (A) (A)
                 (A) (A) (A) (A) (A) (A) (A) (A) (A) (A) (A) (A)
                 (A) (A) (A) (A) (A) (A) (A) (A) (A) (A) (A) (A)
                 (A) (A) (A) (A) (A) (A) (A) (A) (A) (A) (A) (A)
                 (A) (A) (A) (A) (A) (A) (A) (A) (A) (A) (A) (A)
                 (A) (A) (A) (A) (A) (A) (A) (A) (A) (A) (A) (A)
                 (A) (A) (A) (A) (A) (A) (A) (A) (A) (A) (A) (A)
                 (A) (A) (A) (A) (A) (A) (A) (A) (A) (A) (A) (A)
                 (A) (A) (A) (A) (A) (A) (A) (A) (A) (A) (A) (A)
                 (A) (A) (A) (A) (A) (A) (A) (A) (A) (A) (A) (A)
                 (A) (A) (A) (A) (A) (A) (A) (A) (A) (A) (A) (A)
                 (A) (A) (A) (A) (A) (A) (A) (A) (A) (A) (A) (A)
                 (A) (A) (A) (A) (A) (A) (A) (A) (A) (A) (A) (A)
                 (A) (A) (A) (A) (A) (A) (A) (A)
 The electronic state is 1-A.
 Alpha  occ. eigenvalues --  -19.67054 -19.60172 -10.61815 -10.61117 -10.60240
 Alpha  occ. eigenvalues --  -10.56565 -10.56423 -10.55444 -10.55312 -10.53937
 Alpha  occ. eigenvalues --   -1.20715  -1.14770  -0.93401  -0.87988  -0.85693
 Alpha  occ. eigenvalues --   -0.79146  -0.73277  -0.72256  -0.64320  -0.62972
 Alpha  occ. eigenvalues --   -0.60540  -0.57520  -0.56394  -0.53669  -0.53289
 Alpha  occ. eigenvalues --   -0.50514  -0.49208  -0.48510  -0.46933  -0.46618
 Alpha  occ. eigenvalues --   -0.45883  -0.44187  -0.44050  -0.41076  -0.38415
 Alpha  occ. eigenvalues --   -0.31912  -0.31634  -0.26380
 Alpha virt. eigenvalues --   -0.02842   0.00771   0.05923   0.06772   0.07127
 Alpha virt. eigenvalues --    0.09116   0.09988   0.10778   0.11692   0.13020
 Alpha virt. eigenvalues --    0.13184   0.13900   0.15050   0.15410   0.15456
 Alpha virt. eigenvalues --    0.16496   0.18842   0.20259   0.21325   0.22191
 Alpha virt. eigenvalues --    0.22613   0.23190   0.23821   0.24754   0.26564
 Alpha virt. eigenvalues --    0.27892   0.28421   0.29691   0.31346   0.31741
 Alpha virt. eigenvalues --    0.32847   0.32973   0.34845   0.35530   0.36031
 Alpha virt. eigenvalues --    0.36310   0.38708   0.38803   0.40678   0.41096
 Alpha virt. eigenvalues --    0.41915   0.42669   0.43400   0.44095   0.44995
 Alpha virt. eigenvalues --    0.45658   0.47072   0.47288   0.47472   0.47866
 Alpha virt. eigenvalues --    0.49285   0.49779   0.50770   0.51450   0.51942
 Alpha virt. eigenvalues --    0.53319   0.54688   0.55570   0.56859   0.56881
 Alpha virt. eigenvalues --    0.58753   0.59792   0.61191   0.61746   0.63454
 Alpha virt. eigenvalues --    0.65327   0.66357   0.66703   0.68184   0.69789
 Alpha virt. eigenvalues --    0.70563   0.71407   0.73003   0.75314   0.76880
 Alpha virt. eigenvalues --    0.77227   0.79736   0.82128   0.82959   0.84947
 Alpha virt. eigenvalues --    0.86956   0.89301   0.91252   0.91868   0.93994
 Alpha virt. eigenvalues --    0.94657   0.97295   0.97810   0.99651   1.00655
 Alpha virt. eigenvalues --    1.01454   1.02755   1.03838   1.06410   1.07510
 Alpha virt. eigenvalues --    1.08363   1.08988   1.11235   1.11647   1.13835
 Alpha virt. eigenvalues --    1.17925   1.19141   1.20041   1.21135   1.21572
 Alpha virt. eigenvalues --    1.24623   1.26056   1.27473   1.30017   1.31553
 Alpha virt. eigenvalues --    1.33955   1.36471   1.37323   1.39402   1.40749
 Alpha virt. eigenvalues --    1.44850   1.47106   1.48979   1.49715   1.50928
 Alpha virt. eigenvalues --    1.52350   1.53529   1.53888   1.55830   1.57371
 Alpha virt. eigenvalues --    1.57558   1.59123   1.59514   1.60995   1.62330
 Alpha virt. eigenvalues --    1.63119   1.64864   1.65897   1.67977   1.68458
 Alpha virt. eigenvalues --    1.69611   1.70104   1.71252   1.73142   1.74599
 Alpha virt. eigenvalues --    1.78603   1.80101   1.80963   1.82500   1.84416
 Alpha virt. eigenvalues --    1.86289   1.87103   1.89641   1.92156   1.94073
 Alpha virt. eigenvalues --    1.96043   1.96656   1.97983   2.00894   2.02330
 Alpha virt. eigenvalues --    2.03662   2.05224   2.06327   2.08675   2.10424
 Alpha virt. eigenvalues --    2.12355   2.14806   2.15732   2.17156   2.21221
 Alpha virt. eigenvalues --    2.24356   2.24955   2.27170   2.27691   2.28782
 Alpha virt. eigenvalues --    2.29630   2.31606   2.32773   2.34650   2.36811
 Alpha virt. eigenvalues --    2.37571   2.40519   2.40929   2.43151   2.45074
 Alpha virt. eigenvalues --    2.45441   2.46315   2.47044   2.50472   2.51041
 Alpha virt. eigenvalues --    2.52962   2.54720   2.55822   2.56887   2.57510
 Alpha virt. eigenvalues --    2.59540   2.60222   2.63065   2.64590   2.66192
 Alpha virt. eigenvalues --    2.67198   2.67925   2.69018   2.70133   2.71313
 Alpha virt. eigenvalues --    2.73570   2.74405   2.76143   2.78048   2.79030
 Alpha virt. eigenvalues --    2.81427   2.82281   2.83594   2.84537   2.87331
 Alpha virt. eigenvalues --    2.88728   2.91336   2.92217   2.94608   2.95200
 Alpha virt. eigenvalues --    2.96284   3.00140   3.00534   3.03236   3.04367
 Alpha virt. eigenvalues --    3.05272   3.06321   3.07484   3.10607   3.11350
 Alpha virt. eigenvalues --    3.12100   3.12809   3.15053   3.16401   3.17661
 Alpha virt. eigenvalues --    3.18545   3.20220   3.20465   3.21196   3.23136
 Alpha virt. eigenvalues --    3.23767   3.24291   3.26977   3.28653   3.29469
 Alpha virt. eigenvalues --    3.31313   3.31543   3.33332   3.34492   3.34848
 Alpha virt. eigenvalues --    3.36362   3.36647   3.37994   3.39624   3.41743
 Alpha virt. eigenvalues --    3.42541   3.44593   3.45048   3.46752   3.47626
 Alpha virt. eigenvalues --    3.49542   3.51043   3.51785   3.53863   3.54122
 Alpha virt. eigenvalues --    3.56402   3.57540   3.60032   3.61041   3.62334
 Alpha virt. eigenvalues --    3.66656   3.70320   3.70679   3.73947   3.76113
 Alpha virt. eigenvalues --    3.76790   3.81167   3.84815   3.88637   3.91156
 Alpha virt. eigenvalues --    3.94412   4.02041   4.02958   4.07787   4.09161
 Alpha virt. eigenvalues --    4.11008   4.11556   4.13568   4.14965   4.16887
 Alpha virt. eigenvalues --    4.20338   4.22848   4.25339   4.26488   4.28361
 Alpha virt. eigenvalues --    4.29374   4.31673   4.36102   4.42056   4.48025
 Alpha virt. eigenvalues --    4.51255   4.52639   4.54851   4.58054   4.65163
 Alpha virt. eigenvalues --    4.66893   4.70700   4.74876   4.79086   4.82402
 Alpha virt. eigenvalues --    4.83850   4.88704   4.91802   5.00683   5.10271
 Alpha virt. eigenvalues --    5.23342   5.25074   5.35453   5.46740   5.58690
 Alpha virt. eigenvalues --    5.68351   5.74576   5.88349   5.89768   6.09458
 Alpha virt. eigenvalues --    6.23229   6.33174   6.38179   6.42298   6.43514
 Alpha virt. eigenvalues --    6.48614   6.63081   6.74443   6.81538   6.84482
 Alpha virt. eigenvalues --    6.95704   7.06743   7.12656   7.31922  22.34965
 Alpha virt. eigenvalues --   22.44393  22.46710  22.58878  22.73386  22.80390
 Alpha virt. eigenvalues --   23.01063  23.11558  44.00556  44.34081
          Condensed to atoms (all electrons):
               1          2          3          4          5          6
     1  C    5.346505   0.057733  -0.020855   0.116288   0.414517   0.435581
     2  C    0.057733   5.445121  -0.051196  -0.020782  -0.044803  -0.043615
     3  C   -0.020855  -0.051196   5.189150   0.076104   0.003562   0.005452
     4  C    0.116288  -0.020782   0.076104   6.123114  -0.031098  -0.057295
     5  H    0.414517  -0.044803   0.003562  -0.031098   0.495741  -0.010253
     6  H    0.435581  -0.043615   0.005452  -0.057295  -0.010253   0.484125
     7  H   -0.014092  -0.001305  -0.006039   0.367660  -0.003620   0.002125
     8  C    0.001046   0.348150  -0.030502  -0.044690  -0.008728   0.002944
     9  C   -0.032836  -0.015836   0.354630  -0.051788  -0.002967   0.000627
    10  H   -0.010608   0.418844   0.000388   0.003346  -0.000397  -0.000245
    11  H    0.002950  -0.000171   0.423154  -0.014764  -0.000047  -0.000113
    12  H    0.000074   0.002817  -0.013979  -0.001153  -0.000013   0.000040
    13  H   -0.029664   0.440192  -0.007024  -0.016979   0.003714  -0.001857
    14  H   -0.007383   0.009985   0.445727  -0.020828  -0.000452   0.000439
    15  O   -0.005424  -0.078513   0.006252   0.003045   0.006575   0.000125
    16  C   -0.000234   0.003081  -0.002764   0.000495   0.000200   0.000043
    17  H   -0.000147  -0.000769   0.001347   0.000407   0.000162   0.000003
    18  H    0.000034  -0.000107   0.000177  -0.000030  -0.000025  -0.000000
    19  H    0.000720   0.001821  -0.002889  -0.001122  -0.000861  -0.000014
    20  C    0.053220  -0.007246  -0.008505   0.066131   0.001449  -0.001551
    21  O    0.009900   0.000274  -0.007297  -0.119583  -0.000289   0.000235
    22  H    0.064334  -0.006856  -0.000525  -0.250086  -0.000497  -0.001510
               7          8          9         10         11         12
     1  C   -0.014092   0.001046  -0.032836  -0.010608   0.002950   0.000074
     2  C   -0.001305   0.348150  -0.015836   0.418844  -0.000171   0.002817
     3  C   -0.006039  -0.030502   0.354630   0.000388   0.423154  -0.013979
     4  C    0.367660  -0.044690  -0.051788   0.003346  -0.014764  -0.001153
     5  H   -0.003620  -0.008728  -0.002967  -0.000397  -0.000047  -0.000013
     6  H    0.002125   0.002944   0.000627  -0.000245  -0.000113   0.000040
     7  H    0.473914   0.001579  -0.003913  -0.000100  -0.000363   0.000550
     8  C    0.001579   4.965710   0.311962  -0.049551   0.006507  -0.060179
     9  C   -0.003913   0.311962   5.328215   0.005921  -0.046238   0.427817
    10  H   -0.000100  -0.049551   0.005921   0.461867  -0.000011  -0.000099
    11  H   -0.000363   0.006507  -0.046238  -0.000011   0.462826  -0.004350
    12  H    0.000550  -0.060179   0.427817  -0.000099  -0.004350   0.494937
    13  H    0.000304  -0.066410   0.008859  -0.009203   0.000374   0.000361
    14  H    0.001959  -0.005620  -0.064249   0.000094  -0.013535   0.002347
    15  O   -0.000060   0.340905  -0.066474   0.006614  -0.000081  -0.004794
    16  C    0.000038  -0.077036  -0.006405   0.000400  -0.000005   0.003645
    17  H   -0.000014  -0.006334  -0.004719   0.000093  -0.000040  -0.004319
    18  H    0.000001   0.005373   0.000582  -0.000157  -0.000001   0.000177
    19  H    0.000081  -0.010343   0.007097   0.000064   0.000055  -0.001546
    20  C    0.000021   0.003342  -0.002340  -0.000197   0.003066   0.000014
    21  O    0.006439   0.000012   0.001868   0.000001   0.004144  -0.000016
    22  H    0.007303   0.000693  -0.000781  -0.000007   0.001164  -0.000008
              13         14         15         16         17         18
     1  C   -0.029664  -0.007383  -0.005424  -0.000234  -0.000147   0.000034
     2  C    0.440192   0.009985  -0.078513   0.003081  -0.000769  -0.000107
     3  C   -0.007024   0.445727   0.006252  -0.002764   0.001347   0.000177
     4  C   -0.016979  -0.020828   0.003045   0.000495   0.000407  -0.000030
     5  H    0.003714  -0.000452   0.006575   0.000200   0.000162  -0.000025
     6  H   -0.001857   0.000439   0.000125   0.000043   0.000003  -0.000000
     7  H    0.000304   0.001959  -0.000060   0.000038  -0.000014   0.000001
     8  C   -0.066410  -0.005620   0.340905  -0.077036  -0.006334   0.005373
     9  C    0.008859  -0.064249  -0.066474  -0.006405  -0.004719   0.000582
    10  H   -0.009203   0.000094   0.006614   0.000400   0.000093  -0.000157
    11  H    0.000374  -0.013535  -0.000081  -0.000005  -0.000040  -0.000001
    12  H    0.000361   0.002347  -0.004794   0.003645  -0.004319   0.000177
    13  H    0.478700  -0.001054   0.002299  -0.000430   0.000115   0.000015
    14  H   -0.001054   0.491326  -0.000053   0.000044  -0.000074   0.000002
    15  O    0.002299  -0.000053   7.949664   0.228512  -0.039074  -0.031331
    16  C   -0.000430   0.000044   0.228512   4.918414   0.421180   0.401420
    17  H    0.000115  -0.000074  -0.039074   0.421180   0.553590  -0.019888
    18  H    0.000015   0.000002  -0.031331   0.401420  -0.019888   0.505925
    19  H   -0.000104   0.000044  -0.041726   0.413446  -0.057883  -0.018851
    20  C    0.004538  -0.003873   0.000012   0.000000  -0.000002   0.000000
    21  O   -0.000061   0.000171  -0.000000   0.000000  -0.000000   0.000000
    22  H    0.002261   0.000080   0.000004   0.000001   0.000000  -0.000000
              19         20         21         22
     1  C    0.000720   0.053220   0.009900   0.064334
     2  C    0.001821  -0.007246   0.000274  -0.006856
     3  C   -0.002889  -0.008505  -0.007297  -0.000525
     4  C   -0.001122   0.066131  -0.119583  -0.250086
     5  H   -0.000861   0.001449  -0.000289  -0.000497
     6  H   -0.000014  -0.001551   0.000235  -0.001510
     7  H    0.000081   0.000021   0.006439   0.007303
     8  C   -0.010343   0.003342   0.000012   0.000693
     9  C    0.007097  -0.002340   0.001868  -0.000781
    10  H    0.000064  -0.000197   0.000001  -0.000007
    11  H    0.000055   0.003066   0.004144   0.001164
    12  H   -0.001546   0.000014  -0.000016  -0.000008
    13  H   -0.000104   0.004538  -0.000061   0.002261
    14  H    0.000044  -0.003873   0.000171   0.000080
    15  O   -0.041726   0.000012  -0.000000   0.000004
    16  C    0.413446   0.000000   0.000000   0.000001
    17  H   -0.057883  -0.000002  -0.000000   0.000000
    18  H   -0.018851   0.000000   0.000000  -0.000000
    19  H    0.561646  -0.000001   0.000000   0.000000
    20  C   -0.000001   4.700952   0.636120   0.495183
    21  O    0.000000   0.636120   7.855092  -0.067037
    22  H    0.000000   0.495183  -0.067037   0.674213
 Mulliken charges:
               1
     1  C   -0.381658
     2  C   -0.456817
     3  C   -0.354368
     4  C   -0.126390
     5  H    0.178132
     6  H    0.184713
     7  H    0.167530
     8  C    0.371171
     9  C   -0.149031
    10  H    0.172946
    11  H    0.175477
    12  H    0.157679
    13  H    0.191056
    14  H    0.164904
    15  O   -0.276474
    16  C   -0.304045
    17  H    0.156365
    18  H    0.156682
    19  H    0.150366
    20  C    0.059666
    21  O   -0.319975
    22  H    0.082070
 Sum of Mulliken charges =  -0.00000
 Mulliken charges with hydrogens summed into heavy atoms:
               1
     1  C   -0.018813
     2  C   -0.092816
     3  C   -0.013986
     4  C    0.041140
     8  C    0.371171
     9  C    0.008648
    15  O   -0.276474
    16  C    0.159368
    20  C    0.141736
    21  O   -0.319975
 Electronic spatial extent (au):  <R**2>=           1859.5095
 Charge=             -0.0000 electrons
 Dipole moment (field-independent basis, Debye):
    X=             -4.4006    Y=              0.7489    Z=              0.0199  Tot=              4.4639
 Quadrupole moment (field-independent basis, Debye-Ang):
   XX=            -74.3744   YY=            -58.4700   ZZ=            -60.7072
   XY=              8.9016   XZ=              6.9007   YZ=              1.8862
 Traceless Quadrupole moment (field-independent basis, Debye-Ang):
   XX=             -9.8572   YY=              6.0472   ZZ=              3.8100
   XY=              8.9016   XZ=              6.9007   YZ=              1.8862
 Octapole moment (field-independent basis, Debye-Ang**2):
  XXX=            -97.0615  YYY=              1.1428  ZZZ=             -4.6336  XYY=             -4.2061
  XXY=             11.3001  XXZ=             -1.8962  XZZ=             -0.7727  YZZ=              0.9762
  YYZ=             -0.0790  XYZ=             -2.1331
 Hexadecapole moment (field-independent basis, Debye-Ang**3):
 XXXX=          -1952.1316 YYYY=           -415.0057 ZZZZ=           -236.7095 XXXY=            104.7619
 XXXZ=             69.3743 YYYX=            -14.3374 YYYZ=             11.1330 ZZZX=             13.2911
 ZZZY=              7.6559 XXYY=           -375.6703 XXZZ=           -329.5563 YYZZ=           -115.8346
 XXYZ=              1.2239 YYXZ=              7.1752 ZZXY=             -5.8213
 N-N= 5.186936116206D+02 E-N=-2.115004426531D+03  KE= 4.600419945563D+02
 Unable to Open any file for archive entry.
 1\1\GINC-NODE09\SP\RM062X\def2TZVP\C8H12O2\RPATON\21-Jun-2022\0\\# M06
 2X/def2tzvp\\DATS_14_exo_iii_TZVPcreated by GaussianPrep\\0,1\C,0,-0.8
 12507,-1.490551,-0.535187\C,0,0.688053,-1.221747,0.98202\C,0,-0.500346
 ,1.354575,0.724203\C,0,-1.554528,-0.340578,-0.742816\H,0,-0.087138,-1.
 810566,-1.274961\H,0,-1.259606,-2.296474,0.043839\H,0,-1.340707,0.3361
 8,-1.562318\C,0,1.399987,-0.1409,0.49956\C,0,0.792672,1.136092,0.35150
 6\H,0,1.189717,-2.183685,1.012368\H,0,-1.009316,2.276276,0.461563\H,0,
 1.285604,1.885185,-0.259064\H,0,-0.083525,-1.062257,1.722528\H,0,-0.99
 0233,0.754694,1.481016\O,0,2.610277,-0.437065,-0.046583\C,0,3.313052,0
 .57574,-0.734758\H,0,3.50987,1.437928,-0.087244\H,0,4.260212,0.128715,
 -1.035919\H,0,2.770711,0.908983,-1.627584\C,0,-2.832378,-0.16354,-0.05
 8167\O,0,-3.631955,0.725048,-0.26802\H,0,-3.036193,-0.933396,0.724431\
 \Version=AS64L-G16RevC.01\State=1-A\HF=-462.3677798\RMSD=1.520e-09\Dip
 ole=1.7313169,-0.2946234,0.00784\Quadrupole=-7.3286001,4.4959616,2.832
 6385,6.6181222,-5.130488,-1.4023422\PG=C01 [X(C8H12O2)]\\@
 The archive entry for this job was punched.


 DESK:  A WASTEBASKET WITH DRAWERS.
 Job cpu time:       0 days  0 hours 16 minutes 22.8 seconds.
 Elapsed time:       0 days  0 hours  1 minutes  4.4 seconds.
 File lengths (MBytes):  RWF=     83 Int=      0 D2E=      0 Chk=     10 Scr=      1
 Normal termination of Gaussian 16 at Tue Jun 21 11:25:01 2022.
