Job Start Time: Tue Jun 21 11:22:46 MDT 2022
SLURM Job ID: 40886
SLURM Job Name: DATS_13_exo_iii_TZVP
 Entering Gaussian System, Link 0=/opt/apps/Gaussian/G16C/g16/g16
 Initial command:
 /opt/apps/Gaussian/G16C/g16/l1.exe "/tmp/Gau-3375723.inp" -scrdir="/tmp/"
 Entering Link 1 = /opt/apps/Gaussian/G16C/g16/l1.exe PID=   3375725.
  
 Copyright (c) 1988-2019, Gaussian, Inc.  All Rights Reserved.
  
 This is part of the Gaussian(R) 16 program.  It is based on
 the Gaussian(R) 09 system (copyright 2009, Gaussian, Inc.),
 the Gaussian(R) 03 system (copyright 2003, Gaussian, Inc.),
 the Gaussian(R) 98 system (copyright 1998, Gaussian, Inc.),
 the Gaussian(R) 94 system (copyright 1995, Gaussian, Inc.),
 the Gaussian 92(TM) system (copyright 1992, Gaussian, Inc.),
 the Gaussian 90(TM) system (copyright 1990, Gaussian, Inc.),
 the Gaussian 88(TM) system (copyright 1988, Gaussian, Inc.),
 the Gaussian 86(TM) system (copyright 1986, Carnegie Mellon
 University), and the Gaussian 82(TM) system (copyright 1983,
 Carnegie Mellon University). Gaussian is a federally registered
 trademark of Gaussian, Inc.
  
 This software contains proprietary and confidential information,
 including trade secrets, belonging to Gaussian, Inc.
  
 This software is provided under written license and may be
 used, copied, transmitted, or stored only in accord with that
 written license.
  
 The following legend is applicable only to US Government
 contracts under FAR:
  
                    RESTRICTED RIGHTS LEGEND
  
 Use, reproduction and disclosure by the US Government is
 subject to restrictions as set forth in subparagraphs (a)
 and (c) of the Commercial Computer Software - Restricted
 Rights clause in FAR 52.227-19.
  
 Gaussian, Inc.
 340 Quinnipiac St., Bldg. 40, Wallingford CT 06492
  
  
 ---------------------------------------------------------------
 Warning -- This program may not be used in any manner that
 competes with the business of Gaussian, Inc. or will provide
 assistance to any competitor of Gaussian, Inc.  The licensee
 of this program is prohibited from giving any competitor of
 Gaussian, Inc. access to this program.  By using this program,
 the user acknowledges that Gaussian, Inc. is engaged in the
 business of creating and licensing software in the field of
 computational chemistry and represents and warrants to the
 licensee that it is not a competitor of Gaussian, Inc. and that
 it will not use this program in any manner prohibited above.
 ---------------------------------------------------------------
  

 Cite this work as:
 Gaussian 16, Revision C.01,
 M. J. Frisch, G. W. Trucks, H. B. Schlegel, G. E. Scuseria, 
 M. A. Robb, J. R. Cheeseman, G. Scalmani, V. Barone, 
 G. A. Petersson, H. Nakatsuji, X. Li, M. Caricato, A. V. Marenich, 
 J. Bloino, B. G. Janesko, R. Gomperts, B. Mennucci, H. P. Hratchian, 
 J. V. Ortiz, A. F. Izmaylov, J. L. Sonnenberg, D. Williams-Young, 
 F. Ding, F. Lipparini, F. Egidi, J. Goings, B. Peng, A. Petrone, 
 T. Henderson, D. Ranasinghe, V. G. Zakrzewski, J. Gao, N. Rega, 
 G. Zheng, W. Liang, M. Hada, M. Ehara, K. Toyota, R. Fukuda, 
 J. Hasegawa, M. Ishida, T. Nakajima, Y. Honda, O. Kitao, H. Nakai, 
 T. Vreven, K. Throssell, J. A. Montgomery, Jr., J. E. Peralta, 
 F. Ogliaro, M. J. Bearpark, J. J. Heyd, E. N. Brothers, K. N. Kudin, 
 V. N. Staroverov, T. A. Keith, R. Kobayashi, J. Normand, 
 K. Raghavachari, A. P. Rendell, J. C. Burant, S. S. Iyengar, 
 J. Tomasi, M. Cossi, J. M. Millam, M. Klene, C. Adamo, R. Cammi, 
 J. W. Ochterski, R. L. Martin, K. Morokuma, O. Farkas, 
 J. B. Foresman, and D. J. Fox, Gaussian, Inc., Wallingford CT, 2019.
 
 ******************************************
 Gaussian 16:  AS64L-G16RevC.01  3-Jul-2019
                21-Jun-2022 
 ******************************************
 %chk=DATS_13_exo_iii_TZVP.chk
 %mem=48GB
 %nprocshared=16
 Will use up to   16 processors via shared memory.
 ----------------
 # M062X/def2tzvp
 ----------------
 1/38=1,172=1/1;
 2/12=2,17=6,18=5,40=1/2;
 3/5=44,7=101,11=2,25=1,30=1,74=-55/1,2,3;
 4//1;
 5/5=2,38=5/2;
 6/7=2,8=2,9=2,10=2,28=1/1;
 99/5=1,9=1/99;
 -------------------------------------------
 DATS_13_exo_iii_TZVPcreated by GaussianPrep
 -------------------------------------------
 Symbolic Z-matrix:
 Charge =  0 Multiplicity = 1
 C                    -1.21343   1.45408   0.86092 
 C                     0.33799   2.02529  -0.6106 
 C                    -0.06161  -0.76283  -0.97828 
 C                    -1.45372   0.09898   0.74349 
 H                    -0.63435   1.83723   1.69201 
 H                    -1.9232    2.15387   0.42433 
 H                    -1.00834  -0.61936   1.4234 
 C                     1.34234   1.11967  -0.35842 
 C                     1.1374   -0.27272  -0.52268 
 H                     0.5045    3.0762   -0.39356 
 H                    -0.25039  -1.83051  -0.95075 
 H                    -0.41535   1.83128  -1.36497 
 H                    -0.66805  -0.17668  -1.65484 
 C                    -2.63517  -0.35906  -0.00386 
 O                    -3.10054  -1.47524   0.03436 
 H                    -3.09764   0.42918  -0.64387 
 O                     2.01392  -1.20419  -0.04198 
 C                     3.14847  -0.75946   0.66542 
 H                     3.69482  -1.65859   0.95047 
 H                     3.79436  -0.1308    0.04033 
 H                     2.87146  -0.20369   1.57011 
 H                     2.21155   1.46365   0.19236 
 
                          Input orientation:                          
 ---------------------------------------------------------------------
 Center     Atomic      Atomic             Coordinates (Angstroms)
 Number     Number       Type             X           Y           Z
 ---------------------------------------------------------------------
      1          6           0       -1.213433    1.454079    0.860923
      2          6           0        0.337991    2.025288   -0.610598
      3          6           0       -0.061607   -0.762828   -0.978283
      4          6           0       -1.453720    0.098980    0.743487
      5          1           0       -0.634345    1.837234    1.692012
      6          1           0       -1.923199    2.153874    0.424333
      7          1           0       -1.008344   -0.619358    1.423404
      8          6           0        1.342336    1.119667   -0.358420
      9          6           0        1.137403   -0.272715   -0.522677
     10          1           0        0.504496    3.076204   -0.393556
     11          1           0       -0.250394   -1.830513   -0.950747
     12          1           0       -0.415347    1.831278   -1.364967
     13          1           0       -0.668050   -0.176684   -1.654842
     14          6           0       -2.635173   -0.359062   -0.003857
     15          8           0       -3.100541   -1.475241    0.034356
     16          1           0       -3.097639    0.429175   -0.643866
     17          8           0        2.013920   -1.204192   -0.041983
     18          6           0        3.148470   -0.759462    0.665421
     19          1           0        3.694821   -1.658593    0.950473
     20          1           0        3.794361   -0.130800    0.040328
     21          1           0        2.871457   -0.203689    1.570114
     22          1           0        2.211549    1.463651    0.192362
 ---------------------------------------------------------------------
                    Distance matrix (angstroms):
                    1          2          3          4          5
     1  C    0.000000
     2  C    2.213271   0.000000
     3  C    3.102267   2.840504   0.000000
     4  C    1.381239   2.958790   2.375960   0.000000
     5  H    1.082986   2.506554   3.770786   2.143036   0.000000
     6  H    1.088160   2.490100   3.733632   2.131868   1.835324
     7  H    2.158144   3.597768   2.585536   1.084738   2.499374
     8  C    2.851418   1.375664   2.428801   3.173946   2.937080
     9  C    3.228405   2.434668   1.373103   2.907791   3.534943
    10  H    2.675124   1.085935   3.924353   3.740500   2.679851
    11  H    3.872743   3.915239   1.084597   2.835730   4.536955
    12  H    2.394537   1.083619   2.646515   2.919701   3.064819
    13  H    3.047278   2.636521   1.081235   2.538750   3.906204
    14  C    2.461030   3.859140   2.781326   1.471107   3.420965
    15  O    3.581244   4.949058   3.281477   2.386013   4.449993
    16  H    2.620124   3.788435   3.278749   2.176292   3.675156
    17  O    4.277552   3.682608   2.319326   3.786786   4.389797
    18  C    4.895323   4.157144   3.606434   4.682218   4.701745
    19  H    5.812719   5.222665   4.316624   5.444206   5.613588
    20  H    5.316316   4.125399   4.038009   5.299961   5.120025
    21  H    4.465140   4.017747   3.925535   4.413851   4.058432
    22  H    3.489637   2.114332   3.390407   3.949717   3.238461
                    6          7          8          9         10
     6  H    0.000000
     7  H    3.086409   0.000000
     8  C    3.513688   3.424150   0.000000
     9  C    4.019011   2.917469   1.416935   0.000000
    10  H    2.722745   4.387164   2.128673   3.410645   0.000000
    11  H    4.534806   2.770916   3.404585   2.129779   4.995617
    12  H    2.362050   3.759292   2.146853   2.747230   1.827455
    13  H    3.365987   3.128475   2.720825   2.133232   3.680623
    14  C    2.646715   2.179771   4.258278   3.809063   4.670165
    15  O    3.835191   2.653164   5.160133   4.440329   5.821946
    16  H    2.344130   3.120606   4.502403   4.294522   4.477141
    17  O    5.195668   3.409321   2.439565   1.366381   4.552335
    18  C    5.853843   4.227679   2.800267   2.385978   4.777485
    19  H    6.809837   4.839776   3.868606   3.260554   5.865398
    20  H    6.169091   5.021709   2.781204   2.719658   4.614796
    21  H    5.464398   3.904761   2.794410   2.718728   4.496243
    22  H    4.198376   4.027667   1.084996   2.163339   2.420260
                   11         12         13         14         15
    11  H    0.000000
    12  H    3.688835   0.000000
    13  H    1.845355   2.044455   0.000000
    14  C    2.957861   3.402622   2.574604   0.000000
    15  O    3.036443   4.483463   3.233675   1.209910   0.000000
    16  H    3.647899   3.111361   2.700378   1.115708   2.021582
    17  O    2.518978   4.106787   3.293941   4.725438   5.122207
    18  C    3.912982   4.851309   4.504340   5.835990   6.321449
    19  H    4.382798   5.868044   5.293238   6.532102   6.859288
    20  H    4.497921   4.852447   4.773764   6.433736   7.024758
    21  H    4.329809   4.853748   4.788442   5.729267   6.296043
    22  H    4.268416   3.075875   3.794068   5.181843   6.072920
                   16         17         18         19         20
    16  H    0.000000
    17  O    5.399832   0.000000
    18  C    6.491608   1.409045   0.000000
    19  H    7.282733   2.004215   1.090042   0.000000
    20  H    6.948479   2.080605   1.096874   1.781130   0.000000
    21  H    6.397838   2.082122   1.097310   1.782871   1.788102
    22  H    5.473289   2.685398   2.458422   3.538818   2.251818
                   21         22
    21  H    0.000000
    22  H    2.261350   0.000000
 Stoichiometry    C8H12O2
 Framework group  C1[X(C8H12O2)]
 Deg. of freedom    60
 Full point group                 C1      NOp   1
 Largest Abelian subgroup         C1      NOp   1
 Largest concise Abelian subgroup C1      NOp   1
                         Standard orientation:                         
 ---------------------------------------------------------------------
 Center     Atomic      Atomic             Coordinates (Angstroms)
 Number     Number       Type             X           Y           Z
 ---------------------------------------------------------------------
      1          6           0       -1.213433    1.454079    0.860923
      2          6           0        0.337991    2.025288   -0.610598
      3          6           0       -0.061607   -0.762828   -0.978283
      4          6           0       -1.453720    0.098980    0.743487
      5          1           0       -0.634345    1.837234    1.692012
      6          1           0       -1.923199    2.153874    0.424333
      7          1           0       -1.008344   -0.619358    1.423404
      8          6           0        1.342336    1.119667   -0.358420
      9          6           0        1.137403   -0.272715   -0.522677
     10          1           0        0.504496    3.076204   -0.393556
     11          1           0       -0.250394   -1.830513   -0.950747
     12          1           0       -0.415347    1.831278   -1.364967
     13          1           0       -0.668050   -0.176684   -1.654842
     14          6           0       -2.635173   -0.359062   -0.003857
     15          8           0       -3.100541   -1.475241    0.034356
     16          1           0       -3.097639    0.429175   -0.643866
     17          8           0        2.013920   -1.204192   -0.041983
     18          6           0        3.148470   -0.759462    0.665421
     19          1           0        3.694821   -1.658593    0.950473
     20          1           0        3.794361   -0.130800    0.040328
     21          1           0        2.871457   -0.203689    1.570114
     22          1           0        2.211549    1.463651    0.192362
 ---------------------------------------------------------------------
 Rotational constants (GHZ):           2.0233434           0.8202624           0.6706417
 Standard basis: def2TZVP (5D, 7F)
 There are   432 symmetry adapted cartesian basis functions of A   symmetry.
 There are   382 symmetry adapted basis functions of A   symmetry.
   382 basis functions,   606 primitive gaussians,   432 cartesian basis functions
    38 alpha electrons       38 beta electrons
       nuclear repulsion energy       521.3654746977 Hartrees.
 NAtoms=   22 NActive=   22 NUniq=   22 SFac= 1.00D+00 NAtFMM=   60 NAOKFM=F Big=F
 Integral buffers will be    131072 words long.
 Raffenetti 2 integral format.
 Two-electron integral symmetry is turned on.
 One-electron integrals computed using PRISM.
   1 Symmetry operations used in ECPInt.
 ECPInt:  NShTT=   12561 NPrTT=   37384 LenC2=   12063 LenP2D=   27981.
 LDataN:  DoStor=T MaxTD1= 6 Len=  172
 NBasis=   382 RedAO= T EigKep=  5.49D-05  NBF=   382
 NBsUse=   382 1.00D-06 EigRej= -1.00D+00 NBFU=   382
 ExpMin= 9.52D-02 ExpMax= 2.70D+04 ExpMxC= 9.22D+02 IAcc=3 IRadAn=         5 AccDes= 0.00D+00
 Harris functional with IExCor= 1009 and IRadAn=       5 diagonalized for initial guess.
 HarFok:  IExCor= 1009 AccDes= 0.00D+00 IRadAn=         5 IDoV= 1 UseB2=F ITyADJ=14
 ICtDFT=  3500011 ScaDFX=  1.000000  1.000000  1.000000  1.000000
 FoFCou: FMM=F IPFlag=           0 FMFlag=      100000 FMFlg1=           0
         NFxFlg=           0 DoJE=T BraDBF=F KetDBF=T FulRan=T
         wScrn=  0.000000 ICntrl=       500 IOpCl=  0 I1Cent=   200000004 NGrid=           0
         NMat0=    1 NMatS0=      1 NMatT0=    0 NMatD0=    1 NMtDS0=    0 NMtDT0=    0
 Petite list used in FoFCou.
 Requested convergence on RMS density matrix=1.00D-08 within 128 cycles.
 Requested convergence on MAX density matrix=1.00D-06.
 Requested convergence on             energy=1.00D-06.
 No special actions if energy rises.
 Integral accuracy reduced to 1.0D-05 until final iterations.
 Initial convergence to 1.0D-05 achieved.  Increase integral accuracy.
 SCF Done:  E(RM062X) =  -462.364377230     A.U. after   16 cycles
            NFock= 16  Conv=0.60D-08     -V/T= 2.0051

 **********************************************************************

            Population analysis using the SCF Density.

 **********************************************************************

 Orbital symmetries:
       Occupied  (A) (A) (A) (A) (A) (A) (A) (A) (A) (A) (A) (A)
                 (A) (A) (A) (A) (A) (A) (A) (A) (A) (A) (A) (A)
                 (A) (A) (A) (A) (A) (A) (A) (A) (A) (A) (A) (A)
                 (A) (A)
       Virtual   (A) (A) (A) (A) (A) (A) (A) (A) (A) (A) (A) (A)
                 (A) (A) (A) (A) (A) (A) (A) (A) (A) (A) (A) (A)
                 (A) (A) (A) (A) (A) (A) (A) (A) (A) (A) (A) (A)
                 (A) (A) (A) (A) (A) (A) (A) (A) (A) (A) (A) (A)
                 (A) (A) (A) (A) (A) (A) (A) (A) (A) (A) (A) (A)
                 (A) (A) (A) (A) (A) (A) (A) (A) (A) (A) (A) (A)
                 (A) (A) (A) (A) (A) (A) (A) (A) (A) (A) (A) (A)
                 (A) (A) (A) (A) (A) (A) (A) (A) (A) (A) (A) (A)
                 (A) (A) (A) (A) (A) (A) (A) (A) (A) (A) (A) (A)
                 (A) (A) (A) (A) (A) (A) (A) (A) (A) (A) (A) (A)
                 (A) (A) (A) (A) (A) (A) (A) (A) (A) (A) (A) (A)
                 (A) (A) (A) (A) (A) (A) (A) (A) (A) (A) (A) (A)
                 (A) (A) (A) (A) (A) (A) (A) (A) (A) (A) (A) (A)
                 (A) (A) (A) (A) (A) (A) (A) (A) (A) (A) (A) (A)
                 (A) (A) (A) (A) (A) (A) (A) (A) (A) (A) (A) (A)
                 (A) (A) (A) (A) (A) (A) (A) (A) (A) (A) (A) (A)
                 (A) (A) (A) (A) (A) (A) (A) (A) (A) (A) (A) (A)
                 (A) (A) (A) (A) (A) (A) (A) (A) (A) (A) (A) (A)
                 (A) (A) (A) (A) (A) (A) (A) (A) (A) (A) (A) (A)
                 (A) (A) (A) (A) (A) (A) (A) (A) (A) (A) (A) (A)
                 (A) (A) (A) (A) (A) (A) (A) (A) (A) (A) (A) (A)
                 (A) (A) (A) (A) (A) (A) (A) (A) (A) (A) (A) (A)
                 (A) (A) (A) (A) (A) (A) (A) (A) (A) (A) (A) (A)
                 (A) (A) (A) (A) (A) (A) (A) (A) (A) (A) (A) (A)
                 (A) (A) (A) (A) (A) (A) (A) (A) (A) (A) (A) (A)
                 (A) (A) (A) (A) (A) (A) (A) (A) (A) (A) (A) (A)
                 (A) (A) (A) (A) (A) (A) (A) (A) (A) (A) (A) (A)
                 (A) (A) (A) (A) (A) (A) (A) (A) (A) (A) (A) (A)
                 (A) (A) (A) (A) (A) (A) (A) (A)
 The electronic state is 1-A.
 Alpha  occ. eigenvalues --  -19.65976 -19.61136 -10.61966 -10.60762 -10.59628
 Alpha  occ. eigenvalues --  -10.56642 -10.55867 -10.55480 -10.55249 -10.54908
 Alpha  occ. eigenvalues --   -1.19667  -1.15814  -0.93163  -0.88291  -0.85184
 Alpha  occ. eigenvalues --   -0.78428  -0.73526  -0.72168  -0.64805  -0.62537
 Alpha  occ. eigenvalues --   -0.60205  -0.56935  -0.55655  -0.54126  -0.53825
 Alpha  occ. eigenvalues --   -0.50517  -0.48786  -0.48130  -0.47667  -0.46962
 Alpha  occ. eigenvalues --   -0.45691  -0.44117  -0.43606  -0.40575  -0.38889
 Alpha  occ. eigenvalues --   -0.32447  -0.29438  -0.27950
 Alpha virt. eigenvalues --   -0.02904   0.00931   0.05667   0.06763   0.07171
 Alpha virt. eigenvalues --    0.08757   0.09973   0.11186   0.11918   0.13030
 Alpha virt. eigenvalues --    0.13319   0.13957   0.14358   0.15511   0.16414
 Alpha virt. eigenvalues --    0.16453   0.17892   0.20398   0.21297   0.22193
 Alpha virt. eigenvalues --    0.22712   0.23612   0.23827   0.25726   0.26436
 Alpha virt. eigenvalues --    0.27756   0.28799   0.29681   0.30104   0.32013
 Alpha virt. eigenvalues --    0.32722   0.33413   0.34705   0.35142   0.35890
 Alpha virt. eigenvalues --    0.36839   0.38640   0.39137   0.40659   0.41895
 Alpha virt. eigenvalues --    0.42859   0.43106   0.44027   0.44228   0.45090
 Alpha virt. eigenvalues --    0.45434   0.46997   0.47341   0.48109   0.48476
 Alpha virt. eigenvalues --    0.48565   0.49400   0.50667   0.51850   0.52501
 Alpha virt. eigenvalues --    0.53378   0.55135   0.55343   0.56944   0.58091
 Alpha virt. eigenvalues --    0.59271   0.59873   0.60443   0.61729   0.63400
 Alpha virt. eigenvalues --    0.64832   0.65768   0.67136   0.67598   0.68945
 Alpha virt. eigenvalues --    0.70643   0.71711   0.73322   0.73791   0.77034
 Alpha virt. eigenvalues --    0.79667   0.80602   0.82086   0.84306   0.84642
 Alpha virt. eigenvalues --    0.87182   0.89772   0.90304   0.92268   0.93330
 Alpha virt. eigenvalues --    0.95731   0.96600   0.98180   0.98792   0.99169
 Alpha virt. eigenvalues --    1.02591   1.02949   1.04578   1.05100   1.07219
 Alpha virt. eigenvalues --    1.08323   1.09845   1.11664   1.12302   1.14263
 Alpha virt. eigenvalues --    1.18277   1.18583   1.19465   1.21019   1.21840
 Alpha virt. eigenvalues --    1.24337   1.26362   1.27507   1.29502   1.30349
 Alpha virt. eigenvalues --    1.34871   1.35287   1.36687   1.40325   1.41946
 Alpha virt. eigenvalues --    1.44520   1.45894   1.49092   1.49512   1.50882
 Alpha virt. eigenvalues --    1.51848   1.52350   1.54374   1.55732   1.57004
 Alpha virt. eigenvalues --    1.58111   1.59029   1.59754   1.61246   1.62340
 Alpha virt. eigenvalues --    1.63563   1.64586   1.66765   1.67850   1.68634
 Alpha virt. eigenvalues --    1.69839   1.70963   1.71430   1.72293   1.76537
 Alpha virt. eigenvalues --    1.78198   1.79953   1.81724   1.82288   1.83836
 Alpha virt. eigenvalues --    1.86731   1.87595   1.90020   1.92954   1.95046
 Alpha virt. eigenvalues --    1.95235   1.98127   1.99364   2.01090   2.02136
 Alpha virt. eigenvalues --    2.02741   2.04165   2.07633   2.09073   2.09305
 Alpha virt. eigenvalues --    2.11586   2.14246   2.17015   2.19230   2.22322
 Alpha virt. eigenvalues --    2.22827   2.25391   2.26861   2.28190   2.28925
 Alpha virt. eigenvalues --    2.30908   2.31901   2.32436   2.34841   2.35742
 Alpha virt. eigenvalues --    2.37177   2.40702   2.41866   2.42539   2.44455
 Alpha virt. eigenvalues --    2.45775   2.47313   2.47786   2.50117   2.51538
 Alpha virt. eigenvalues --    2.53271   2.55377   2.56549   2.57896   2.58634
 Alpha virt. eigenvalues --    2.59944   2.61095   2.62335   2.62957   2.65288
 Alpha virt. eigenvalues --    2.67053   2.68312   2.69373   2.70474   2.72047
 Alpha virt. eigenvalues --    2.72513   2.73940   2.77367   2.77992   2.78499
 Alpha virt. eigenvalues --    2.80835   2.82655   2.83344   2.84695   2.86592
 Alpha virt. eigenvalues --    2.88822   2.90415   2.92141   2.93690   2.95101
 Alpha virt. eigenvalues --    2.96370   2.97351   3.00016   3.04106   3.04325
 Alpha virt. eigenvalues --    3.04807   3.07601   3.08080   3.08565   3.10839
 Alpha virt. eigenvalues --    3.11050   3.13193   3.15166   3.15778   3.16898
 Alpha virt. eigenvalues --    3.19420   3.20453   3.21661   3.22475   3.23423
 Alpha virt. eigenvalues --    3.24039   3.25186   3.27358   3.27765   3.30240
 Alpha virt. eigenvalues --    3.31064   3.32565   3.34048   3.34410   3.35265
 Alpha virt. eigenvalues --    3.37256   3.38305   3.39670   3.40012   3.41657
 Alpha virt. eigenvalues --    3.43912   3.44937   3.46048   3.47246   3.47373
 Alpha virt. eigenvalues --    3.49855   3.52140   3.52917   3.53687   3.54873
 Alpha virt. eigenvalues --    3.57141   3.57848   3.60059   3.60774   3.63973
 Alpha virt. eigenvalues --    3.67110   3.67262   3.71107   3.73731   3.77250
 Alpha virt. eigenvalues --    3.78046   3.81061   3.84162   3.89262   3.92660
 Alpha virt. eigenvalues --    3.92910   4.02077   4.03156   4.06138   4.08936
 Alpha virt. eigenvalues --    4.11572   4.12949   4.14476   4.15122   4.16485
 Alpha virt. eigenvalues --    4.19100   4.21943   4.23863   4.26571   4.28297
 Alpha virt. eigenvalues --    4.29876   4.31398   4.36421   4.41988   4.47793
 Alpha virt. eigenvalues --    4.51138   4.53551   4.55395   4.57432   4.64828
 Alpha virt. eigenvalues --    4.68397   4.70210   4.74261   4.79186   4.82338
 Alpha virt. eigenvalues --    4.83987   4.87994   4.91630   5.00672   5.09599
 Alpha virt. eigenvalues --    5.22555   5.24152   5.36523   5.47807   5.58278
 Alpha virt. eigenvalues --    5.68191   5.75818   5.89214   5.90078   6.09431
 Alpha virt. eigenvalues --    6.24035   6.33118   6.37561   6.42513   6.42957
 Alpha virt. eigenvalues --    6.47945   6.64015   6.75409   6.81253   6.85229
 Alpha virt. eigenvalues --    6.95033   7.06295   7.13656   7.32887  22.34940
 Alpha virt. eigenvalues --   22.43072  22.48150  22.56310  22.72862  22.81667
 Alpha virt. eigenvalues --   22.99225  23.12499  43.99978  44.35225
          Condensed to atoms (all electrons):
               1          2          3          4          5          6
     1  C    5.403283   0.053866  -0.055996   0.166938   0.414732   0.440136
     2  C    0.053866   5.234417  -0.050917   0.003462  -0.013550  -0.031897
     3  C   -0.055996  -0.050917   5.394161   0.117284   0.003236   0.005833
     4  C    0.166938   0.003462   0.117284   5.952204  -0.036054  -0.065349
     5  H    0.414732  -0.013550   0.003236  -0.036054   0.482460  -0.013523
     6  H    0.440136  -0.031897   0.005833  -0.065349  -0.013523   0.479027
     7  H   -0.008984   0.001061  -0.032141   0.366829  -0.005037   0.001505
     8  C   -0.073772   0.367264  -0.039630  -0.057962  -0.003455   0.000768
     9  C   -0.007146  -0.020892   0.342837   0.003812  -0.000210   0.000749
    10  H   -0.010278   0.420193   0.002813   0.002683  -0.002013   0.001342
    11  H    0.002697  -0.001545   0.418466  -0.016313  -0.000037  -0.000076
    12  H   -0.036570   0.448695   0.003256  -0.017214   0.003395  -0.004387
    13  H   -0.003244  -0.005485   0.441645  -0.026567  -0.000335   0.000318
    14  C    0.040741  -0.004640  -0.023131   0.080664   0.002335   0.000692
    15  O    0.009080   0.000141  -0.009203  -0.113018  -0.000327   0.000192
    16  H    0.052460  -0.004571  -0.003051  -0.230198  -0.000650  -0.000152
    17  O    0.002817   0.007280  -0.076405  -0.005179  -0.000250  -0.000008
    18  C    0.000913  -0.002384   0.001699  -0.000096  -0.000050  -0.000018
    19  H   -0.000026   0.000177   0.000001   0.000018   0.000001  -0.000000
    20  H    0.000496   0.000699  -0.000800  -0.000193  -0.000049   0.000000
    21  H   -0.001703  -0.002376   0.001871   0.001138   0.000307   0.000006
    22  H   -0.002145  -0.023619   0.001967   0.000006   0.001016  -0.000175
               7          8          9         10         11         12
     1  C   -0.008984  -0.073772  -0.007146  -0.010278   0.002697  -0.036570
     2  C    0.001061   0.367264  -0.020892   0.420193  -0.001545   0.448695
     3  C   -0.032141  -0.039630   0.342837   0.002813   0.418466   0.003256
     4  C    0.366829  -0.057962   0.003812   0.002683  -0.016313  -0.017214
     5  H   -0.005037  -0.003455  -0.000210  -0.002013  -0.000037   0.003395
     6  H    0.001505   0.000768   0.000749   0.001342  -0.000076  -0.004387
     7  H    0.480855  -0.002678  -0.006592  -0.000133   0.000750  -0.000101
     8  C   -0.002678   5.363190   0.296486  -0.044664   0.010186  -0.058271
     9  C   -0.006592   0.296486   4.983433   0.002937  -0.051858  -0.003672
    10  H   -0.000133  -0.044664   0.002937   0.486178  -0.000006  -0.016242
    11  H    0.000750   0.010186  -0.051858  -0.000006   0.443324   0.000268
    12  H   -0.000101  -0.058271  -0.003672  -0.016242   0.000268   0.500562
    13  H    0.002796   0.012333  -0.077477  -0.000017  -0.006488   0.000657
    14  C    0.001390   0.000329   0.003825  -0.000094   0.002621   0.003752
    15  O    0.006411   0.000021   0.001844   0.000002   0.003778  -0.000026
    16  H    0.007103  -0.000023  -0.000394   0.000012   0.001425   0.001599
    17  O    0.004993  -0.072188   0.345552  -0.000132   0.006555  -0.000047
    18  C    0.000225  -0.004446  -0.081592  -0.000087   0.000380   0.000021
    19  H   -0.000014   0.000263   0.005949  -0.000001  -0.000160   0.000002
    20  H    0.000145  -0.004069  -0.008840  -0.000049   0.000084  -0.000091
    21  H   -0.000973   0.009462  -0.010096   0.000104   0.000081   0.000066
    22  H    0.000050   0.435384  -0.057382  -0.004439  -0.000065   0.002597
              13         14         15         16         17         18
     1  C   -0.003244   0.040741   0.009080   0.052460   0.002817   0.000913
     2  C   -0.005485  -0.004640   0.000141  -0.004571   0.007280  -0.002384
     3  C    0.441645  -0.023131  -0.009203  -0.003051  -0.076405   0.001699
     4  C   -0.026567   0.080664  -0.113018  -0.230198  -0.005179  -0.000096
     5  H   -0.000335   0.002335  -0.000327  -0.000650  -0.000250  -0.000050
     6  H    0.000318   0.000692   0.000192  -0.000152  -0.000008  -0.000018
     7  H    0.002796   0.001390   0.006411   0.007103   0.004993   0.000225
     8  C    0.012333   0.000329   0.000021  -0.000023  -0.072188  -0.004446
     9  C   -0.077477   0.003825   0.001844  -0.000394   0.345552  -0.081592
    10  H   -0.000017  -0.000094   0.000002   0.000012  -0.000132  -0.000087
    11  H   -0.006488   0.002621   0.003778   0.001425   0.006555   0.000380
    12  H    0.000657   0.003752  -0.000026   0.001599  -0.000047   0.000021
    13  H    0.470336  -0.000962   0.000739   0.000970   0.002372  -0.000448
    14  C   -0.000962   4.691433   0.638285   0.487272   0.000045  -0.000003
    15  O    0.000739   0.638285   7.827848  -0.065688  -0.000003   0.000003
    16  H    0.000970   0.487272  -0.065688   0.667251  -0.000001  -0.000001
    17  O    0.002372   0.000045  -0.000003  -0.000001   7.952577   0.233271
    18  C   -0.000448  -0.000003   0.000003  -0.000001   0.233271   4.916464
    19  H    0.000016   0.000002  -0.000000  -0.000000  -0.031901   0.402497
    20  H    0.000110  -0.000001  -0.000000  -0.000000  -0.039284   0.422343
    21  H   -0.000121  -0.000020   0.000000   0.000000  -0.043806   0.410433
    22  H    0.000435   0.000031  -0.000001   0.000003  -0.005010   0.004323
              19         20         21         22
     1  C   -0.000026   0.000496  -0.001703  -0.002145
     2  C    0.000177   0.000699  -0.002376  -0.023619
     3  C    0.000001  -0.000800   0.001871   0.001967
     4  C    0.000018  -0.000193   0.001138   0.000006
     5  H    0.000001  -0.000049   0.000307   0.001016
     6  H   -0.000000   0.000000   0.000006  -0.000175
     7  H   -0.000014   0.000145  -0.000973   0.000050
     8  C    0.000263  -0.004069   0.009462   0.435384
     9  C    0.005949  -0.008840  -0.010096  -0.057382
    10  H   -0.000001  -0.000049   0.000104  -0.004439
    11  H   -0.000160   0.000084   0.000081  -0.000065
    12  H    0.000002  -0.000091   0.000066   0.002597
    13  H    0.000016   0.000110  -0.000121   0.000435
    14  C    0.000002  -0.000001  -0.000020   0.000031
    15  O   -0.000000  -0.000000   0.000000  -0.000001
    16  H   -0.000000  -0.000000   0.000000   0.000003
    17  O   -0.031901  -0.039284  -0.043806  -0.005010
    18  C    0.402497   0.422343   0.410433   0.004323
    19  H    0.506916  -0.020719  -0.018611   0.000140
    20  H   -0.020719   0.563599  -0.061018  -0.003879
    21  H   -0.018611  -0.061018   0.571807  -0.001892
    22  H    0.000140  -0.003879  -0.001892   0.495698
 Mulliken charges:
               1
     1  C   -0.388294
     2  C   -0.375381
     3  C   -0.443797
     4  C   -0.126895
     5  H    0.168059
     6  H    0.185017
     7  H    0.182540
     8  C   -0.134528
     9  C    0.338729
    10  H    0.161892
    11  H    0.185934
    12  H    0.171750
    13  H    0.188416
    14  C    0.075433
    15  O   -0.300079
    16  H    0.086635
    17  O   -0.281248
    18  C   -0.303448
    19  H    0.155450
    20  H    0.151516
    21  H    0.145342
    22  H    0.156957
 Sum of Mulliken charges =  -0.00000
 Mulliken charges with hydrogens summed into heavy atoms:
               1
     1  C   -0.035218
     2  C   -0.041739
     3  C   -0.069447
     4  C    0.055645
     8  C    0.022429
     9  C    0.338729
    14  C    0.162067
    15  O   -0.300079
    17  O   -0.281248
    18  C    0.148860
 Electronic spatial extent (au):  <R**2>=           1766.4882
 Charge=             -0.0000 electrons
 Dipole moment (field-independent basis, Debye):
    X=              3.3125    Y=              3.7200    Z=              0.6064  Tot=              5.0179
 Quadrupole moment (field-independent basis, Debye-Ang):
   XX=            -65.1847   YY=            -62.8784   ZZ=            -61.0051
   XY=             -7.8681   XZ=              5.4140   YZ=             -0.2645
 Traceless Quadrupole moment (field-independent basis, Debye-Ang):
   XX=             -2.1619   YY=              0.1443   ZZ=              2.0176
   XY=             -7.8681   XZ=              5.4140   YZ=             -0.2645
 Octapole moment (field-independent basis, Debye-Ang**2):
  XXX=             60.7579  YYY=              5.4113  ZZZ=              4.0312  XYY=             11.3001
  XXY=             21.8830  XXZ=              6.1957  XZZ=             -1.2357  YZZ=             -4.6514
  YYZ=              1.9865  XYZ=              0.1686
 Hexadecapole moment (field-independent basis, Debye-Ang**3):
 XXXX=          -1527.9368 YYYY=           -567.8480 ZZZZ=           -242.7387 XXXY=           -105.6504
 XXXZ=             36.2022 YYYX=            -18.8906 YYYZ=              3.2700 ZZZX=             16.0863
 ZZZY=             -0.2025 XXYY=           -384.7911 XXZZ=           -292.2820 YYZZ=           -139.3479
 XXYZ=            -11.2851 YYXZ=             12.2942 ZZXY=             -1.1720
 N-N= 5.213654746977D+02 E-N=-2.120391765555D+03  KE= 4.600384093613D+02
 Unable to Open any file for archive entry.
 1\1\GINC-NODE11\SP\RM062X\def2TZVP\C8H12O2\RPATON\21-Jun-2022\0\\# M06
 2X/def2tzvp\\DATS_13_exo_iii_TZVPcreated by GaussianPrep\\0,1\C,0,-1.2
 13433,1.454079,0.860923\C,0,0.337991,2.025288,-0.610598\C,0,-0.061607,
 -0.762828,-0.978283\C,0,-1.45372,0.09898,0.743487\H,0,-0.634345,1.8372
 34,1.692012\H,0,-1.923199,2.153874,0.424333\H,0,-1.008344,-0.619358,1.
 423404\C,0,1.342336,1.119667,-0.35842\C,0,1.137403,-0.272715,-0.522677
 \H,0,0.504496,3.076204,-0.393556\H,0,-0.250394,-1.830513,-0.950747\H,0
 ,-0.415347,1.831278,-1.364967\H,0,-0.66805,-0.176684,-1.654842\C,0,-2.
 635173,-0.359062,-0.003857\O,0,-3.100541,-1.475241,0.034356\H,0,-3.097
 639,0.429175,-0.643866\O,0,2.01392,-1.204192,-0.041983\C,0,3.14847,-0.
 759462,0.665421\H,0,3.694821,-1.658593,0.950473\H,0,3.794361,-0.1308,0
 .040328\H,0,2.871457,-0.203689,1.570114\H,0,2.211549,1.463651,0.192362
 \\Version=AS64L-G16RevC.01\State=1-A\HF=-462.3643772\RMSD=6.018e-09\Di
 pole=1.303229,1.4635777,0.2385699\Quadrupole=-1.6073461,0.107281,1.500
 065,-5.8497156,4.0251624,-0.1966277\PG=C01 [X(C8H12O2)]\\@
 The archive entry for this job was punched.


 KNOWLEDGE IS OF TWO KINDS:  WE KNOW A SUBJECT OURSELVES OR WE KNOW 
 WHERE WE CAN FIND INFORMATION UPON IT.

                                    -- SAMUEL JOHNSON
 Job cpu time:       0 days  0 hours 15 minutes 15.3 seconds.
 Elapsed time:       0 days  0 hours  1 minutes  0.1 seconds.
 File lengths (MBytes):  RWF=     83 Int=      0 D2E=      0 Chk=     10 Scr=      1
 Normal termination of Gaussian 16 at Tue Jun 21 11:23:46 2022.
