Job Start Time: Tue Jun 21 11:22:46 MDT 2022
SLURM Job ID: 40884
SLURM Job Name: DATS_13_endo_i_TZVP
 Entering Gaussian System, Link 0=/opt/apps/Gaussian/G16C/g16/g16
 Initial command:
 /opt/apps/Gaussian/G16C/g16/l1.exe "/tmp/Gau-3346069.inp" -scrdir="/tmp/"
 Entering Link 1 = /opt/apps/Gaussian/G16C/g16/l1.exe PID=   3346070.
  
 Copyright (c) 1988-2019, Gaussian, Inc.  All Rights Reserved.
  
 This is part of the Gaussian(R) 16 program.  It is based on
 the Gaussian(R) 09 system (copyright 2009, Gaussian, Inc.),
 the Gaussian(R) 03 system (copyright 2003, Gaussian, Inc.),
 the Gaussian(R) 98 system (copyright 1998, Gaussian, Inc.),
 the Gaussian(R) 94 system (copyright 1995, Gaussian, Inc.),
 the Gaussian 92(TM) system (copyright 1992, Gaussian, Inc.),
 the Gaussian 90(TM) system (copyright 1990, Gaussian, Inc.),
 the Gaussian 88(TM) system (copyright 1988, Gaussian, Inc.),
 the Gaussian 86(TM) system (copyright 1986, Carnegie Mellon
 University), and the Gaussian 82(TM) system (copyright 1983,
 Carnegie Mellon University). Gaussian is a federally registered
 trademark of Gaussian, Inc.
  
 This software contains proprietary and confidential information,
 including trade secrets, belonging to Gaussian, Inc.
  
 This software is provided under written license and may be
 used, copied, transmitted, or stored only in accord with that
 written license.
  
 The following legend is applicable only to US Government
 contracts under FAR:
  
                    RESTRICTED RIGHTS LEGEND
  
 Use, reproduction and disclosure by the US Government is
 subject to restrictions as set forth in subparagraphs (a)
 and (c) of the Commercial Computer Software - Restricted
 Rights clause in FAR 52.227-19.
  
 Gaussian, Inc.
 340 Quinnipiac St., Bldg. 40, Wallingford CT 06492
  
  
 ---------------------------------------------------------------
 Warning -- This program may not be used in any manner that
 competes with the business of Gaussian, Inc. or will provide
 assistance to any competitor of Gaussian, Inc.  The licensee
 of this program is prohibited from giving any competitor of
 Gaussian, Inc. access to this program.  By using this program,
 the user acknowledges that Gaussian, Inc. is engaged in the
 business of creating and licensing software in the field of
 computational chemistry and represents and warrants to the
 licensee that it is not a competitor of Gaussian, Inc. and that
 it will not use this program in any manner prohibited above.
 ---------------------------------------------------------------
  

 Cite this work as:
 Gaussian 16, Revision C.01,
 M. J. Frisch, G. W. Trucks, H. B. Schlegel, G. E. Scuseria, 
 M. A. Robb, J. R. Cheeseman, G. Scalmani, V. Barone, 
 G. A. Petersson, H. Nakatsuji, X. Li, M. Caricato, A. V. Marenich, 
 J. Bloino, B. G. Janesko, R. Gomperts, B. Mennucci, H. P. Hratchian, 
 J. V. Ortiz, A. F. Izmaylov, J. L. Sonnenberg, D. Williams-Young, 
 F. Ding, F. Lipparini, F. Egidi, J. Goings, B. Peng, A. Petrone, 
 T. Henderson, D. Ranasinghe, V. G. Zakrzewski, J. Gao, N. Rega, 
 G. Zheng, W. Liang, M. Hada, M. Ehara, K. Toyota, R. Fukuda, 
 J. Hasegawa, M. Ishida, T. Nakajima, Y. Honda, O. Kitao, H. Nakai, 
 T. Vreven, K. Throssell, J. A. Montgomery, Jr., J. E. Peralta, 
 F. Ogliaro, M. J. Bearpark, J. J. Heyd, E. N. Brothers, K. N. Kudin, 
 V. N. Staroverov, T. A. Keith, R. Kobayashi, J. Normand, 
 K. Raghavachari, A. P. Rendell, J. C. Burant, S. S. Iyengar, 
 J. Tomasi, M. Cossi, J. M. Millam, M. Klene, C. Adamo, R. Cammi, 
 J. W. Ochterski, R. L. Martin, K. Morokuma, O. Farkas, 
 J. B. Foresman, and D. J. Fox, Gaussian, Inc., Wallingford CT, 2019.
 
 ******************************************
 Gaussian 16:  AS64L-G16RevC.01  3-Jul-2019
                21-Jun-2022 
 ******************************************
 %chk=DATS_13_endo_i_TZVP.chk
 %mem=48GB
 %nprocshared=16
 Will use up to   16 processors via shared memory.
 ----------------
 # M062X/def2tzvp
 ----------------
 1/38=1,172=1/1;
 2/12=2,17=6,18=5,40=1/2;
 3/5=44,7=101,11=2,25=1,30=1,74=-55/1,2,3;
 4//1;
 5/5=2,38=5/2;
 6/7=2,8=2,9=2,10=2,28=1/1;
 99/5=1,9=1/99;
 ------------------------------------------
 DATS_13_endo_i_TZVPcreated by GaussianPrep
 ------------------------------------------
 Symbolic Z-matrix:
 Charge =  0 Multiplicity = 1
 C                     2.26548   0.13746  -0.52411 
 C                     0.9834    1.81401  -0.58097 
 C                    -0.03126   0.45573   1.70678 
 C                     1.83297  -0.71774   0.47285 
 H                     2.00462  -0.12762  -1.54272 
 H                     3.17978   0.70761  -0.38976 
 H                     2.32411  -0.79071   1.4372 
 C                    -0.29785   1.29935  -0.55517 
 C                    -0.80621   0.63722   0.5906 
 H                     1.33463   2.28856  -1.49232 
 H                    -0.40465  -0.17246   2.50849 
 H                     1.44021   2.19215   0.32691 
 H                     0.79591   1.11206   1.93222 
 C                     0.78653  -1.67591   0.13407 
 O                     0.19951  -1.65842  -0.93715 
 H                     0.51573  -2.41517   0.91253 
 O                    -1.99139  -0.03161   0.58131 
 C                    -2.65027  -0.22289  -0.65655 
 H                    -3.52141  -0.83912  -0.43298 
 H                    -2.99024   0.73065  -1.07919 
 H                    -2.00254  -0.74427  -1.36736 
 H                    -0.83789   1.2152   -1.49134 
 
                          Input orientation:                          
 ---------------------------------------------------------------------
 Center     Atomic      Atomic             Coordinates (Angstroms)
 Number     Number       Type             X           Y           Z
 ---------------------------------------------------------------------
      1          6           0        2.265477    0.137456   -0.524106
      2          6           0        0.983396    1.814014   -0.580965
      3          6           0       -0.031263    0.455733    1.706779
      4          6           0        1.832974   -0.717741    0.472848
      5          1           0        2.004618   -0.127621   -1.542723
      6          1           0        3.179780    0.707609   -0.389757
      7          1           0        2.324105   -0.790708    1.437200
      8          6           0       -0.297846    1.299345   -0.555166
      9          6           0       -0.806208    0.637220    0.590596
     10          1           0        1.334629    2.288555   -1.492316
     11          1           0       -0.404651   -0.172459    2.508494
     12          1           0        1.440207    2.192152    0.326908
     13          1           0        0.795912    1.112059    1.932223
     14          6           0        0.786533   -1.675910    0.134072
     15          8           0        0.199510   -1.658415   -0.937154
     16          1           0        0.515726   -2.415171    0.912534
     17          8           0       -1.991385   -0.031614    0.581308
     18          6           0       -2.650271   -0.222891   -0.656549
     19          1           0       -3.521413   -0.839121   -0.432977
     20          1           0       -2.990237    0.730652   -1.079185
     21          1           0       -2.002537   -0.744273   -1.367360
     22          1           0       -0.837892    1.215200   -1.491338
 ---------------------------------------------------------------------
                    Distance matrix (angstroms):
                    1          2          3          4          5
     1  C    0.000000
     2  C    2.111353   0.000000
     3  C    3.217633   2.847496   0.000000
     4  C    1.382873   2.870904   2.524878   0.000000
     5  H    1.084386   2.395375   3.878708   2.107185   0.000000
     6  H    1.085852   2.466738   3.843137   2.142334   1.846062
     7  H    2.170633   3.557396   2.678441   1.084670   3.069478
     8  C    2.814529   1.380989   2.428815   3.108994   2.883200
     9  C    3.305688   2.441328   1.370891   2.969018   3.610647
    10  H    2.535968   1.085870   3.931807   3.626022   2.507854
    11  H    4.052443   3.926513   1.084800   3.073785   4.713698
    12  H    2.372145   1.084388   2.661657   2.939905   3.032396
    13  H    3.023743   2.616105   1.079726   2.559969   3.882400
    14  C    2.430796   3.567857   2.772382   1.458731   2.587000
    15  O    2.768390   3.577585   3.393119   2.353971   2.443043
    16  H    3.411960   4.509463   3.028549   2.193111   3.671236
    17  O    4.401295   3.688705   2.312200   3.886934   4.526452
    18  C    4.930717   4.166321   3.592360   4.649720   4.739449
    19  H    5.869421   5.230137   4.293757   5.431824   5.681090
    20  H    5.318132   4.148693   4.073414   5.269726   5.089212
    21  H    4.438971   4.009868   3.843991   4.254200   4.058116
    22  H    3.424612   2.122368   3.384582   3.837683   3.144149
                    6          7          8          9         10
     6  H    0.000000
     7  H    2.512948   0.000000
     8  C    3.531486   3.900317   0.000000
     9  C    4.105380   3.543244   1.417608   0.000000
    10  H    2.668260   4.363827   2.126443   3.413006   0.000000
    11  H    4.692816   2.995999   3.400533   2.120179   5.008809
    12  H    2.396579   3.303253   2.143825   2.744763   1.824833
    13  H    3.352312   2.490169   2.723690   2.142947   3.660850
    14  C    3.418068   2.201330   3.240844   2.845313   4.320015
    15  O    3.844440   3.302178   3.023512   2.935205   4.144306
    16  H    4.306379   2.486843   4.075987   3.341892   5.345928
    17  O    5.313226   4.464552   2.435385   1.360908   4.554720
    18  C    5.909865   5.426842   2.803816   2.386573   4.783858
    19  H    6.877516   6.137588   3.870317   3.255706   5.872453
    20  H    6.208458   6.073628   2.801246   2.750796   4.615431
    21  H    5.469925   5.156311   2.782446   2.678305   4.511135
    22  H    4.196763   4.753759   1.084042   2.160906   2.423208
                   11         12         13         14         15
    11  H    0.000000
    12  H    3.708666   0.000000
    13  H    1.850250   2.039302   0.000000
    14  C    3.052403   3.927643   3.317560   0.000000
    15  O    3.800732   4.238402   4.032933   1.221649   0.000000
    16  H    2.902402   4.735509   3.682339   1.107179   2.023368
    17  O    2.500322   4.097033   3.301815   3.258920   3.122856
    18  C    3.881089   4.850941   4.512207   3.814180   3.203236
    19  H    4.337153   5.863763   5.295335   4.424947   3.843268
    20  H    4.513569   4.872567   4.852728   4.639776   3.987769
    21  H    4.231129   4.831731   4.707922   3.301690   2.422755
    22  H    4.255814   3.074116   3.794829   3.693133   3.104994
                   16         17         18         19         20
    16  H    0.000000
    17  O    3.475149   0.000000
    18  C    4.158323   1.415277   0.000000
    19  H    4.537932   2.005449   1.090235   0.000000
    20  H    5.114188   2.082304   1.097015   1.778741   0.000000
    21  H    3.785692   2.074925   1.093915   1.785792   1.798333
    22  H    4.559657   2.679730   2.459613   3.541419   2.244381
                   21         22
    21  H    0.000000
    22  H    2.282828   0.000000
 Stoichiometry    C8H12O2
 Framework group  C1[X(C8H12O2)]
 Deg. of freedom    60
 Full point group                 C1      NOp   1
 Largest Abelian subgroup         C1      NOp   1
 Largest concise Abelian subgroup C1      NOp   1
                         Standard orientation:                         
 ---------------------------------------------------------------------
 Center     Atomic      Atomic             Coordinates (Angstroms)
 Number     Number       Type             X           Y           Z
 ---------------------------------------------------------------------
      1          6           0       -2.265477   -0.137456   -0.524106
      2          6           0       -0.983396   -1.814014   -0.580965
      3          6           0        0.031263   -0.455733    1.706779
      4          6           0       -1.832974    0.717741    0.472848
      5          1           0       -2.004618    0.127621   -1.542723
      6          1           0       -3.179780   -0.707609   -0.389757
      7          1           0       -2.324105    0.790708    1.437200
      8          6           0        0.297846   -1.299345   -0.555166
      9          6           0        0.806208   -0.637220    0.590596
     10          1           0       -1.334629   -2.288555   -1.492316
     11          1           0        0.404651    0.172459    2.508494
     12          1           0       -1.440207   -2.192152    0.326908
     13          1           0       -0.795912   -1.112059    1.932223
     14          6           0       -0.786533    1.675910    0.134072
     15          8           0       -0.199510    1.658415   -0.937154
     16          1           0       -0.515726    2.415171    0.912534
     17          8           0        1.991385    0.031614    0.581308
     18          6           0        2.650271    0.222891   -0.656549
     19          1           0        3.521413    0.839121   -0.432977
     20          1           0        2.990237   -0.730652   -1.079185
     21          1           0        2.002537    0.744273   -1.367360
     22          1           0        0.837892   -1.215200   -1.491338
 ---------------------------------------------------------------------
 Rotational constants (GHZ):           1.8442789           1.1749458           1.0044535
 Standard basis: def2TZVP (5D, 7F)
 There are   432 symmetry adapted cartesian basis functions of A   symmetry.
 There are   382 symmetry adapted basis functions of A   symmetry.
   382 basis functions,   606 primitive gaussians,   432 cartesian basis functions
    38 alpha electrons       38 beta electrons
       nuclear repulsion energy       550.5540468196 Hartrees.
 NAtoms=   22 NActive=   22 NUniq=   22 SFac= 1.00D+00 NAtFMM=   60 NAOKFM=F Big=F
 Integral buffers will be    131072 words long.
 Raffenetti 2 integral format.
 Two-electron integral symmetry is turned on.
 One-electron integrals computed using PRISM.
   1 Symmetry operations used in ECPInt.
 ECPInt:  NShTT=   12561 NPrTT=   37384 LenC2=   12303 LenP2D=   28881.
 LDataN:  DoStor=T MaxTD1= 6 Len=  172
 NBasis=   382 RedAO= T EigKep=  6.10D-05  NBF=   382
 NBsUse=   382 1.00D-06 EigRej= -1.00D+00 NBFU=   382
 ExpMin= 9.52D-02 ExpMax= 2.70D+04 ExpMxC= 9.22D+02 IAcc=3 IRadAn=         5 AccDes= 0.00D+00
 Harris functional with IExCor= 1009 and IRadAn=       5 diagonalized for initial guess.
 HarFok:  IExCor= 1009 AccDes= 0.00D+00 IRadAn=         5 IDoV= 1 UseB2=F ITyADJ=14
 ICtDFT=  3500011 ScaDFX=  1.000000  1.000000  1.000000  1.000000
 FoFCou: FMM=F IPFlag=           0 FMFlag=      100000 FMFlg1=           0
         NFxFlg=           0 DoJE=T BraDBF=F KetDBF=T FulRan=T
         wScrn=  0.000000 ICntrl=       500 IOpCl=  0 I1Cent=   200000004 NGrid=           0
         NMat0=    1 NMatS0=      1 NMatT0=    0 NMatD0=    1 NMtDS0=    0 NMtDT0=    0
 Petite list used in FoFCou.
 Requested convergence on RMS density matrix=1.00D-08 within 128 cycles.
 Requested convergence on MAX density matrix=1.00D-06.
 Requested convergence on             energy=1.00D-06.
 No special actions if energy rises.
 Integral accuracy reduced to 1.0D-05 until final iterations.
 Initial convergence to 1.0D-05 achieved.  Increase integral accuracy.
 SCF Done:  E(RM062X) =  -462.372246135     A.U. after   16 cycles
            NFock= 16  Conv=0.38D-08     -V/T= 2.0051

 **********************************************************************

            Population analysis using the SCF Density.

 **********************************************************************

 Orbital symmetries:
       Occupied  (A) (A) (A) (A) (A) (A) (A) (A) (A) (A) (A) (A)
                 (A) (A) (A) (A) (A) (A) (A) (A) (A) (A) (A) (A)
                 (A) (A) (A) (A) (A) (A) (A) (A) (A) (A) (A) (A)
                 (A) (A)
       Virtual   (A) (A) (A) (A) (A) (A) (A) (A) (A) (A) (A) (A)
                 (A) (A) (A) (A) (A) (A) (A) (A) (A) (A) (A) (A)
                 (A) (A) (A) (A) (A) (A) (A) (A) (A) (A) (A) (A)
                 (A) (A) (A) (A) (A) (A) (A) (A) (A) (A) (A) (A)
                 (A) (A) (A) (A) (A) (A) (A) (A) (A) (A) (A) (A)
                 (A) (A) (A) (A) (A) (A) (A) (A) (A) (A) (A) (A)
                 (A) (A) (A) (A) (A) (A) (A) (A) (A) (A) (A) (A)
                 (A) (A) (A) (A) (A) (A) (A) (A) (A) (A) (A) (A)
                 (A) (A) (A) (A) (A) (A) (A) (A) (A) (A) (A) (A)
                 (A) (A) (A) (A) (A) (A) (A) (A) (A) (A) (A) (A)
                 (A) (A) (A) (A) (A) (A) (A) (A) (A) (A) (A) (A)
                 (A) (A) (A) (A) (A) (A) (A) (A) (A) (A) (A) (A)
                 (A) (A) (A) (A) (A) (A) (A) (A) (A) (A) (A) (A)
                 (A) (A) (A) (A) (A) (A) (A) (A) (A) (A) (A) (A)
                 (A) (A) (A) (A) (A) (A) (A) (A) (A) (A) (A) (A)
                 (A) (A) (A) (A) (A) (A) (A) (A) (A) (A) (A) (A)
                 (A) (A) (A) (A) (A) (A) (A) (A) (A) (A) (A) (A)
                 (A) (A) (A) (A) (A) (A) (A) (A) (A) (A) (A) (A)
                 (A) (A) (A) (A) (A) (A) (A) (A) (A) (A) (A) (A)
                 (A) (A) (A) (A) (A) (A) (A) (A) (A) (A) (A) (A)
                 (A) (A) (A) (A) (A) (A) (A) (A) (A) (A) (A) (A)
                 (A) (A) (A) (A) (A) (A) (A) (A) (A) (A) (A) (A)
                 (A) (A) (A) (A) (A) (A) (A) (A) (A) (A) (A) (A)
                 (A) (A) (A) (A) (A) (A) (A) (A) (A) (A) (A) (A)
                 (A) (A) (A) (A) (A) (A) (A) (A) (A) (A) (A) (A)
                 (A) (A) (A) (A) (A) (A) (A) (A) (A) (A) (A) (A)
                 (A) (A) (A) (A) (A) (A) (A) (A) (A) (A) (A) (A)
                 (A) (A) (A) (A) (A) (A) (A) (A) (A) (A) (A) (A)
                 (A) (A) (A) (A) (A) (A) (A) (A)
 The electronic state is 1-A.
 Alpha  occ. eigenvalues --  -19.64851 -19.60367 -10.61098 -10.60249 -10.57757
 Alpha  occ. eigenvalues --  -10.56315 -10.55433 -10.55011 -10.54666 -10.54439
 Alpha  occ. eigenvalues --   -1.18583  -1.14800  -0.92521  -0.87385  -0.84458
 Alpha  occ. eigenvalues --   -0.77379  -0.73960  -0.71971  -0.62384  -0.60642
 Alpha  occ. eigenvalues --   -0.59588  -0.58073  -0.55554  -0.54751  -0.51274
 Alpha  occ. eigenvalues --   -0.49841  -0.48165  -0.47499  -0.46870  -0.46654
 Alpha  occ. eigenvalues --   -0.45361  -0.43075  -0.41787  -0.39394  -0.37968
 Alpha  occ. eigenvalues --   -0.32219  -0.28526  -0.27970
 Alpha virt. eigenvalues --   -0.03187   0.01924   0.06637   0.07684   0.09011
 Alpha virt. eigenvalues --    0.09363   0.10951   0.11788   0.12285   0.13103
 Alpha virt. eigenvalues --    0.14202   0.14642   0.14797   0.15845   0.17472
 Alpha virt. eigenvalues --    0.18413   0.19506   0.20928   0.21527   0.21920
 Alpha virt. eigenvalues --    0.23584   0.23786   0.25045   0.25232   0.26560
 Alpha virt. eigenvalues --    0.28166   0.29440   0.30113   0.31211   0.31930
 Alpha virt. eigenvalues --    0.32975   0.34170   0.35000   0.36298   0.38380
 Alpha virt. eigenvalues --    0.39321   0.39482   0.40817   0.41404   0.42200
 Alpha virt. eigenvalues --    0.42986   0.43777   0.44537   0.44965   0.45094
 Alpha virt. eigenvalues --    0.46820   0.46997   0.47733   0.48949   0.49256
 Alpha virt. eigenvalues --    0.49876   0.50468   0.51349   0.52544   0.53313
 Alpha virt. eigenvalues --    0.54512   0.55464   0.56425   0.57214   0.58545
 Alpha virt. eigenvalues --    0.60360   0.60896   0.62070   0.63050   0.64578
 Alpha virt. eigenvalues --    0.66275   0.67636   0.68644   0.69751   0.72427
 Alpha virt. eigenvalues --    0.72638   0.74217   0.75189   0.76837   0.79480
 Alpha virt. eigenvalues --    0.82332   0.83276   0.84898   0.86943   0.88381
 Alpha virt. eigenvalues --    0.89222   0.91024   0.91824   0.92930   0.94707
 Alpha virt. eigenvalues --    0.96319   0.97700   0.99214   0.99871   1.02460
 Alpha virt. eigenvalues --    1.02579   1.05514   1.06648   1.07817   1.09861
 Alpha virt. eigenvalues --    1.10297   1.11484   1.13868   1.14594   1.15733
 Alpha virt. eigenvalues --    1.18662   1.20523   1.21197   1.22226   1.22960
 Alpha virt. eigenvalues --    1.24885   1.27295   1.29423   1.31556   1.32320
 Alpha virt. eigenvalues --    1.35635   1.37318   1.38645   1.39518   1.41909
 Alpha virt. eigenvalues --    1.45185   1.48902   1.49680   1.51008   1.53340
 Alpha virt. eigenvalues --    1.54596   1.55152   1.55515   1.57531   1.58593
 Alpha virt. eigenvalues --    1.59522   1.60514   1.62173   1.63119   1.63741
 Alpha virt. eigenvalues --    1.65459   1.66399   1.68941   1.69406   1.71554
 Alpha virt. eigenvalues --    1.72574   1.73264   1.75649   1.77319   1.78791
 Alpha virt. eigenvalues --    1.79492   1.80575   1.83619   1.84381   1.85260
 Alpha virt. eigenvalues --    1.88725   1.91228   1.93295   1.94445   1.95182
 Alpha virt. eigenvalues --    1.97618   1.98611   1.99530   2.03308   2.04556
 Alpha virt. eigenvalues --    2.05167   2.07410   2.08995   2.10731   2.12303
 Alpha virt. eigenvalues --    2.13237   2.17066   2.17393   2.19372   2.22379
 Alpha virt. eigenvalues --    2.24989   2.26976   2.27943   2.29153   2.30715
 Alpha virt. eigenvalues --    2.33759   2.34670   2.34950   2.35702   2.38740
 Alpha virt. eigenvalues --    2.41356   2.42950   2.43561   2.45699   2.46526
 Alpha virt. eigenvalues --    2.47624   2.49047   2.51449   2.52913   2.54251
 Alpha virt. eigenvalues --    2.55349   2.56567   2.58408   2.59421   2.60923
 Alpha virt. eigenvalues --    2.61691   2.62531   2.63735   2.64923   2.66087
 Alpha virt. eigenvalues --    2.68134   2.69949   2.70963   2.72214   2.73574
 Alpha virt. eigenvalues --    2.74379   2.75996   2.78930   2.79930   2.80580
 Alpha virt. eigenvalues --    2.82969   2.84268   2.85485   2.86579   2.87686
 Alpha virt. eigenvalues --    2.89385   2.91607   2.94161   2.95586   2.96440
 Alpha virt. eigenvalues --    2.98588   3.01749   3.03294   3.05325   3.05471
 Alpha virt. eigenvalues --    3.06118   3.09715   3.10279   3.10991   3.11679
 Alpha virt. eigenvalues --    3.13510   3.14375   3.16848   3.17334   3.18406
 Alpha virt. eigenvalues --    3.20831   3.22244   3.23544   3.24053   3.25039
 Alpha virt. eigenvalues --    3.27562   3.27809   3.29654   3.30376   3.31371
 Alpha virt. eigenvalues --    3.31753   3.34261   3.35608   3.35768   3.37033
 Alpha virt. eigenvalues --    3.37311   3.38852   3.39281   3.40429   3.44190
 Alpha virt. eigenvalues --    3.44560   3.45874   3.49483   3.50476   3.51207
 Alpha virt. eigenvalues --    3.52480   3.54240   3.55349   3.56713   3.57060
 Alpha virt. eigenvalues --    3.59669   3.61176   3.62522   3.65600   3.67341
 Alpha virt. eigenvalues --    3.67876   3.69050   3.71436   3.72439   3.77753
 Alpha virt. eigenvalues --    3.79865   3.82494   3.86446   3.90540   3.93445
 Alpha virt. eigenvalues --    3.98032   4.02634   4.02972   4.06221   4.10625
 Alpha virt. eigenvalues --    4.11479   4.13174   4.15063   4.15577   4.16605
 Alpha virt. eigenvalues --    4.21511   4.22787   4.24766   4.29766   4.30621
 Alpha virt. eigenvalues --    4.31209   4.32767   4.39855   4.43141   4.49251
 Alpha virt. eigenvalues --    4.51075   4.55440   4.56565   4.58441   4.67302
 Alpha virt. eigenvalues --    4.72752   4.73550   4.79057   4.83119   4.84282
 Alpha virt. eigenvalues --    4.86513   4.88876   4.91796   4.99900   5.10001
 Alpha virt. eigenvalues --    5.24648   5.25025   5.38521   5.47761   5.57737
 Alpha virt. eigenvalues --    5.68700   5.78464   5.90946   5.92325   6.07081
 Alpha virt. eigenvalues --    6.26216   6.30686   6.39796   6.43900   6.44187
 Alpha virt. eigenvalues --    6.53145   6.66450   6.77794   6.84582   6.90193
 Alpha virt. eigenvalues --    6.98799   7.09014   7.15100   7.35067  22.43515
 Alpha virt. eigenvalues --   22.46143  22.48889  22.56718  22.78415  22.80778
 Alpha virt. eigenvalues --   22.97597  23.15276  44.07635  44.40862
          Condensed to atoms (all electrons):
               1          2          3          4          5          6
     1  C    5.240492   0.091092  -0.033519   0.287706   0.434993   0.427178
     2  C    0.091092   5.276022  -0.035004   0.012347  -0.029192  -0.023467
     3  C   -0.033519  -0.035004   5.312188   0.077246   0.005328   0.002665
     4  C    0.287706   0.012347   0.077246   5.767494  -0.056423  -0.050993
     5  H    0.434993  -0.029192   0.005328  -0.056423   0.459116  -0.015598
     6  H    0.427178  -0.023467   0.002665  -0.050993  -0.015598   0.494651
     7  H   -0.032288   0.000147  -0.010434   0.398107   0.002607  -0.004927
     8  C   -0.024559   0.295447  -0.063769  -0.103155  -0.011305   0.001520
     9  C   -0.052227  -0.004064   0.417874   0.037736  -0.001371   0.001298
    10  H   -0.019758   0.421039   0.002087   0.003116  -0.001893   0.000338
    11  H    0.001446  -0.002449   0.419011  -0.007132  -0.000031  -0.000080
    12  H   -0.041364   0.452180  -0.005621  -0.013313   0.003009  -0.004268
    13  H   -0.006323   0.003244   0.438611  -0.016459  -0.000276   0.000646
    14  C    0.016756  -0.015456  -0.016467   0.161654   0.001183   0.004281
    15  O    0.019693  -0.016454  -0.012882  -0.162221   0.012225   0.000461
    16  H    0.019377  -0.002046   0.006805  -0.182761   0.001257  -0.000048
    17  O    0.003020   0.010039  -0.076490  -0.003194  -0.000162  -0.000007
    18  C    0.000707  -0.003580   0.002710   0.001659   0.000003  -0.000015
    19  H   -0.000002   0.000159   0.000058  -0.000135   0.000002   0.000000
    20  H    0.000236   0.001412  -0.000386  -0.000006  -0.000035  -0.000001
    21  H   -0.001372  -0.003387   0.001828   0.001049   0.000206   0.000009
    22  H    0.000481  -0.020983   0.000831  -0.000521   0.000426  -0.000158
               7          8          9         10         11         12
     1  C   -0.032288  -0.024559  -0.052227  -0.019758   0.001446  -0.041364
     2  C    0.000147   0.295447  -0.004064   0.421039  -0.002449   0.452180
     3  C   -0.010434  -0.063769   0.417874   0.002087   0.419011  -0.005621
     4  C    0.398107  -0.103155   0.037736   0.003116  -0.007132  -0.013313
     5  H    0.002607  -0.011305  -0.001371  -0.001893  -0.000031   0.003009
     6  H   -0.004927   0.001520   0.001298   0.000338  -0.000080  -0.004268
     7  H    0.497932   0.004076  -0.003352  -0.000148   0.000942   0.000922
     8  C    0.004076   5.385939   0.305156  -0.038457   0.012450  -0.064700
     9  C   -0.003352   0.305156   4.974001   0.002193  -0.060196   0.007355
    10  H   -0.000148  -0.038457   0.002193   0.484644   0.000001  -0.015130
    11  H    0.000942   0.012450  -0.060196   0.000001   0.465846   0.000022
    12  H    0.000922  -0.064700   0.007355  -0.015130   0.000022   0.491786
    13  H   -0.003978   0.006101  -0.070123   0.000215  -0.011455  -0.000004
    14  C   -0.021074  -0.006329  -0.031967   0.000004   0.001733  -0.000226
    15  O    0.004775   0.051860  -0.019818   0.000175   0.000426   0.000310
    16  H    0.001976   0.004750  -0.008875   0.000030   0.000392  -0.000033
    17  O   -0.000012  -0.070992   0.319002  -0.000144   0.008912  -0.000207
    18  C    0.000028  -0.009234  -0.070890  -0.000048   0.000519   0.000015
    19  H   -0.000000   0.000710   0.004652  -0.000001  -0.000209   0.000002
    20  H   -0.000001   0.007943  -0.027634  -0.000057   0.000182  -0.000065
    21  H   -0.000027  -0.004875   0.018303   0.000122  -0.000046   0.000054
    22  H    0.000046   0.420108  -0.040655  -0.004291  -0.000090   0.002170
              13         14         15         16         17         18
     1  C   -0.006323   0.016756   0.019693   0.019377   0.003020   0.000707
     2  C    0.003244  -0.015456  -0.016454  -0.002046   0.010039  -0.003580
     3  C    0.438611  -0.016467  -0.012882   0.006805  -0.076490   0.002710
     4  C   -0.016459   0.161654  -0.162221  -0.182761  -0.003194   0.001659
     5  H   -0.000276   0.001183   0.012225   0.001257  -0.000162   0.000003
     6  H    0.000646   0.004281   0.000461  -0.000048  -0.000007  -0.000015
     7  H   -0.003978  -0.021074   0.004775   0.001976  -0.000012   0.000028
     8  C    0.006101  -0.006329   0.051860   0.004750  -0.070992  -0.009234
     9  C   -0.070123  -0.031967  -0.019818  -0.008875   0.319002  -0.070890
    10  H    0.000215   0.000004   0.000175   0.000030  -0.000144  -0.000048
    11  H   -0.011455   0.001733   0.000426   0.000392   0.008912   0.000519
    12  H   -0.000004  -0.000226   0.000310  -0.000033  -0.000207   0.000015
    13  H    0.495427  -0.000493   0.000068  -0.000227   0.002969  -0.000566
    14  C   -0.000493   4.695458   0.591344   0.493940   0.012732  -0.003116
    15  O    0.000068   0.591344   7.953807  -0.053177   0.000004  -0.009239
    16  H   -0.000227   0.493940  -0.053177   0.612381  -0.000092  -0.001016
    17  O    0.002969   0.012732   0.000004  -0.000092   7.982246   0.220485
    18  C   -0.000566  -0.003116  -0.009239  -0.001016   0.220485   4.941545
    19  H    0.000018   0.000040  -0.000088   0.000106  -0.030653   0.400069
    20  H    0.000087   0.000923   0.000568  -0.000046  -0.036034   0.420182
    21  H   -0.000106  -0.008053   0.003648   0.000336  -0.048077   0.412091
    22  H    0.000385  -0.000270   0.000081  -0.000021  -0.005476   0.003510
              19         20         21         22
     1  C   -0.000002   0.000236  -0.001372   0.000481
     2  C    0.000159   0.001412  -0.003387  -0.020983
     3  C    0.000058  -0.000386   0.001828   0.000831
     4  C   -0.000135  -0.000006   0.001049  -0.000521
     5  H    0.000002  -0.000035   0.000206   0.000426
     6  H    0.000000  -0.000001   0.000009  -0.000158
     7  H   -0.000000  -0.000001  -0.000027   0.000046
     8  C    0.000710   0.007943  -0.004875   0.420108
     9  C    0.004652  -0.027634   0.018303  -0.040655
    10  H   -0.000001  -0.000057   0.000122  -0.004291
    11  H   -0.000209   0.000182  -0.000046  -0.000090
    12  H    0.000002  -0.000065   0.000054   0.002170
    13  H    0.000018   0.000087  -0.000106   0.000385
    14  C    0.000040   0.000923  -0.008053  -0.000270
    15  O   -0.000088   0.000568   0.003648   0.000081
    16  H    0.000106  -0.000046   0.000336  -0.000021
    17  O   -0.030653  -0.036034  -0.048077  -0.005476
    18  C    0.400069   0.420182   0.412091   0.003510
    19  H    0.518512  -0.026041  -0.014113   0.000101
    20  H   -0.026041   0.575250  -0.055960  -0.002401
    21  H   -0.014113  -0.055960   0.520673  -0.003113
    22  H    0.000101  -0.002401  -0.003113   0.484369
 Mulliken charges:
               1
     1  C   -0.331763
     2  C   -0.407047
     3  C   -0.432670
     4  C   -0.151800
     5  H    0.195931
     6  H    0.166515
     7  H    0.164684
     8  C   -0.098684
     9  C    0.303602
    10  H    0.165965
    11  H    0.169805
    12  H    0.187103
    13  H    0.162240
    14  C    0.123403
    15  O   -0.365564
    16  H    0.106990
    17  O   -0.287869
    18  C   -0.305820
    19  H    0.146814
    20  H    0.141884
    21  H    0.180810
    22  H    0.165471
 Sum of Mulliken charges =  -0.00000
 Mulliken charges with hydrogens summed into heavy atoms:
               1
     1  C    0.030683
     2  C   -0.053979
     3  C   -0.100624
     4  C    0.012883
     8  C    0.066787
     9  C    0.303602
    14  C    0.230393
    15  O   -0.365564
    17  O   -0.287869
    18  C    0.163688
 Electronic spatial extent (au):  <R**2>=           1380.2477
 Charge=             -0.0000 electrons
 Dipole moment (field-independent basis, Debye):
    X=             -1.2967    Y=             -1.7227    Z=              0.5379  Tot=              2.2222
 Quadrupole moment (field-independent basis, Debye-Ang):
   XX=            -56.5447   YY=            -63.1961   ZZ=            -59.6269
   XY=              3.0491   XZ=             -4.4151   YZ=              5.1838
 Traceless Quadrupole moment (field-independent basis, Debye-Ang):
   XX=              3.2445   YY=             -3.4068   ZZ=              0.1623
   XY=              3.0491   XZ=             -4.4151   YZ=              5.1838
 Octapole moment (field-independent basis, Debye-Ang**2):
  XXX=             13.9893  YYY=              7.6135  ZZZ=              0.0014  XYY=             -2.4771
  XXY=             -1.0045  XXZ=             -8.7039  XZZ=             -1.1133  YZZ=             -1.6141
  YYZ=              4.9430  XYZ=             -0.6418
 Hexadecapole moment (field-independent basis, Debye-Ang**3):
 XXXX=           -923.5906 YYYY=           -548.9370 ZZZZ=           -344.0353 XXXY=             34.6596
 XXXZ=            -21.1219 YYYX=             11.6850 YYYZ=             13.0594 ZZZX=              0.7805
 ZZZY=              9.4612 XXYY=           -243.4425 XXZZ=           -216.7252 YYZZ=           -149.2001
 XXYZ=              1.8133 YYXZ=             -1.5167 ZZXY=              5.1565
 N-N= 5.505540468196D+02 E-N=-2.179338610488D+03  KE= 4.600458866195D+02
 Unable to Open any file for archive entry.
 1\1\GINC-NODE10\SP\RM062X\def2TZVP\C8H12O2\RPATON\21-Jun-2022\0\\# M06
 2X/def2tzvp\\DATS_13_endo_i_TZVPcreated by GaussianPrep\\0,1\C,0,2.265
 477,0.137456,-0.524106\C,0,0.983396,1.814014,-0.580965\C,0,-0.031263,0
 .455733,1.706779\C,0,1.832974,-0.717741,0.472848\H,0,2.004618,-0.12762
 1,-1.542723\H,0,3.17978,0.707609,-0.389757\H,0,2.324105,-0.790708,1.43
 72\C,0,-0.297846,1.299345,-0.555166\C,0,-0.806208,0.63722,0.590596\H,0
 ,1.334629,2.288555,-1.492316\H,0,-0.404651,-0.172459,2.508494\H,0,1.44
 0207,2.192152,0.326908\H,0,0.795912,1.112059,1.932223\C,0,0.786533,-1.
 67591,0.134072\O,0,0.19951,-1.658415,-0.937154\H,0,0.515726,-2.415171,
 0.912534\O,0,-1.991385,-0.031614,0.581308\C,0,-2.650271,-0.222891,-0.6
 56549\H,0,-3.521413,-0.839121,-0.432977\H,0,-2.990237,0.730652,-1.0791
 85\H,0,-2.002537,-0.744273,-1.36736\H,0,-0.837892,1.2152,-1.491338\\Ve
 rsion=AS64L-G16RevC.01\State=1-A\HF=-462.3722461\RMSD=3.798e-09\Dipole
 =0.5101421,0.6777504,0.2116278\Quadrupole=2.4122147,-2.5329017,0.12068
 7,2.2668947,3.2825514,-3.8540228\PG=C01 [X(C8H12O2)]\\@
 The archive entry for this job was punched.


 GOD GAVE US TWO ENDS... ONE TO SIT ON...    
 AND THE OTHER TO THINK WITH...              
 YOUR SUCCESS DEPENDS UPON WHICH END YOU     
 USE THE MOST...                             
                                             
 IT'S A CASE OF HEADS YOU WIN TAILS YOU LOSE.
          SOURCE UNKNOWN(IT'S JUST AS WELL.) 
 Job cpu time:       0 days  0 hours 17 minutes 48.9 seconds.
 Elapsed time:       0 days  0 hours  1 minutes  9.7 seconds.
 File lengths (MBytes):  RWF=     83 Int=      0 D2E=      0 Chk=     10 Scr=      1
 Normal termination of Gaussian 16 at Tue Jun 21 11:23:56 2022.
