Job Start Time: Tue Jun 21 11:22:46 MDT 2022
SLURM Job ID: 40882
SLURM Job Name: DATS_13_endo_iii_TZVP
 Entering Gaussian System, Link 0=/opt/apps/Gaussian/G16C/g16/g16
 Initial command:
 /opt/apps/Gaussian/G16C/g16/l1.exe "/tmp/Gau-2603791.inp" -scrdir="/tmp/"
 Entering Link 1 = /opt/apps/Gaussian/G16C/g16/l1.exe PID=   2603807.
  
 Copyright (c) 1988-2019, Gaussian, Inc.  All Rights Reserved.
  
 This is part of the Gaussian(R) 16 program.  It is based on
 the Gaussian(R) 09 system (copyright 2009, Gaussian, Inc.),
 the Gaussian(R) 03 system (copyright 2003, Gaussian, Inc.),
 the Gaussian(R) 98 system (copyright 1998, Gaussian, Inc.),
 the Gaussian(R) 94 system (copyright 1995, Gaussian, Inc.),
 the Gaussian 92(TM) system (copyright 1992, Gaussian, Inc.),
 the Gaussian 90(TM) system (copyright 1990, Gaussian, Inc.),
 the Gaussian 88(TM) system (copyright 1988, Gaussian, Inc.),
 the Gaussian 86(TM) system (copyright 1986, Carnegie Mellon
 University), and the Gaussian 82(TM) system (copyright 1983,
 Carnegie Mellon University). Gaussian is a federally registered
 trademark of Gaussian, Inc.
  
 This software contains proprietary and confidential information,
 including trade secrets, belonging to Gaussian, Inc.
  
 This software is provided under written license and may be
 used, copied, transmitted, or stored only in accord with that
 written license.
  
 The following legend is applicable only to US Government
 contracts under FAR:
  
                    RESTRICTED RIGHTS LEGEND
  
 Use, reproduction and disclosure by the US Government is
 subject to restrictions as set forth in subparagraphs (a)
 and (c) of the Commercial Computer Software - Restricted
 Rights clause in FAR 52.227-19.
  
 Gaussian, Inc.
 340 Quinnipiac St., Bldg. 40, Wallingford CT 06492
  
  
 ---------------------------------------------------------------
 Warning -- This program may not be used in any manner that
 competes with the business of Gaussian, Inc. or will provide
 assistance to any competitor of Gaussian, Inc.  The licensee
 of this program is prohibited from giving any competitor of
 Gaussian, Inc. access to this program.  By using this program,
 the user acknowledges that Gaussian, Inc. is engaged in the
 business of creating and licensing software in the field of
 computational chemistry and represents and warrants to the
 licensee that it is not a competitor of Gaussian, Inc. and that
 it will not use this program in any manner prohibited above.
 ---------------------------------------------------------------
  

 Cite this work as:
 Gaussian 16, Revision C.01,
 M. J. Frisch, G. W. Trucks, H. B. Schlegel, G. E. Scuseria, 
 M. A. Robb, J. R. Cheeseman, G. Scalmani, V. Barone, 
 G. A. Petersson, H. Nakatsuji, X. Li, M. Caricato, A. V. Marenich, 
 J. Bloino, B. G. Janesko, R. Gomperts, B. Mennucci, H. P. Hratchian, 
 J. V. Ortiz, A. F. Izmaylov, J. L. Sonnenberg, D. Williams-Young, 
 F. Ding, F. Lipparini, F. Egidi, J. Goings, B. Peng, A. Petrone, 
 T. Henderson, D. Ranasinghe, V. G. Zakrzewski, J. Gao, N. Rega, 
 G. Zheng, W. Liang, M. Hada, M. Ehara, K. Toyota, R. Fukuda, 
 J. Hasegawa, M. Ishida, T. Nakajima, Y. Honda, O. Kitao, H. Nakai, 
 T. Vreven, K. Throssell, J. A. Montgomery, Jr., J. E. Peralta, 
 F. Ogliaro, M. J. Bearpark, J. J. Heyd, E. N. Brothers, K. N. Kudin, 
 V. N. Staroverov, T. A. Keith, R. Kobayashi, J. Normand, 
 K. Raghavachari, A. P. Rendell, J. C. Burant, S. S. Iyengar, 
 J. Tomasi, M. Cossi, J. M. Millam, M. Klene, C. Adamo, R. Cammi, 
 J. W. Ochterski, R. L. Martin, K. Morokuma, O. Farkas, 
 J. B. Foresman, and D. J. Fox, Gaussian, Inc., Wallingford CT, 2019.
 
 ******************************************
 Gaussian 16:  AS64L-G16RevC.01  3-Jul-2019
                21-Jun-2022 
 ******************************************
 %chk=DATS_13_endo_iii_TZVP.chk
 %mem=48GB
 %nprocshared=16
 Will use up to   16 processors via shared memory.
 ----------------
 # M062X/def2tzvp
 ----------------
 1/38=1,172=1/1;
 2/12=2,17=6,18=5,40=1/2;
 3/5=44,7=101,11=2,25=1,30=1,74=-55/1,2,3;
 4//1;
 5/5=2,38=5/2;
 6/7=2,8=2,9=2,10=2,28=1/1;
 99/5=1,9=1/99;
 --------------------------------------------
 DATS_13_endo_iii_TZVPcreated by GaussianPrep
 --------------------------------------------
 Symbolic Z-matrix:
 Charge =  0 Multiplicity = 1
 C                     1.59242   1.3859   -0.72605 
 C                    -0.25736   2.30721   0.02493 
 C                     0.02383  -0.10437   1.5013 
 C                     1.87377   0.26925   0.03471 
 H                     1.19424   1.25507  -1.72793 
 H                     2.13947   2.30805  -0.55959 
 H                     2.55628   0.32004   0.87846 
 C                    -1.17244   1.28584  -0.0928 
 C                    -1.02252   0.07652   0.62918 
 H                    -0.35997   3.18422  -0.60728 
 H                     0.19459  -1.08863   1.92402 
 H                     0.27921   2.47637   0.95116 
 H                     0.4676    0.73844   2.01104 
 C                     1.61082  -1.07562  -0.50449 
 O                     2.1302   -2.09795  -0.11889 
 H                     0.87325  -1.08459  -1.34097 
 O                    -1.7631   -1.03814   0.35629 
 C                    -2.62267  -1.01811  -0.76035 
 H                    -3.06759  -2.01166  -0.81338 
 H                    -3.42011  -0.2739   -0.64524 
 H                    -2.07354  -0.81796  -1.68945 
 H                    -1.87532   1.32367  -0.91852 
 
                          Input orientation:                          
 ---------------------------------------------------------------------
 Center     Atomic      Atomic             Coordinates (Angstroms)
 Number     Number       Type             X           Y           Z
 ---------------------------------------------------------------------
      1          6           0        1.592419    1.385897   -0.726054
      2          6           0       -0.257361    2.307206    0.024929
      3          6           0        0.023828   -0.104371    1.501304
      4          6           0        1.873774    0.269250    0.034707
      5          1           0        1.194235    1.255070   -1.727926
      6          1           0        2.139471    2.308051   -0.559591
      7          1           0        2.556282    0.320037    0.878460
      8          6           0       -1.172437    1.285835   -0.092804
      9          6           0       -1.022524    0.076516    0.629181
     10          1           0       -0.359972    3.184215   -0.607277
     11          1           0        0.194585   -1.088632    1.924019
     12          1           0        0.279207    2.476365    0.951162
     13          1           0        0.467603    0.738436    2.011039
     14          6           0        1.610821   -1.075616   -0.504492
     15          8           0        2.130197   -2.097947   -0.118888
     16          1           0        0.873249   -1.084587   -1.340973
     17          8           0       -1.763097   -1.038143    0.356285
     18          6           0       -2.622668   -1.018114   -0.760354
     19          1           0       -3.067595   -2.011662   -0.813382
     20          1           0       -3.420111   -0.273898   -0.645240
     21          1           0       -2.073540   -0.817960   -1.689453
     22          1           0       -1.875321    1.323667   -0.918519
 ---------------------------------------------------------------------
                    Distance matrix (angstroms):
                    1          2          3          4          5
     1  C    0.000000
     2  C    2.198743   0.000000
     3  C    3.105238   2.841558   0.000000
     4  C    1.380152   2.948745   2.390146   0.000000
     5  H    1.086008   2.507314   3.694030   2.130842   0.000000
     6  H    1.085055   2.467077   3.813530   2.140209   1.835006
     7  H    2.153963   3.548795   2.642230   1.086423   3.085888
     8  C    2.838212   1.376381   2.430001   3.213893   2.876753
     9  C    3.223208   2.434455   1.374107   2.962953   3.443685
    10  H    2.657045   1.085983   3.925330   3.728108   2.719010
    11  H    3.885887   3.916952   1.084719   2.869324   4.452970
    12  H    2.393052   1.083710   2.651051   2.872958   3.083237
    13  H    3.029207   2.632726   1.080319   2.470494   3.843796
    14  C    2.471533   3.900497   2.735888   1.472598   2.665039
    15  O    3.577013   5.012633   3.322071   2.385994   3.835069
    16  H    2.645491   3.827300   3.124240   2.174033   2.393065
    17  O    4.278658   3.683531   2.318642   3.878082   4.283524
    18  C    4.852567   4.155611   3.599162   4.744198   4.546681
    19  H    5.767735   5.220422   4.307253   5.508080   5.447121
    20  H    5.280806   4.136933   4.061663   5.364938   4.980175
    21  H    4.384561   4.000534   3.884468   4.442526   3.870050
    22  H    3.473634   2.115476   3.391401   4.009507   3.175220
                    6          7          8          9         10
     6  H    0.000000
     7  H    2.488759   0.000000
     8  C    3.497363   3.972337   0.000000
     9  C    4.048597   3.595733   1.416400   0.000000
    10  H    2.648991   4.349192   2.128057   3.409633   0.000000
    11  H    4.635553   2.941964   3.402120   2.124978   4.997221
    12  H    2.402350   3.136894   2.148138   2.749082   1.827111
    13  H    3.444847   2.412545   2.723147   2.137323   3.677267
    14  C    3.425158   2.180436   3.673209   3.089843   4.694758
    15  O    4.427993   2.650075   4.728430   3.902249   5.860094
    16  H    3.704574   3.119527   3.370706   2.970458   4.503534
    17  O    5.221674   4.557889   2.439556   1.365791   4.552529
    18  C    5.812198   5.594451   2.803029   2.385264   4.775227
    19  H    6.770367   6.318793   3.870962   3.259416   5.862665
    20  H    6.130477   6.196103   2.791056   2.737766   4.617839
    21  H    5.366376   5.415207   2.790561   2.698293   4.486070
    22  H    4.149265   4.886257   1.085026   2.162874   2.419668
                   11         12         13         14         15
    11  H    0.000000
    12  H    3.696325   0.000000
    13  H    1.849402   2.044316   0.000000
    14  C    2.811327   4.063089   3.305394   0.000000
    15  O    2.989779   5.049307   3.917381   1.209794   0.000000
    16  H    3.334782   4.276347   3.837179   1.115255   2.024922
    17  O    2.508557   4.108120   3.297039   3.482192   4.062845
    18  C    3.892010   4.854024   4.507312   4.241604   4.916019
    19  H    4.357427   5.870016   5.295094   4.781127   5.244693
    20  H    4.508981   4.878258   4.816114   5.096355   5.866014
    21  H    4.274908   4.833306   4.751149   3.878793   4.666524
    22  H    4.264237   3.076753   3.796590   4.252195   5.328323
                   16         17         18         19         20
    16  H    0.000000
    17  O    3.135787   0.000000
    18  C    3.544428   1.409307   0.000000
    19  H    4.082655   2.004389   1.089913   0.000000
    20  H    4.424274   2.081542   1.096825   1.781113   0.000000
    21  H    2.979277   2.080841   1.097647   1.783415   1.788753
    22  H    3.678694   2.686236   2.463226   3.543584   2.239034
                   21         22
    21  H    0.000000
    22  H    2.284775   0.000000
 Stoichiometry    C8H12O2
 Framework group  C1[X(C8H12O2)]
 Deg. of freedom    60
 Full point group                 C1      NOp   1
 Largest Abelian subgroup         C1      NOp   1
 Largest concise Abelian subgroup C1      NOp   1
                         Standard orientation:                         
 ---------------------------------------------------------------------
 Center     Atomic      Atomic             Coordinates (Angstroms)
 Number     Number       Type             X           Y           Z
 ---------------------------------------------------------------------
      1          6           0        1.592418    1.385898   -0.726054
      2          6           0       -0.257362    2.307206    0.024929
      3          6           0        0.023828   -0.104371    1.501304
      4          6           0        1.873774    0.269251    0.034707
      5          1           0        1.194234    1.255070   -1.727926
      6          1           0        2.139470    2.308052   -0.559591
      7          1           0        2.556282    0.320038    0.878460
      8          6           0       -1.172438    1.285835   -0.092804
      9          6           0       -1.022524    0.076516    0.629181
     10          1           0       -0.359973    3.184215   -0.607277
     11          1           0        0.194585   -1.088632    1.924019
     12          1           0        0.279206    2.476365    0.951162
     13          1           0        0.467603    0.738436    2.011039
     14          6           0        1.610821   -1.075615   -0.504492
     15          8           0        2.130198   -2.097946   -0.118888
     16          1           0        0.873249   -1.084587   -1.340973
     17          8           0       -1.763097   -1.038144    0.356285
     18          6           0       -2.622668   -1.018115   -0.760354
     19          1           0       -3.067594   -2.011663   -0.813382
     20          1           0       -3.420111   -0.273899   -0.645240
     21          1           0       -2.073540   -0.817961   -1.689453
     22          1           0       -1.875322    1.323666   -0.918519
 ---------------------------------------------------------------------
 Rotational constants (GHZ):           1.5629669           1.1162625           0.7944568
 Standard basis: def2TZVP (5D, 7F)
 There are   432 symmetry adapted cartesian basis functions of A   symmetry.
 There are   382 symmetry adapted basis functions of A   symmetry.
   382 basis functions,   606 primitive gaussians,   432 cartesian basis functions
    38 alpha electrons       38 beta electrons
       nuclear repulsion energy       531.7281943120 Hartrees.
 NAtoms=   22 NActive=   22 NUniq=   22 SFac= 1.00D+00 NAtFMM=   60 NAOKFM=F Big=F
 Integral buffers will be    131072 words long.
 Raffenetti 2 integral format.
 Two-electron integral symmetry is turned on.
 One-electron integrals computed using PRISM.
   1 Symmetry operations used in ECPInt.
 ECPInt:  NShTT=   12561 NPrTT=   37384 LenC2=   12196 LenP2D=   28385.
 LDataN:  DoStor=T MaxTD1= 6 Len=  172
 NBasis=   382 RedAO= T EigKep=  5.75D-05  NBF=   382
 NBsUse=   382 1.00D-06 EigRej= -1.00D+00 NBFU=   382
 ExpMin= 9.52D-02 ExpMax= 2.70D+04 ExpMxC= 9.22D+02 IAcc=3 IRadAn=         5 AccDes= 0.00D+00
 Harris functional with IExCor= 1009 and IRadAn=       5 diagonalized for initial guess.
 HarFok:  IExCor= 1009 AccDes= 0.00D+00 IRadAn=         5 IDoV= 1 UseB2=F ITyADJ=14
 ICtDFT=  3500011 ScaDFX=  1.000000  1.000000  1.000000  1.000000
 FoFCou: FMM=F IPFlag=           0 FMFlag=      100000 FMFlg1=           0
         NFxFlg=           0 DoJE=T BraDBF=F KetDBF=T FulRan=T
         wScrn=  0.000000 ICntrl=       500 IOpCl=  0 I1Cent=   200000004 NGrid=           0
         NMat0=    1 NMatS0=      1 NMatT0=    0 NMatD0=    1 NMtDS0=    0 NMtDT0=    0
 Petite list used in FoFCou.
 Requested convergence on RMS density matrix=1.00D-08 within 128 cycles.
 Requested convergence on MAX density matrix=1.00D-06.
 Requested convergence on             energy=1.00D-06.
 No special actions if energy rises.
 Integral accuracy reduced to 1.0D-05 until final iterations.
 Initial convergence to 1.0D-05 achieved.  Increase integral accuracy.
 SCF Done:  E(RM062X) =  -462.365724845     A.U. after   16 cycles
            NFock= 16  Conv=0.50D-08     -V/T= 2.0051

 **********************************************************************

            Population analysis using the SCF Density.

 **********************************************************************

 Orbital symmetries:
       Occupied  (A) (A) (A) (A) (A) (A) (A) (A) (A) (A) (A) (A)
                 (A) (A) (A) (A) (A) (A) (A) (A) (A) (A) (A) (A)
                 (A) (A) (A) (A) (A) (A) (A) (A) (A) (A) (A) (A)
                 (A) (A)
       Virtual   (A) (A) (A) (A) (A) (A) (A) (A) (A) (A) (A) (A)
                 (A) (A) (A) (A) (A) (A) (A) (A) (A) (A) (A) (A)
                 (A) (A) (A) (A) (A) (A) (A) (A) (A) (A) (A) (A)
                 (A) (A) (A) (A) (A) (A) (A) (A) (A) (A) (A) (A)
                 (A) (A) (A) (A) (A) (A) (A) (A) (A) (A) (A) (A)
                 (A) (A) (A) (A) (A) (A) (A) (A) (A) (A) (A) (A)
                 (A) (A) (A) (A) (A) (A) (A) (A) (A) (A) (A) (A)
                 (A) (A) (A) (A) (A) (A) (A) (A) (A) (A) (A) (A)
                 (A) (A) (A) (A) (A) (A) (A) (A) (A) (A) (A) (A)
                 (A) (A) (A) (A) (A) (A) (A) (A) (A) (A) (A) (A)
                 (A) (A) (A) (A) (A) (A) (A) (A) (A) (A) (A) (A)
                 (A) (A) (A) (A) (A) (A) (A) (A) (A) (A) (A) (A)
                 (A) (A) (A) (A) (A) (A) (A) (A) (A) (A) (A) (A)
                 (A) (A) (A) (A) (A) (A) (A) (A) (A) (A) (A) (A)
                 (A) (A) (A) (A) (A) (A) (A) (A) (A) (A) (A) (A)
                 (A) (A) (A) (A) (A) (A) (A) (A) (A) (A) (A) (A)
                 (A) (A) (A) (A) (A) (A) (A) (A) (A) (A) (A) (A)
                 (A) (A) (A) (A) (A) (A) (A) (A) (A) (A) (A) (A)
                 (A) (A) (A) (A) (A) (A) (A) (A) (A) (A) (A) (A)
                 (A) (A) (A) (A) (A) (A) (A) (A) (A) (A) (A) (A)
                 (A) (A) (A) (A) (A) (A) (A) (A) (A) (A) (A) (A)
                 (A) (A) (A) (A) (A) (A) (A) (A) (A) (A) (A) (A)
                 (A) (A) (A) (A) (A) (A) (A) (A) (A) (A) (A) (A)
                 (A) (A) (A) (A) (A) (A) (A) (A) (A) (A) (A) (A)
                 (A) (A) (A) (A) (A) (A) (A) (A) (A) (A) (A) (A)
                 (A) (A) (A) (A) (A) (A) (A) (A) (A) (A) (A) (A)
                 (A) (A) (A) (A) (A) (A) (A) (A) (A) (A) (A) (A)
                 (A) (A) (A) (A) (A) (A) (A) (A) (A) (A) (A) (A)
                 (A) (A) (A) (A) (A) (A) (A) (A)
 The electronic state is 1-A.
 Alpha  occ. eigenvalues --  -19.65929 -19.60610 -10.61660 -10.60837 -10.59552
 Alpha  occ. eigenvalues --  -10.56727 -10.55842 -10.55455 -10.55334 -10.55047
 Alpha  occ. eigenvalues --   -1.19654  -1.15361  -0.93232  -0.88183  -0.85227
 Alpha  occ. eigenvalues --   -0.78433  -0.73789  -0.71845  -0.64817  -0.62387
 Alpha  occ. eigenvalues --   -0.60255  -0.56833  -0.55674  -0.53891  -0.53714
 Alpha  occ. eigenvalues --   -0.50394  -0.48901  -0.48518  -0.47408  -0.46777
 Alpha  occ. eigenvalues --   -0.45878  -0.43960  -0.43325  -0.40566  -0.38804
 Alpha  occ. eigenvalues --   -0.32141  -0.29243  -0.28168
 Alpha virt. eigenvalues --   -0.02869   0.01556   0.05507   0.06330   0.07310
 Alpha virt. eigenvalues --    0.08967   0.10121   0.11159   0.11957   0.12578
 Alpha virt. eigenvalues --    0.12859   0.13572   0.14420   0.15539   0.16649
 Alpha virt. eigenvalues --    0.17446   0.19204   0.19576   0.20572   0.21326
 Alpha virt. eigenvalues --    0.22669   0.23653   0.24444   0.25212   0.26819
 Alpha virt. eigenvalues --    0.27875   0.28660   0.29808   0.30587   0.31460
 Alpha virt. eigenvalues --    0.31807   0.34380   0.34841   0.35939   0.36897
 Alpha virt. eigenvalues --    0.37434   0.38114   0.39121   0.40503   0.41634
 Alpha virt. eigenvalues --    0.42456   0.43473   0.43869   0.44168   0.45010
 Alpha virt. eigenvalues --    0.45499   0.46538   0.47823   0.48377   0.48813
 Alpha virt. eigenvalues --    0.49161   0.50276   0.50386   0.51334   0.53072
 Alpha virt. eigenvalues --    0.53629   0.55061   0.56488   0.57096   0.57774
 Alpha virt. eigenvalues --    0.58666   0.60127   0.60920   0.61763   0.63157
 Alpha virt. eigenvalues --    0.64383   0.65940   0.67261   0.68283   0.70673
 Alpha virt. eigenvalues --    0.70881   0.73038   0.74302   0.75392   0.76804
 Alpha virt. eigenvalues --    0.80307   0.82441   0.84476   0.84853   0.87327
 Alpha virt. eigenvalues --    0.87673   0.89523   0.91617   0.92387   0.94457
 Alpha virt. eigenvalues --    0.95758   0.96902   0.98452   0.99144   1.00175
 Alpha virt. eigenvalues --    1.00944   1.03646   1.04478   1.06747   1.08835
 Alpha virt. eigenvalues --    1.10547   1.11527   1.11819   1.13047   1.14381
 Alpha virt. eigenvalues --    1.16226   1.20059   1.21296   1.22613   1.24097
 Alpha virt. eigenvalues --    1.25332   1.27050   1.27944   1.29646   1.29970
 Alpha virt. eigenvalues --    1.33771   1.35494   1.37579   1.38044   1.42374
 Alpha virt. eigenvalues --    1.44715   1.47077   1.49073   1.50255   1.52070
 Alpha virt. eigenvalues --    1.53062   1.53372   1.55825   1.56288   1.57596
 Alpha virt. eigenvalues --    1.58457   1.59190   1.61403   1.61718   1.62911
 Alpha virt. eigenvalues --    1.64578   1.65160   1.67091   1.67158   1.68044
 Alpha virt. eigenvalues --    1.69942   1.71073   1.71388   1.74352   1.77792
 Alpha virt. eigenvalues --    1.78294   1.79203   1.80651   1.83935   1.85274
 Alpha virt. eigenvalues --    1.85823   1.89358   1.92263   1.94041   1.94205
 Alpha virt. eigenvalues --    1.96599   1.97668   1.98733   2.00519   2.01844
 Alpha virt. eigenvalues --    2.03440   2.07140   2.08222   2.08962   2.12283
 Alpha virt. eigenvalues --    2.13701   2.14867   2.17389   2.19798   2.22582
 Alpha virt. eigenvalues --    2.24166   2.25457   2.26087   2.27886   2.29370
 Alpha virt. eigenvalues --    2.30481   2.33035   2.33793   2.35383   2.36810
 Alpha virt. eigenvalues --    2.40489   2.40708   2.42905   2.43588   2.45656
 Alpha virt. eigenvalues --    2.46432   2.47960   2.48167   2.50358   2.52011
 Alpha virt. eigenvalues --    2.52349   2.54620   2.56017   2.57026   2.58510
 Alpha virt. eigenvalues --    2.60156   2.61558   2.62538   2.64691   2.65147
 Alpha virt. eigenvalues --    2.66086   2.68510   2.68850   2.70347   2.72674
 Alpha virt. eigenvalues --    2.74601   2.75239   2.77440   2.79090   2.79688
 Alpha virt. eigenvalues --    2.82158   2.82697   2.83414   2.84961   2.86575
 Alpha virt. eigenvalues --    2.88834   2.90216   2.92930   2.95153   2.96862
 Alpha virt. eigenvalues --    2.97411   2.99522   3.00876   3.04305   3.05627
 Alpha virt. eigenvalues --    3.06787   3.07721   3.09045   3.09567   3.11163
 Alpha virt. eigenvalues --    3.11924   3.12855   3.15397   3.16701   3.18943
 Alpha virt. eigenvalues --    3.19932   3.21039   3.21766   3.23109   3.23582
 Alpha virt. eigenvalues --    3.24066   3.26673   3.27519   3.29671   3.30250
 Alpha virt. eigenvalues --    3.31109   3.31368   3.33982   3.34063   3.35726
 Alpha virt. eigenvalues --    3.36979   3.38044   3.38644   3.41484   3.43590
 Alpha virt. eigenvalues --    3.44317   3.45181   3.47300   3.47872   3.48552
 Alpha virt. eigenvalues --    3.50514   3.51779   3.52094   3.52555   3.55275
 Alpha virt. eigenvalues --    3.57486   3.58372   3.59351   3.61741   3.66706
 Alpha virt. eigenvalues --    3.67655   3.68548   3.70476   3.73618   3.75583
 Alpha virt. eigenvalues --    3.78672   3.80313   3.86840   3.87745   3.91421
 Alpha virt. eigenvalues --    3.93898   4.02799   4.03053   4.06951   4.10001
 Alpha virt. eigenvalues --    4.10808   4.12644   4.13822   4.14669   4.16485
 Alpha virt. eigenvalues --    4.19656   4.22035   4.24171   4.27181   4.28060
 Alpha virt. eigenvalues --    4.29982   4.31680   4.37003   4.41928   4.47825
 Alpha virt. eigenvalues --    4.51420   4.54253   4.55703   4.58120   4.64820
 Alpha virt. eigenvalues --    4.67257   4.70437   4.73869   4.79398   4.82435
 Alpha virt. eigenvalues --    4.84207   4.88130   4.91365   4.99779   5.09063
 Alpha virt. eigenvalues --    5.23143   5.24581   5.37025   5.47223   5.58826
 Alpha virt. eigenvalues --    5.68945   5.76620   5.89699   5.90795   6.10939
 Alpha virt. eigenvalues --    6.25043   6.33783   6.37715   6.42522   6.43353
 Alpha virt. eigenvalues --    6.47810   6.65232   6.75886   6.81949   6.86306
 Alpha virt. eigenvalues --    6.95584   7.07478   7.13872   7.32919  22.38869
 Alpha virt. eigenvalues --   22.43931  22.47903  22.57320  22.73247  22.82678
 Alpha virt. eigenvalues --   23.03738  23.13617  44.01552  44.37652
          Condensed to atoms (all electrons):
               1          2          3          4          5          6
     1  C    5.367628   0.082366  -0.069450   0.175521   0.430585   0.420676
     2  C    0.082366   5.224990  -0.036409  -0.018376  -0.025459  -0.023965
     3  C   -0.069450  -0.036409   5.375611   0.121667   0.005294   0.003951
     4  C    0.175521  -0.018376   0.121667   6.000943  -0.058600  -0.038472
     5  H    0.430585  -0.025459   0.005294  -0.058600   0.482331  -0.013793
     6  H    0.420676  -0.023965   0.003951  -0.038472  -0.013793   0.485345
     7  H   -0.022469   0.000405  -0.016182   0.370511   0.002682  -0.004825
     8  C   -0.057325   0.357363  -0.049069  -0.057962  -0.003031  -0.002107
     9  C   -0.010180  -0.030253   0.374051   0.014232  -0.000028   0.002391
    10  H   -0.011962   0.423833   0.001680   0.002630  -0.000752   0.000487
    11  H    0.003296  -0.000907   0.405060  -0.021026  -0.000050  -0.000113
    12  H   -0.041987   0.448911   0.003538  -0.016046   0.003734  -0.004698
    13  H   -0.008191  -0.001889   0.454154  -0.022371  -0.000236   0.000575
    14  C    0.053730   0.005927  -0.070860   0.035577  -0.000134   0.000628
    15  O    0.008752  -0.000068  -0.008096  -0.113254   0.000185  -0.000250
    16  H    0.055953  -0.001130  -0.017683  -0.252996   0.000052  -0.000397
    17  O    0.003236   0.008681  -0.081738  -0.003863  -0.000451  -0.000012
    18  C    0.000495  -0.002539   0.003560   0.001240  -0.000054  -0.000019
    19  H   -0.000023   0.000165  -0.000032  -0.000057  -0.000000   0.000000
    20  H    0.000452   0.001156  -0.001702  -0.000112  -0.000061  -0.000000
    21  H   -0.001541  -0.003342   0.003011   0.000618   0.000559   0.000006
    22  H   -0.001965  -0.025757   0.002270  -0.000086   0.001022  -0.000185
               7          8          9         10         11         12
     1  C   -0.022469  -0.057325  -0.010180  -0.011962   0.003296  -0.041987
     2  C    0.000405   0.357363  -0.030253   0.423833  -0.000907   0.448911
     3  C   -0.016182  -0.049069   0.374051   0.001680   0.405060   0.003538
     4  C    0.370511  -0.057962   0.014232   0.002630  -0.021026  -0.016046
     5  H    0.002682  -0.003031  -0.000028  -0.000752  -0.000050   0.003734
     6  H   -0.004825  -0.002107   0.002391   0.000487  -0.000113  -0.004698
     7  H    0.477275   0.003187  -0.000003  -0.000106   0.001835   0.001370
     8  C    0.003187   5.385090   0.265924  -0.047562   0.011229  -0.059742
     9  C   -0.000003   0.265924   5.070145   0.004862  -0.052738  -0.002886
    10  H   -0.000106  -0.047562   0.004862   0.483806  -0.000009  -0.015389
    11  H    0.001835   0.011229  -0.052738  -0.000009   0.443016   0.000147
    12  H    0.001370  -0.059742  -0.002886  -0.015389   0.000147   0.497524
    13  H   -0.004468   0.012670  -0.085318   0.000082  -0.005845   0.001193
    14  C    0.004765   0.003925  -0.005012  -0.000281   0.008019   0.000968
    15  O    0.006432   0.000942  -0.003254   0.000003   0.004805   0.000015
    16  H    0.007086  -0.003985   0.023667   0.000112   0.002772   0.000036
    17  O   -0.000122  -0.070000   0.324861  -0.000155   0.008028  -0.000140
    18  C   -0.000020  -0.003051  -0.088214  -0.000103   0.000470   0.000001
    19  H    0.000000   0.000432   0.005686  -0.000001  -0.000158   0.000003
    20  H   -0.000001   0.004383  -0.020804  -0.000038   0.000149  -0.000087
    21  H    0.000014  -0.000966   0.009359   0.000124  -0.000001   0.000078
    22  H    0.000028   0.439902  -0.059805  -0.004181  -0.000065   0.002460
              13         14         15         16         17         18
     1  C   -0.008191   0.053730   0.008752   0.055953   0.003236   0.000495
     2  C   -0.001889   0.005927  -0.000068  -0.001130   0.008681  -0.002539
     3  C    0.454154  -0.070860  -0.008096  -0.017683  -0.081738   0.003560
     4  C   -0.022371   0.035577  -0.113254  -0.252996  -0.003863   0.001240
     5  H   -0.000236  -0.000134   0.000185   0.000052  -0.000451  -0.000054
     6  H    0.000575   0.000628  -0.000250  -0.000397  -0.000012  -0.000019
     7  H   -0.004468   0.004765   0.006432   0.007086  -0.000122  -0.000020
     8  C    0.012670   0.003925   0.000942  -0.003985  -0.070000  -0.003051
     9  C   -0.085318  -0.005012  -0.003254   0.023667   0.324861  -0.088214
    10  H    0.000082  -0.000281   0.000003   0.000112  -0.000155  -0.000103
    11  H   -0.005845   0.008019   0.004805   0.002772   0.008028   0.000470
    12  H    0.001193   0.000968   0.000015   0.000036  -0.000140   0.000001
    13  H    0.480252   0.001661  -0.000149  -0.000772   0.002684  -0.000367
    14  C    0.001661   4.705836   0.648606   0.493825   0.009813  -0.000587
    15  O   -0.000149   0.648606   7.825171  -0.066657  -0.000044   0.000258
    16  H   -0.000772   0.493825  -0.066657   0.688839  -0.001992  -0.004078
    17  O    0.002684   0.009813  -0.000044  -0.001992   7.965596   0.232710
    18  C   -0.000367  -0.000587   0.000258  -0.004078   0.232710   4.921876
    19  H    0.000016   0.000014  -0.000002   0.000107  -0.031479   0.403667
    20  H    0.000048   0.000290  -0.000005   0.000076  -0.036933   0.427058
    21  H   -0.000106  -0.001912  -0.000045   0.000907  -0.048447   0.401877
    22  H    0.000404   0.000359   0.000003  -0.000241  -0.004668   0.004179
              19         20         21         22
     1  C   -0.000023   0.000452  -0.001541  -0.001965
     2  C    0.000165   0.001156  -0.003342  -0.025757
     3  C   -0.000032  -0.001702   0.003011   0.002270
     4  C   -0.000057  -0.000112   0.000618  -0.000086
     5  H   -0.000000  -0.000061   0.000559   0.001022
     6  H    0.000000  -0.000000   0.000006  -0.000185
     7  H    0.000000  -0.000001   0.000014   0.000028
     8  C    0.000432   0.004383  -0.000966   0.439902
     9  C    0.005686  -0.020804   0.009359  -0.059805
    10  H   -0.000001  -0.000038   0.000124  -0.004181
    11  H   -0.000158   0.000149  -0.000001  -0.000065
    12  H    0.000003  -0.000087   0.000078   0.002460
    13  H    0.000016   0.000048  -0.000106   0.000404
    14  C    0.000014   0.000290  -0.001912   0.000359
    15  O   -0.000002  -0.000005  -0.000045   0.000003
    16  H    0.000107   0.000076   0.000907  -0.000241
    17  O   -0.031479  -0.036933  -0.048447  -0.004668
    18  C    0.403667   0.427058   0.401877   0.004179
    19  H    0.503540  -0.022039  -0.017313   0.000151
    20  H   -0.022039   0.560588  -0.060179  -0.003585
    21  H   -0.017313  -0.060179   0.577474  -0.002289
    22  H    0.000151  -0.003585  -0.002289   0.491897
 Mulliken charges:
               1
     1  C   -0.377596
     2  C   -0.383703
     3  C   -0.402628
     4  C   -0.119716
     5  H    0.176204
     6  H    0.174776
     7  H    0.172607
     8  C   -0.130247
     9  C    0.263317
    10  H    0.162918
    11  H    0.192088
    12  H    0.180998
    13  H    0.175975
    14  C    0.104843
    15  O   -0.303349
    16  H    0.076500
    17  O   -0.275564
    18  C   -0.298361
    19  H    0.157325
    20  H    0.151346
    21  H    0.142115
    22  H    0.160152
 Sum of Mulliken charges =  -0.00000
 Mulliken charges with hydrogens summed into heavy atoms:
               1
     1  C   -0.026616
     2  C   -0.039787
     3  C   -0.034565
     4  C    0.052891
     8  C    0.029905
     9  C    0.263317
    14  C    0.181343
    15  O   -0.303349
    17  O   -0.275564
    18  C    0.152425
 Electronic spatial extent (au):  <R**2>=           1569.4722
 Charge=             -0.0000 electrons
 Dipole moment (field-independent basis, Debye):
    X=             -2.2381    Y=              3.9459    Z=             -1.2575  Tot=              4.7075
 Quadrupole moment (field-independent basis, Debye-Ang):
   XX=            -63.5793   YY=            -65.4694   ZZ=            -58.4916
   XY=              9.3754   XZ=              5.3921   YZ=              0.5541
 Traceless Quadrupole moment (field-independent basis, Debye-Ang):
   XX=             -1.0659   YY=             -2.9559   ZZ=              4.0218
   XY=              9.3754   XZ=              5.3921   YZ=              0.5541
 Octapole moment (field-independent basis, Debye-Ang**2):
  XXX=            -29.2415  YYY=             15.0377  ZZZ=             -0.2810  XYY=            -14.4674
  XXY=              8.6412  XXZ=             -6.6861  XZZ=              2.6714  YZZ=             -4.2178
  YYZ=             -3.1993  XYZ=             -0.1443
 Hexadecapole moment (field-independent basis, Debye-Ang**3):
 XXXX=          -1058.6593 YYYY=           -748.0203 ZZZZ=           -278.3473 XXXY=             55.0929
 XXXZ=             32.4240 YYYX=             59.5267 YYYZ=            -11.1538 ZZZX=              9.1976
 ZZZY=             -1.4322 XXYY=           -327.9553 XXZZ=           -224.2281 YYZZ=           -163.0896
 XXYZ=              7.9599 YYXZ=             12.7677 ZZXY=             -0.2263
 N-N= 5.317281943120D+02 E-N=-2.141164191898D+03  KE= 4.600379185527D+02
 Unable to Open any file for archive entry.
 1\1\GINC-NODE09\SP\RM062X\def2TZVP\C8H12O2\RPATON\21-Jun-2022\0\\# M06
 2X/def2tzvp\\DATS_13_endo_iii_TZVPcreated by GaussianPrep\\0,1\C,0,1.5
 92419,1.385897,-0.726054\C,0,-0.257361,2.307206,0.024929\C,0,0.023828,
 -0.104371,1.501304\C,0,1.873774,0.26925,0.034707\H,0,1.194235,1.25507,
 -1.727926\H,0,2.139471,2.308051,-0.559591\H,0,2.556282,0.320037,0.8784
 6\C,0,-1.172437,1.285835,-0.092804\C,0,-1.022524,0.076516,0.629181\H,0
 ,-0.359972,3.184215,-0.607277\H,0,0.194585,-1.088632,1.924019\H,0,0.27
 9207,2.476365,0.951162\H,0,0.467603,0.738436,2.011039\C,0,1.610821,-1.
 075616,-0.504492\O,0,2.130197,-2.097947,-0.118888\H,0,0.873249,-1.0845
 87,-1.340973\O,0,-1.763097,-1.038143,0.356285\C,0,-2.622668,-1.018114,
 -0.760354\H,0,-3.067595,-2.011662,-0.813382\H,0,-3.420111,-0.273898,-0
 .64524\H,0,-2.07354,-0.81796,-1.689453\H,0,-1.875321,1.323667,-0.91851
 9\\Version=AS64L-G16RevC.01\State=1-A\HF=-462.3657248\RMSD=4.997e-09\D
 ipole=-0.8805454,1.5524441,-0.4947507\Quadrupole=-0.7924583,-2.1976782
 ,2.9901365,6.9703906,4.0088845,0.4119877\PG=C01 [X(C8H12O2)]\\@
 The archive entry for this job was punched.


 Statistics are no substitute for judgment.
                            -- Henry Clay
 Job cpu time:       0 days  0 hours 15 minutes 59.3 seconds.
 Elapsed time:       0 days  0 hours  1 minutes  2.8 seconds.
 File lengths (MBytes):  RWF=     83 Int=      0 D2E=      0 Chk=     10 Scr=      1
 Normal termination of Gaussian 16 at Tue Jun 21 11:23:49 2022.
