Job Start Time: Fri Mar 15 07:41:06 MDT 2019
SLURM Job ID: 1989617
SLURM Job Name: TolS-1
 Entering Gaussian System, Link 0=/projects/rpaton@colostate.edu/g16/g16
 Initial command:
 /projects/rpaton@colostate.edu/g16/l1.exe "/gpfs/summit/scratch/jvalegre@colostate.edu/1989617/Gau-78400.inp" -scrdir="/gpfs/summit/scratch/jvalegre@colostate.edu/1989617/"
 Entering Link 1 = /projects/rpaton@colostate.edu/g16/l1.exe PID=     78401.
  
 Copyright (c) 1988-2017, Gaussian, Inc.  All Rights Reserved.
  
 This is part of the Gaussian(R) 16 program.  It is based on
 the Gaussian(R) 09 system (copyright 2009, Gaussian, Inc.),
 the Gaussian(R) 03 system (copyright 2003, Gaussian, Inc.),
 the Gaussian(R) 98 system (copyright 1998, Gaussian, Inc.),
 the Gaussian(R) 94 system (copyright 1995, Gaussian, Inc.),
 the Gaussian 92(TM) system (copyright 1992, Gaussian, Inc.),
 the Gaussian 90(TM) system (copyright 1990, Gaussian, Inc.),
 the Gaussian 88(TM) system (copyright 1988, Gaussian, Inc.),
 the Gaussian 86(TM) system (copyright 1986, Carnegie Mellon
 University), and the Gaussian 82(TM) system (copyright 1983,
 Carnegie Mellon University). Gaussian is a federally registered
 trademark of Gaussian, Inc.
  
 This software contains proprietary and confidential information,
 including trade secrets, belonging to Gaussian, Inc.
  
 This software is provided under written license and may be
 used, copied, transmitted, or stored only in accord with that
 written license.
  
 The following legend is applicable only to US Government
 contracts under FAR:
  
                    RESTRICTED RIGHTS LEGEND
  
 Use, reproduction and disclosure by the US Government is
 subject to restrictions as set forth in subparagraphs (a)
 and (c) of the Commercial Computer Software - Restricted
 Rights clause in FAR 52.227-19.
  
 Gaussian, Inc.
 340 Quinnipiac St., Bldg. 40, Wallingford CT 06492
  
  
 ---------------------------------------------------------------
 Warning -- This program may not be used in any manner that
 competes with the business of Gaussian, Inc. or will provide
 assistance to any competitor of Gaussian, Inc.  The licensee
 of this program is prohibited from giving any competitor of
 Gaussian, Inc. access to this program.  By using this program,
 the user acknowledges that Gaussian, Inc. is engaged in the
 business of creating and licensing software in the field of
 computational chemistry and represents and warrants to the
 licensee that it is not a competitor of Gaussian, Inc. and that
 it will not use this program in any manner prohibited above.
 ---------------------------------------------------------------
  

 Cite this work as:
 Gaussian 16, Revision B.01,
 M. J. Frisch, G. W. Trucks, H. B. Schlegel, G. E. Scuseria, 
 M. A. Robb, J. R. Cheeseman, G. Scalmani, V. Barone, 
 G. A. Petersson, H. Nakatsuji, X. Li, M. Caricato, A. V. Marenich, 
 J. Bloino, B. G. Janesko, R. Gomperts, B. Mennucci, H. P. Hratchian, 
 J. V. Ortiz, A. F. Izmaylov, J. L. Sonnenberg, D. Williams-Young, 
 F. Ding, F. Lipparini, F. Egidi, J. Goings, B. Peng, A. Petrone, 
 T. Henderson, D. Ranasinghe, V. G. Zakrzewski, J. Gao, N. Rega, 
 G. Zheng, W. Liang, M. Hada, M. Ehara, K. Toyota, R. Fukuda, 
 J. Hasegawa, M. Ishida, T. Nakajima, Y. Honda, O. Kitao, H. Nakai, 
 T. Vreven, K. Throssell, J. A. Montgomery, Jr., J. E. Peralta, 
 F. Ogliaro, M. J. Bearpark, J. J. Heyd, E. N. Brothers, K. N. Kudin, 
 V. N. Staroverov, T. A. Keith, R. Kobayashi, J. Normand, 
 K. Raghavachari, A. P. Rendell, J. C. Burant, S. S. Iyengar, 
 J. Tomasi, M. Cossi, J. M. Millam, M. Klene, C. Adamo, R. Cammi, 
 J. W. Ochterski, R. L. Martin, K. Morokuma, O. Farkas, 
 J. B. Foresman, and D. J. Fox, Gaussian, Inc., Wallingford CT, 2016.
 
 ******************************************
 Gaussian 16:  ES64L-G16RevB.01 20-Dec-2017
                15-Mar-2019 
 ******************************************
 %chk=Aro_anti_DATS_NH_TS_opt.chk
 %mem=98GB
 %nprocshared=24
 Will use up to   24 processors via shared memory.
 ----------------------------------------------------------------------
 # opt=maxcycles=200 freq=noraman wb97xd/6-311+g(d,p) geom=connectivity
  scrf=(solvent=n,n-DiMethylAcetamide,smd)
 ----------------------------------------------------------------------
 1/6=200,18=20,19=15,26=3,38=1,57=2/1,3;
 2/9=110,12=2,17=6,18=5,40=1/2;
 3/5=4,6=6,7=111,11=2,25=1,30=1,70=32201,71=1,72=147,74=-58/1,2,3;
 4//1;
 5/5=2,38=5,53=147/2;
 6/7=2,8=2,9=2,10=2,28=1/1;
 7//1,2,3,16;
 1/6=200,18=20,19=15,26=3/3(2);
 2/9=110/2;
 99//99;
 2/9=110/2;
 3/5=4,6=6,7=111,11=2,25=1,30=1,70=32205,71=1,72=147,74=-58/1,2,3;
 4/5=5,16=3,69=1/1;
 5/5=2,38=5,53=147/2;
 7//1,2,3,16;
 1/6=200,18=20,19=15,26=3/3(-5);
 2/9=110/2;
 6/7=2,8=2,9=2,10=2,19=2,28=1/1;
 99/9=1/99;
 -------------------
 Title Card Required
 -------------------
 Symbolic Z-matrix:
 Charge = -1 Multiplicity = 1
 C                    -0.29468   1.19971  -0.00377 
 C                    -0.99438  -0.00597   0.00041 
 C                    -0.28553  -1.20672  -0.00378 
 C                     1.10403  -1.19422  -0.01034 
 C                     1.82095   0.00321  -0.01087 
 C                     1.09543   1.19515  -0.01051 
 H                    -0.8268    2.14527  -0.00534 
 H                    -0.81215  -2.15563  -0.00533 
 H                     1.63924  -2.13891  -0.01677 
 H                     1.62416   2.14358  -0.01707 
 S                    -2.77612  -0.0796    0.00603 
 C                     3.32575   0.00883   0.0147 
 H                     3.69536   0.01579   1.04575 
 H                     3.73379  -0.87865  -0.47484 
 H                     3.72733   0.89397  -0.48438 
 

 GradGradGradGradGradGradGradGradGradGradGradGradGradGradGradGradGradGrad
 Berny optimization.
 Initialization pass.
                           ----------------------------
                           !    Initial Parameters    !
                           ! (Angstroms and Degrees)  !
 --------------------------                            --------------------------
 ! Name  Definition              Value          Derivative Info.                !
 --------------------------------------------------------------------------------
 ! R1    R(1,2)                  1.394          estimate D2E/DX2                !
 ! R2    R(1,6)                  1.3901         estimate D2E/DX2                !
 ! R3    R(1,7)                  1.085          estimate D2E/DX2                !
 ! R4    R(2,3)                  1.3944         estimate D2E/DX2                !
 ! R5    R(2,11)                 1.7833         estimate D2E/DX2                !
 ! R6    R(3,4)                  1.3896         estimate D2E/DX2                !
 ! R7    R(3,8)                  1.0853         estimate D2E/DX2                !
 ! R8    R(4,5)                  1.3956         estimate D2E/DX2                !
 ! R9    R(4,9)                  1.0858         estimate D2E/DX2                !
 ! R10   R(5,6)                  1.3954         estimate D2E/DX2                !
 ! R11   R(5,12)                 1.505          estimate D2E/DX2                !
 ! R12   R(6,10)                 1.0859         estimate D2E/DX2                !
 ! R13   R(12,13)                1.0953         estimate D2E/DX2                !
 ! R14   R(12,14)                1.0926         estimate D2E/DX2                !
 ! R15   R(12,15)                1.0926         estimate D2E/DX2                !
 ! A1    A(2,1,6)              119.9406         estimate D2E/DX2                !
 ! A2    A(2,1,7)              120.5034         estimate D2E/DX2                !
 ! A3    A(6,1,7)              119.5557         estimate D2E/DX2                !
 ! A4    A(1,2,3)              119.3158         estimate D2E/DX2                !
 ! A5    A(1,2,11)             122.4945         estimate D2E/DX2                !
 ! A6    A(3,2,11)             118.1894         estimate D2E/DX2                !
 ! A7    A(2,3,4)              120.0405         estimate D2E/DX2                !
 ! A8    A(2,3,8)              120.4152         estimate D2E/DX2                !
 ! A9    A(4,3,8)              119.544          estimate D2E/DX2                !
 ! A10   A(3,4,5)              121.4248         estimate D2E/DX2                !
 ! A11   A(3,4,9)              119.0191         estimate D2E/DX2                !
 ! A12   A(5,4,9)              119.556          estimate D2E/DX2                !
 ! A13   A(4,5,6)              117.7619         estimate D2E/DX2                !
 ! A14   A(4,5,12)             121.1187         estimate D2E/DX2                !
 ! A15   A(6,5,12)             121.1087         estimate D2E/DX2                !
 ! A16   A(1,6,5)              121.5158         estimate D2E/DX2                !
 ! A17   A(1,6,10)             118.9518         estimate D2E/DX2                !
 ! A18   A(5,6,10)             119.5323         estimate D2E/DX2                !
 ! A19   A(5,12,13)            110.6956         estimate D2E/DX2                !
 ! A20   A(5,12,14)            111.2693         estimate D2E/DX2                !
 ! A21   A(5,12,15)            111.2693         estimate D2E/DX2                !
 ! A22   A(13,12,14)           107.5117         estimate D2E/DX2                !
 ! A23   A(13,12,15)           107.5063         estimate D2E/DX2                !
 ! A24   A(14,12,15)           108.4276         estimate D2E/DX2                !
 ! D1    D(6,1,2,3)             -0.0726         estimate D2E/DX2                !
 ! D2    D(6,1,2,11)          -179.8831         estimate D2E/DX2                !
 ! D3    D(7,1,2,3)            179.7114         estimate D2E/DX2                !
 ! D4    D(7,1,2,11)            -0.099          estimate D2E/DX2                !
 ! D5    D(2,1,6,5)             -0.1147         estimate D2E/DX2                !
 ! D6    D(2,1,6,10)           179.7963         estimate D2E/DX2                !
 ! D7    D(7,1,6,5)           -179.9008         estimate D2E/DX2                !
 ! D8    D(7,1,6,10)             0.0102         estimate D2E/DX2                !
 ! D9    D(1,2,3,4)              0.0808         estimate D2E/DX2                !
 ! D10   D(1,2,3,8)           -179.7122         estimate D2E/DX2                !
 ! D11   D(11,2,3,4)           179.8994         estimate D2E/DX2                !
 ! D12   D(11,2,3,8)             0.1064         estimate D2E/DX2                !
 ! D13   D(2,3,4,5)              0.0979         estimate D2E/DX2                !
 ! D14   D(2,3,4,9)           -179.8046         estimate D2E/DX2                !
 ! D15   D(8,3,4,5)            179.8927         estimate D2E/DX2                !
 ! D16   D(8,3,4,9)             -0.0098         estimate D2E/DX2                !
 ! D17   D(3,4,5,6)             -0.2764         estimate D2E/DX2                !
 ! D18   D(3,4,5,12)           178.5461         estimate D2E/DX2                !
 ! D19   D(9,4,5,6)            179.6257         estimate D2E/DX2                !
 ! D20   D(9,4,5,12)            -1.5519         estimate D2E/DX2                !
 ! D21   D(4,5,6,1)              0.2849         estimate D2E/DX2                !
 ! D22   D(4,5,6,10)          -179.6255         estimate D2E/DX2                !
 ! D23   D(12,5,6,1)          -178.5377         estimate D2E/DX2                !
 ! D24   D(12,5,6,10)            1.5519         estimate D2E/DX2                !
 ! D25   D(4,5,12,13)          -89.6989         estimate D2E/DX2                !
 ! D26   D(4,5,12,14)           29.7879         estimate D2E/DX2                !
 ! D27   D(4,5,12,15)          150.821          estimate D2E/DX2                !
 ! D28   D(6,5,12,13)           89.0841         estimate D2E/DX2                !
 ! D29   D(6,5,12,14)         -151.4291         estimate D2E/DX2                !
 ! D30   D(6,5,12,15)          -30.396          estimate D2E/DX2                !
 --------------------------------------------------------------------------------
 Trust Radius=3.00D-01 FncErr=1.00D-07 GrdErr=1.00D-06 EigMax=2.50D+02 EigMin=1.00D-04
 Number of steps in this run=    100 maximum allowed number of steps=    100.
 GradGradGradGradGradGradGradGradGradGradGradGradGradGradGradGradGradGrad

                          Input orientation:                          
 ---------------------------------------------------------------------
 Center     Atomic      Atomic             Coordinates (Angstroms)
 Number     Number       Type             X           Y           Z
 ---------------------------------------------------------------------
      1          6           0       -0.294684    1.199711   -0.003773
      2          6           0       -0.994381   -0.005971    0.000410
      3          6           0       -0.285525   -1.206717   -0.003780
      4          6           0        1.104032   -1.194220   -0.010344
      5          6           0        1.820954    0.003205   -0.010865
      6          6           0        1.095432    1.195153   -0.010510
      7          1           0       -0.826800    2.145272   -0.005337
      8          1           0       -0.812154   -2.155627   -0.005332
      9          1           0        1.639243   -2.138915   -0.016772
     10          1           0        1.624159    2.143580   -0.017074
     11         16           0       -2.776118   -0.079596    0.006027
     12          6           0        3.325751    0.008834    0.014699
     13          1           0        3.695355    0.015788    1.045748
     14          1           0        3.733788   -0.878646   -0.474840
     15          1           0        3.727328    0.893971   -0.484383
 ---------------------------------------------------------------------
                    Distance matrix (angstroms):
                    1          2          3          4          5
     1  C    0.000000
     2  C    1.394009   0.000000
     3  C    2.406445   1.394376   0.000000
     4  C    2.772608   2.411512   1.389629   0.000000
     5  C    2.430556   2.815373   2.429242   1.395638   0.000000
     6  C    1.390140   2.410422   2.770572   2.389388   1.395393
     7  H    1.085005   2.157768   3.395410   3.857505   3.405743
     8  H    3.395007   2.157374   1.085251   2.143851   3.404973
     9  H    3.858324   3.389059   2.138666   1.085790   2.149821
    10  H    2.138463   3.387865   3.856366   3.378089   2.149412
    11  S    2.791816   1.783266   2.733780   4.037105   4.597849
    12  C    3.811309   4.320181   3.810409   2.526658   1.505025
    13  H    4.292270   4.804876   4.294582   3.048673   2.151736
    14  H    4.557418   4.831460   4.060099   2.689044   2.156819
    15  H    4.062148   4.831093   4.554872   3.386287   2.156837
                    6          7          8          9         10
     6  C    0.000000
     7  H    2.144232   0.000000
     8  H    3.855728   4.300924   0.000000
     9  H    3.378132   4.943254   2.451481   0.000000
    10  H    1.085868   2.450988   4.941552   4.282522   0.000000
    11  S    4.076047   2.958041   2.857829   4.872035   4.930059
    12  C    2.526324   4.669952   4.669856   2.730957   2.730122
    13  H    3.044040   5.107775   5.112480   3.162165   3.153877
    14  H    3.387797   5.492129   4.745177   2.487011   3.714019
    15  H    2.691123   4.747138   5.489666   3.711759   2.490626
                   11         12         13         14         15
    11  S    0.000000
    12  C    6.102516   0.000000
    13  H    6.555157   1.095316   0.000000
    14  H    6.576366   1.092595   1.764561   0.000000
    15  H    6.594175   1.092618   1.764519   1.772654   0.000000
 Stoichiometry    C7H7S(1-)
 Framework group  C1[X(C7H7S)]
 Deg. of freedom    39
 Full point group                 C1      NOp   1
 Largest Abelian subgroup         C1      NOp   1
 Largest concise Abelian subgroup C1      NOp   1
                         Standard orientation:                         
 ---------------------------------------------------------------------
 Center     Atomic      Atomic             Coordinates (Angstroms)
 Number     Number       Type             X           Y           Z
 ---------------------------------------------------------------------
      1          6           0       -0.320089    1.224493   -0.003672
      2          6           0       -1.040048    0.030800    0.000511
      3          6           0       -0.351571   -1.181746   -0.003679
      4          6           0        1.037999   -1.192717   -0.010243
      5          6           0        1.775041   -0.007571   -0.010764
      6          6           0        1.069752    1.196460   -0.010409
      7          1           0       -0.836161    2.178906   -0.005236
      8          1           0       -0.894150   -2.121627   -0.005231
      9          1           0        1.557180   -2.146316   -0.016671
     10          1           0        1.614420    2.135823   -0.016973
     11         16           0       -2.822774   -0.012725    0.006128
     12          6           0        3.279718   -0.027355    0.014800
     13          1           0        3.649387   -0.026644    1.045849
     14          1           0        3.672709   -0.921599   -0.474739
     15          1           0        3.696186    0.850874   -0.484282
 ---------------------------------------------------------------------
 Rotational constants (GHZ):           5.5690091           0.9876233           0.8432656
 Standard basis: 6-311+G(d,p) (5D, 7F)
 There are   234 symmetry adapted cartesian basis functions of A   symmetry.
 There are   226 symmetry adapted basis functions of A   symmetry.
   226 basis functions,   358 primitive gaussians,   234 cartesian basis functions
    33 alpha electrons       33 beta electrons
       nuclear repulsion energy       382.2220954606 Hartrees.
 NAtoms=   15 NActive=   15 NUniq=   15 SFac= 1.00D+00 NAtFMM=   60 NAOKFM=F Big=F
 Integral buffers will be    131072 words long.
 Raffenetti 2 integral format.
 Two-electron integral symmetry is turned on.
 Nuclear repulsion after empirical dispersion term =      382.2152551138 Hartrees.
 ------------------------------------------------------------------------------
 Polarizable Continuum Model (PCM)
 =================================
 Model                : PCM.
 Atomic radii         : SMD-Coulomb.
 Polarization charges : Total charges.
 Charge compensation  : None.
 Solution method      : On-the-fly selection.
 Cavity type          : VdW (van der Waals Surface) (Alpha=1.000).
 Cavity algorithm     : GePol (No added spheres)
                        Default sphere list used, NSphG=   15.
                        Lebedev-Laikov grids with approx.  5.0 points / Ang**2.
                        Smoothing algorithm: York/Karplus (Gamma=1.0000).
                        Polarization charges: spherical gaussians, with
                                              point-specific exponents (IZeta= 3).
                        Self-potential: point-specific (ISelfS= 7).
                        Self-field    : sphere-specific E.n sum rule (ISelfD= 2).
 1st derivatives      : Analytical E(r).r(x)/FMM algorithm (CHGder, D1EAlg=3).
                        Cavity 1st derivative terms included.
 Solvent              : n,n-DiMethylAcetamide, Eps=  37.781000 Eps(inf)=   2.067844
 ------------------------------------------------------------------------------
 Spheres list:
 ISph  on   Nord     Re0    Alpha      Xe            Ye            Ze
    1   C      1    1.8500  1.000     -0.320089      1.224493     -0.003672
    2   C      2    1.8500  1.000     -1.040048      0.030800      0.000511
    3   C      3    1.8500  1.000     -0.351571     -1.181746     -0.003679
    4   C      4    1.8500  1.000      1.037999     -1.192717     -0.010243
    5   C      5    1.8500  1.000      1.775041     -0.007571     -0.010764
    6   C      6    1.8500  1.000      1.069752      1.196460     -0.010409
    7   H      7    1.2000  1.000     -0.836161      2.178906     -0.005236
    8   H      8    1.2000  1.000     -0.894150     -2.121627     -0.005231
    9   H      9    1.2000  1.000      1.557180     -2.146316     -0.016671
   10   H     10    1.2000  1.000      1.614420      2.135823     -0.016973
   11   S     11    2.4900  1.000     -2.822774     -0.012725      0.006128
   12   C     12    1.8500  1.000      3.279718     -0.027355      0.014800
   13   H     13    1.2000  1.000      3.649387     -0.026644      1.045849
   14   H     14    1.2000  1.000      3.672709     -0.921599     -0.474739
   15   H     15    1.2000  1.000      3.696186      0.850874     -0.484282
 ------------------------------------------------------------------------------
 ------------------------------------------------------------------------------
 Atomic radii for non-electrostatic terms: SMD-CDS.
 ------------------------------------------------------------------------------
 Nuclear repulsion after PCM non-electrostatic terms =      382.2119040106 Hartrees.
 One-electron integrals computed using PRISM.
 NBasis=   226 RedAO= T EigKep=  2.63D-06  NBF=   226
 NBsUse=   226 1.00D-06 EigRej= -1.00D+00 NBFU=   226
 ExpMin= 4.05D-02 ExpMax= 9.34D+04 ExpMxC= 3.17D+03 IAcc=3 IRadAn=         5 AccDes= 0.00D+00
 Harris functional with IExCor= 4639 and IRadAn=       5 diagonalized for initial guess.
 HarFok:  IExCor= 4639 AccDes= 0.00D+00 IRadAn=         5 IDoV= 1 UseB2=F ITyADJ=14
 ICtDFT=  3500011 ScaDFX=  1.000000  1.000000  1.000000  1.000000
 FoFCou: FMM=F IPFlag=           0 FMFlag=      100000 FMFlg1=           0
         NFxFlg=           0 DoJE=T BraDBF=F KetDBF=T FulRan=T
         wScrn=  0.000000 ICntrl=       500 IOpCl=  0 I1Cent=   200000004 NGrid=           0
         NMat0=    1 NMatS0=      1 NMatT0=    0 NMatD0=    1 NMtDS0=    0 NMtDT0=    0
 Petite list used in FoFCou.
 Requested convergence on RMS density matrix=1.00D-08 within 128 cycles.
 Requested convergence on MAX density matrix=1.00D-06.
 Requested convergence on             energy=1.00D-06.
 No special actions if energy rises.
 Inv3:  Mode=1 IEnd=     5663628.
 Iteration    1 A*A^-1 deviation from unit magnitude is 5.33D-15 for    404.
 Iteration    1 A*A^-1 deviation from orthogonality  is 3.05D-15 for    336    242.
 Iteration    1 A^-1*A deviation from unit magnitude is 4.88D-15 for    404.
 Iteration    1 A^-1*A deviation from orthogonality  is 3.96D-10 for    488    453.
 Iteration    2 A*A^-1 deviation from unit magnitude is 2.89D-15 for    827.
 Iteration    2 A*A^-1 deviation from orthogonality  is 4.04D-15 for    433    404.
 Iteration    2 A^-1*A deviation from unit magnitude is 1.33D-15 for     57.
 Iteration    2 A^-1*A deviation from orthogonality  is 6.70D-16 for    902    839.
 Error on total polarization charges =  0.04835
 SCF Done:  E(RwB97XD) =  -669.272046974     A.U. after   18 cycles
            NFock= 18  Conv=0.62D-09     -V/T= 2.0026
 SMD-CDS (non-electrostatic) energy       (kcal/mol) =      -2.10
 (included in total energy above)

 **********************************************************************

            Population analysis using the SCF Density.

 **********************************************************************

 Orbital symmetries:
       Occupied  (A) (A) (A) (A) (A) (A) (A) (A) (A) (A) (A) (A)
                 (A) (A) (A) (A) (A) (A) (A) (A) (A) (A) (A) (A)
                 (A) (A) (A) (A) (A) (A) (A) (A) (A)
       Virtual   (A) (A) (A) (A) (A) (A) (A) (A) (A) (A) (A) (A)
                 (A) (A) (A) (A) (A) (A) (A) (A) (A) (A) (A) (A)
                 (A) (A) (A) (A) (A) (A) (A) (A) (A) (A) (A) (A)
                 (A) (A) (A) (A) (A) (A) (A) (A) (A) (A) (A) (A)
                 (A) (A) (A) (A) (A) (A) (A) (A) (A) (A) (A) (A)
                 (A) (A) (A) (A) (A) (A) (A) (A) (A) (A) (A) (A)
                 (A) (A) (A) (A) (A) (A) (A) (A) (A) (A) (A) (A)
                 (A) (A) (A) (A) (A) (A) (A) (A) (A) (A) (A) (A)
                 (A) (A) (A) (A) (A) (A) (A) (A) (A) (A) (A) (A)
                 (A) (A) (A) (A) (A) (A) (A) (A) (A) (A) (A) (A)
                 (A) (A) (A) (A) (A) (A) (A) (A) (A) (A) (A) (A)
                 (A) (A) (A) (A) (A) (A) (A) (A) (A) (A) (A) (A)
                 (A) (A) (A) (A) (A) (A) (A) (A) (A) (A) (A) (A)
                 (A) (A) (A) (A) (A) (A) (A) (A) (A) (A) (A) (A)
                 (A) (A) (A) (A) (A) (A) (A) (A) (A) (A) (A) (A)
                 (A) (A) (A) (A) (A) (A) (A) (A) (A) (A) (A) (A)
                 (A)
 The electronic state is 1-A.
 Alpha  occ. eigenvalues --  -88.91586 -10.29161 -10.27783 -10.27171 -10.27106
 Alpha  occ. eigenvalues --  -10.26624 -10.26496 -10.26445  -7.95641  -5.90623
 Alpha  occ. eigenvalues --   -5.89904  -5.89816  -0.95035  -0.86572  -0.83249
 Alpha  occ. eigenvalues --   -0.78311  -0.70384  -0.68670  -0.64489  -0.55284
 Alpha  occ. eigenvalues --   -0.53865  -0.51905  -0.49623  -0.49049  -0.45614
 Alpha  occ. eigenvalues --   -0.44280  -0.44079  -0.40615  -0.37210  -0.33479
 Alpha  occ. eigenvalues --   -0.32203  -0.25447  -0.23509
 Alpha virt. eigenvalues --    0.06300   0.06517   0.06763   0.07783   0.08819
 Alpha virt. eigenvalues --    0.09405   0.10832   0.10982   0.11132   0.11452
 Alpha virt. eigenvalues --    0.12303   0.13405   0.14742   0.14830   0.15481
 Alpha virt. eigenvalues --    0.16065   0.16471   0.19172   0.19892   0.20094
 Alpha virt. eigenvalues --    0.20627   0.20756   0.21507   0.22748   0.23244
 Alpha virt. eigenvalues --    0.23258   0.23987   0.25319   0.25927   0.26607
 Alpha virt. eigenvalues --    0.26660   0.28255   0.28672   0.28739   0.28913
 Alpha virt. eigenvalues --    0.30451   0.30526   0.31031   0.32096   0.33625
 Alpha virt. eigenvalues --    0.34398   0.34641   0.35659   0.38601   0.38678
 Alpha virt. eigenvalues --    0.40997   0.43049   0.43292   0.44712   0.47316
 Alpha virt. eigenvalues --    0.49391   0.52479   0.55055   0.55469   0.59619
 Alpha virt. eigenvalues --    0.60773   0.62495   0.63125   0.65229   0.65419
 Alpha virt. eigenvalues --    0.67036   0.67054   0.70253   0.70671   0.71910
 Alpha virt. eigenvalues --    0.72435   0.73972   0.74968   0.75733   0.77144
 Alpha virt. eigenvalues --    0.78467   0.80186   0.81773   0.82837   0.83714
 Alpha virt. eigenvalues --    0.87443   0.88897   0.93349   0.94299   0.95222
 Alpha virt. eigenvalues --    0.95833   0.96111   0.96530   0.96912   0.97852
 Alpha virt. eigenvalues --    1.01940   1.02551   1.04938   1.07643   1.08986
 Alpha virt. eigenvalues --    1.10335   1.11240   1.16827   1.18099   1.18735
 Alpha virt. eigenvalues --    1.19523   1.24059   1.28954   1.39937   1.40892
 Alpha virt. eigenvalues --    1.46148   1.46442   1.50696   1.56999   1.58701
 Alpha virt. eigenvalues --    1.62323   1.62622   1.66133   1.66361   1.67545
 Alpha virt. eigenvalues --    1.70020   1.71139   1.73471   1.75686   1.77119
 Alpha virt. eigenvalues --    1.78297   1.84789   1.85521   1.86876   1.87935
 Alpha virt. eigenvalues --    1.90735   1.92963   1.97503   2.00017   2.02472
 Alpha virt. eigenvalues --    2.02796   2.03986   2.05703   2.08207   2.08711
 Alpha virt. eigenvalues --    2.11846   2.14961   2.17735   2.18875   2.20755
 Alpha virt. eigenvalues --    2.27519   2.29780   2.32742   2.43094   2.45496
 Alpha virt. eigenvalues --    2.46980   2.51738   2.51931   2.55165   2.61084
 Alpha virt. eigenvalues --    2.65988   2.70248   2.71092   2.72245   2.74796
 Alpha virt. eigenvalues --    2.78989   2.79767   2.82291   2.83785   2.86091
 Alpha virt. eigenvalues --    2.87761   2.89008   2.92284   2.95395   3.00211
 Alpha virt. eigenvalues --    3.00231   3.03603   3.05300   3.05911   3.21646
 Alpha virt. eigenvalues --    3.25344   3.28694   3.35871   3.46818   3.54321
 Alpha virt. eigenvalues --    3.61297   3.71392   3.77220   3.92156   3.92309
 Alpha virt. eigenvalues --    3.94161   4.10247   4.25816   4.26272   4.44731
 Alpha virt. eigenvalues --    4.96512   8.10772  17.54271  17.61976  17.71914
 Alpha virt. eigenvalues --   23.69249  24.06545  24.11012  24.11445  24.22199
 Alpha virt. eigenvalues --   24.25944  24.34616 189.35911
          Condensed to atoms (all electrons):
               1          2          3          4          5          6
     1  C    8.117791  -0.644040  -1.290635  -1.028272   0.391749   0.309514
     2  C   -0.644040   8.305070  -0.443846   0.138545  -0.969211  -0.126707
     3  C   -1.290635  -0.443846   8.259209   0.085444   0.467072  -1.224440
     4  C   -1.028272   0.138545   0.085444   7.532160  -0.574662  -0.095204
     5  C    0.391749  -0.969211   0.467072  -0.574662   7.933703  -0.463539
     6  C    0.309514  -0.126707  -1.224440  -0.095204  -0.463539   7.657242
     7  H    0.383386  -0.019671   0.036228  -0.011175   0.024903  -0.049357
     8  H    0.040899  -0.026746   0.363128  -0.032577   0.029531  -0.008317
     9  H   -0.005159   0.002789  -0.002058   0.367420  -0.030099  -0.003941
    10  H   -0.002256   0.004969  -0.004320  -0.004406  -0.032372   0.366851
    11  S    0.319054  -1.368177   0.480040   0.068310   0.041664   0.106435
    12  C   -0.167100   0.071356  -0.250004   0.285482  -1.522725   0.236135
    13  H   -0.000951  -0.002654  -0.000697  -0.043083   0.122268  -0.045521
    14  H    0.003108   0.000273   0.029096   0.170954  -0.161029  -0.120896
    15  H    0.030539   0.000823   0.004343  -0.126930  -0.160851   0.176927
               7          8          9         10         11         12
     1  C    0.383386   0.040899  -0.005159  -0.002256   0.319054  -0.167100
     2  C   -0.019671  -0.026746   0.002789   0.004969  -1.368177   0.071356
     3  C    0.036228   0.363128  -0.002058  -0.004320   0.480040  -0.250004
     4  C   -0.011175  -0.032577   0.367420  -0.004406   0.068310   0.285482
     5  C    0.024903   0.029531  -0.030099  -0.032372   0.041664  -1.522725
     6  C   -0.049357  -0.008317  -0.003941   0.366851   0.106435   0.236135
     7  H    0.481768  -0.000185   0.000034  -0.005605  -0.028979   0.010543
     8  H   -0.000185   0.485177  -0.005649   0.000031  -0.037294   0.010964
     9  H    0.000034  -0.005649   0.478704  -0.000138   0.000220   0.026649
    10  H   -0.005605   0.000031  -0.000138   0.477849   0.000025   0.027484
    11  S   -0.028979  -0.037294   0.000220   0.000025  17.624276  -0.057442
    12  C    0.010543   0.010964   0.026649   0.027484  -0.057442   6.750645
    13  H    0.000004   0.000003   0.000250   0.000253   0.000068   0.331647
    14  H    0.000007  -0.000008   0.000008   0.000271  -0.000019   0.447904
    15  H   -0.000004   0.000008   0.000273  -0.000033  -0.000012   0.444376
              13         14         15
     1  C   -0.000951   0.003108   0.030539
     2  C   -0.002654   0.000273   0.000823
     3  C   -0.000697   0.029096   0.004343
     4  C   -0.043083   0.170954  -0.126930
     5  C    0.122268  -0.161029  -0.160851
     6  C   -0.045521  -0.120896   0.176927
     7  H    0.000004   0.000007  -0.000004
     8  H    0.000003  -0.000008   0.000008
     9  H    0.000250   0.000008   0.000273
    10  H    0.000253   0.000271  -0.000033
    11  S    0.000068  -0.000019  -0.000012
    12  C    0.331647   0.447904   0.444376
    13  H    0.494734  -0.024175  -0.024237
    14  H   -0.024175   0.514488  -0.026616
    15  H   -0.024237  -0.026616   0.514718
 Mulliken charges:
               1
     1  C   -0.457627
     2  C    1.077226
     3  C   -0.508560
     4  C   -0.732006
     5  C    0.903597
     6  C   -0.715181
     7  H    0.178102
     8  H    0.181037
     9  H    0.170696
    10  H    0.171399
    11  S   -1.148169
    12  C   -0.645913
    13  H    0.192091
    14  H    0.166633
    15  H    0.166677
 Sum of Mulliken charges =  -1.00000
 Mulliken charges with hydrogens summed into heavy atoms:
               1
     1  C   -0.279525
     2  C    1.077226
     3  C   -0.327523
     4  C   -0.561310
     5  C    0.903597
     6  C   -0.543782
    11  S   -1.148169
    12  C   -0.120513
 Electronic spatial extent (au):  <R**2>=           1357.0030
 Charge=             -1.0000 electrons
 Dipole moment (field-independent basis, Debye):
    X=             13.0789    Y=             -0.0255    Z=              0.0256  Tot=             13.0789
 Quadrupole moment (field-independent basis, Debye-Ang):
   XX=            -93.7167   YY=            -56.9123   ZZ=            -64.6892
   XY=              0.1441   XZ=              0.1742   YZ=             -0.0010
 Traceless Quadrupole moment (field-independent basis, Debye-Ang):
   XX=            -21.9440   YY=             14.8605   ZZ=              7.0835
   XY=              0.1441   XZ=              0.1742   YZ=             -0.0010
 Octapole moment (field-independent basis, Debye-Ang**2):
  XXX=            144.7906  YYY=              0.0621  ZZZ=              0.8384  XYY=             18.9517
  XXY=             -0.6455  XXZ=             -0.0163  XZZ=             14.9894  YZZ=             -0.0737
  YYZ=             -0.7769  XYZ=             -0.0104
 Hexadecapole moment (field-independent basis, Debye-Ang**3):
 XXXX=          -1913.5906 YYYY=           -322.5225 ZZZZ=            -98.4785 XXXY=              3.7576
 XXXZ=              0.4815 YYYX=              0.1268 YYYZ=              0.0866 ZZZX=              3.2288
 ZZZY=              0.0000 XXYY=           -340.1847 XXZZ=           -309.9780 YYZZ=            -82.5424
 XXYZ=             -0.0705 YYXZ=             -2.5401 ZZXY=             -0.0259
 N-N= 3.822119040106D+02 E-N=-2.352357792395D+03  KE= 6.675303099506D+02
 D1PCM: PCM CHGder 1st derivatives, ID1Alg=3 FixD1E=F DoIter=F DoCFld=F I1PDM=0.
 Calling FoFJK, ICntrl=      2127 FMM=F ISym2X=0 I1Cent= 0 IOpClX= 0 NMat=1 NMatS=1 NMatT=0.
 ***** Axes restored to original set *****
 -------------------------------------------------------------------
 Center     Atomic                   Forces (Hartrees/Bohr)
 Number     Number              X              Y              Z
 -------------------------------------------------------------------
      1        6           0.007864164    0.000493436    0.000011570
      2        6          -0.028114038   -0.005083831    0.000130887
      3        6           0.014178085   -0.000458317   -0.000000911
      4        6          -0.000159356   -0.001633876    0.000040567
      5        6           0.001849499    0.000583279   -0.000719079
      6        6           0.000583769    0.001006093    0.000029188
      7        1          -0.001053352   -0.000800320   -0.000019881
      8        1          -0.000738316    0.001342886   -0.000016482
      9        1           0.001384860   -0.000586500   -0.000022156
     10        1           0.001225206    0.000530413   -0.000019689
     11       16           0.000872231    0.004564874    0.000020826
     12        6          -0.000003230    0.000052869    0.000785610
     13        1           0.001016775   -0.000009258    0.000147381
     14        1           0.000532160   -0.000101321   -0.000190935
     15        1           0.000561544    0.000099574   -0.000176895
 -------------------------------------------------------------------
 Cartesian Forces:  Max     0.028114038 RMS     0.004988904

 GradGradGradGradGradGradGradGradGradGradGradGradGradGradGradGradGradGrad
 Berny optimization.
 FormGI is forming the generalized inverse of G from B-inverse, IUseBI=4.
 Internal  Forces:  Max     0.013659728 RMS     0.003065400
 Search for a local minimum.
 Step number   1 out of a maximum of  100
 All quantities printed in internal units (Hartrees-Bohrs-Radians)
 Mixed Optimization -- RFO/linear search
 Second derivative matrix not updated -- first step.
 ITU=  0
     Eigenvalues ---    0.00699   0.01552   0.02153   0.02166   0.02177
     Eigenvalues ---    0.02179   0.02189   0.02190   0.02200   0.02202
     Eigenvalues ---    0.07121   0.07243   0.16000   0.16000   0.16000
     Eigenvalues ---    0.16000   0.16000   0.16000   0.16000   0.22000
     Eigenvalues ---    0.22965   0.23999   0.24994   0.25000   0.27480
     Eigenvalues ---    0.31856   0.34205   0.34512   0.34514   0.35295
     Eigenvalues ---    0.35304   0.35367   0.35396   0.42455   0.42591
     Eigenvalues ---    0.46466   0.46485   0.46828   0.47341
 RFO step:  Lambda=-2.31847655D-03 EMin= 6.99480961D-03
 Linear search not attempted -- first point.
 Iteration  1 RMS(Cart)=  0.01793397 RMS(Int)=  0.00021571
 Iteration  2 RMS(Cart)=  0.00026314 RMS(Int)=  0.00004642
 Iteration  3 RMS(Cart)=  0.00000002 RMS(Int)=  0.00004642
 Variable       Old X    -DE/DX   Delta X   Delta X   Delta X     New X
                                 (Linear)    (Quad)   (Total)
    R1        2.63430   0.00719   0.00000   0.01584   0.01592   2.65022
    R2        2.62698   0.00367   0.00000   0.00761   0.00762   2.63460
    R3        2.05036  -0.00018   0.00000  -0.00051  -0.00051   2.04985
    R4        2.63499   0.01000   0.00000   0.02195   0.02202   2.65701
    R5        3.36989  -0.00106   0.00000  -0.00382  -0.00382   3.36606
    R6        2.62602   0.00329   0.00000   0.00702   0.00701   2.63303
    R7        2.05083  -0.00082   0.00000  -0.00229  -0.00229   2.04854
    R8        2.63737   0.00075   0.00000   0.00113   0.00105   2.63842
    R9        2.05185   0.00119   0.00000   0.00336   0.00336   2.05520
   R10        2.63691   0.00011   0.00000  -0.00035  -0.00043   2.63649
   R11        2.84408   0.00212   0.00000   0.00660   0.00660   2.85068
   R12        2.05199   0.00106   0.00000   0.00298   0.00298   2.05498
   R13        2.06985   0.00048   0.00000   0.00141   0.00141   2.07125
   R14        2.06470   0.00036   0.00000   0.00105   0.00105   2.06575
   R15        2.06475   0.00037   0.00000   0.00106   0.00106   2.06581
    A1        2.09336   0.00606   0.00000   0.02680   0.02689   2.12025
    A2        2.10318  -0.00438   0.00000  -0.02168  -0.02173   2.08145
    A3        2.08664  -0.00169   0.00000  -0.00512  -0.00516   2.08148
    A4        2.08245  -0.01208   0.00000  -0.04696  -0.04679   2.03566
    A5        2.13793  -0.00158   0.00000  -0.00673  -0.00681   2.13112
    A6        2.06279   0.01366   0.00000   0.05369   0.05360   2.11640
    A7        2.09510   0.00578   0.00000   0.02618   0.02624   2.12134
    A8        2.10164  -0.00422   0.00000  -0.02128  -0.02131   2.08033
    A9        2.08644  -0.00156   0.00000  -0.00490  -0.00493   2.08150
   A10        2.11926   0.00092   0.00000   0.00202   0.00193   2.12119
   A11        2.07728   0.00048   0.00000   0.00478   0.00483   2.08210
   A12        2.08665  -0.00140   0.00000  -0.00681  -0.00676   2.07989
   A13        2.05533  -0.00193   0.00000  -0.01088  -0.01105   2.04428
   A14        2.11392   0.00099   0.00000   0.00549   0.00557   2.11949
   A15        2.11375   0.00095   0.00000   0.00533   0.00541   2.11915
   A16        2.12085   0.00125   0.00000   0.00284   0.00277   2.12362
   A17        2.07610   0.00021   0.00000   0.00371   0.00374   2.07984
   A18        2.08623  -0.00146   0.00000  -0.00655  -0.00651   2.07972
   A19        1.93200   0.00119   0.00000   0.00810   0.00809   1.94009
   A20        1.94202   0.00025   0.00000   0.00113   0.00112   1.94314
   A21        1.94202   0.00031   0.00000   0.00155   0.00154   1.94356
   A22        1.87643  -0.00064   0.00000  -0.00330  -0.00331   1.87312
   A23        1.87634  -0.00065   0.00000  -0.00325  -0.00326   1.87308
   A24        1.89242  -0.00055   0.00000  -0.00477  -0.00477   1.88765
    D1       -0.00127  -0.00001   0.00000  -0.00017  -0.00017  -0.00144
    D2       -3.13955  -0.00002   0.00000  -0.00050  -0.00050  -3.14005
    D3        3.13656  -0.00000   0.00000  -0.00016  -0.00016   3.13640
    D4       -0.00173  -0.00002   0.00000  -0.00049  -0.00049  -0.00222
    D5       -0.00200   0.00000   0.00000   0.00032   0.00032  -0.00169
    D6        3.13804   0.00001   0.00000   0.00075   0.00075   3.13878
    D7       -3.13986   0.00000   0.00000   0.00034   0.00034  -3.13952
    D8        0.00018   0.00002   0.00000   0.00077   0.00077   0.00095
    D9        0.00141   0.00001   0.00000   0.00005   0.00005   0.00146
   D10       -3.13657   0.00001   0.00000   0.00018   0.00018  -3.13639
   D11        3.13984  -0.00000   0.00000   0.00026   0.00027   3.14010
   D12        0.00186  -0.00000   0.00000   0.00039   0.00039   0.00225
   D13        0.00171   0.00000   0.00000  -0.00008  -0.00008   0.00163
   D14       -3.13818  -0.00001   0.00000  -0.00062  -0.00062  -3.13881
   D15        3.13972  -0.00001   0.00000  -0.00024  -0.00024   3.13948
   D16       -0.00017  -0.00002   0.00000  -0.00078  -0.00078  -0.00096
   D17       -0.00482  -0.00001   0.00000   0.00020   0.00020  -0.00463
   D18        3.11622  -0.00007   0.00000  -0.00364  -0.00363   3.11259
   D19        3.13506   0.00000   0.00000   0.00076   0.00076   3.13581
   D20       -0.02709  -0.00005   0.00000  -0.00308  -0.00307  -0.03016
   D21        0.00497   0.00001   0.00000  -0.00033  -0.00032   0.00466
   D22       -3.13506  -0.00000   0.00000  -0.00077  -0.00076  -3.13581
   D23       -3.11607   0.00007   0.00000   0.00352   0.00351  -3.11256
   D24        0.02709   0.00005   0.00000   0.00307   0.00307   0.03015
   D25       -1.56554   0.00006   0.00000   0.00305   0.00306  -1.56248
   D26        0.51990   0.00020   0.00000   0.00499   0.00501   0.52490
   D27        2.63232  -0.00011   0.00000   0.00076   0.00077   2.63309
   D28        1.55481  -0.00003   0.00000  -0.00112  -0.00113   1.55368
   D29       -2.64294   0.00012   0.00000   0.00083   0.00082  -2.64211
   D30       -0.53051  -0.00020   0.00000  -0.00340  -0.00342  -0.53393
         Item               Value     Threshold  Converged?
 Maximum Force            0.013660     0.000450     NO 
 RMS     Force            0.003065     0.000300     NO 
 Maximum Displacement     0.080101     0.001800     NO 
 RMS     Displacement     0.017884     0.001200     NO 
 Predicted change in Energy=-1.169165D-03
 GradGradGradGradGradGradGradGradGradGradGradGradGradGradGradGradGradGrad

                          Input orientation:                          
 ---------------------------------------------------------------------
 Center     Atomic      Atomic             Coordinates (Angstroms)
 Number     Number       Type             X           Y           Z
 ---------------------------------------------------------------------
      1          6           0       -0.300331    1.183867   -0.004265
      2          6           0       -1.029983   -0.013801    0.000685
      3          6           0       -0.284630   -1.206004   -0.004044
      4          6           0        1.108641   -1.194585   -0.011454
      5          6           0        1.829111    0.001354   -0.012582
      6          6           0        1.093815    1.187032   -0.011707
      7          1           0       -0.832681    2.128988   -0.005819
      8          1           0       -0.806746   -2.156022   -0.005411
      9          1           0        1.648538   -2.138659   -0.017575
     10          1           0        1.621592    2.137796   -0.018029
     11         16           0       -2.811057   -0.037208    0.007883
     12          6           0        3.337309    0.011337    0.016719
     13          1           0        3.712973    0.018434    1.046366
     14          1           0        3.750477   -0.873579   -0.474395
     15          1           0        3.739354    0.896874   -0.482500
 ---------------------------------------------------------------------
                    Distance matrix (angstroms):
                    1          2          3          4          5
     1  C    0.000000
     2  C    1.402435   0.000000
     3  C    2.389923   1.406031   0.000000
     4  C    2.764469   2.442971   1.393337   0.000000
     5  C    2.435761   2.859164   2.434273   1.396191   0.000000
     6  C    1.394169   2.439809   2.761665   2.381663   1.395168
     7  H    1.084736   2.151864   3.379725   3.849013   3.407639
     8  H    3.378064   2.153829   1.084039   2.143153   3.406180
     9  H    3.851941   3.419039   2.146431   1.087567   2.147624
    10  H    2.145684   3.414757   3.849010   3.371635   2.146503
    11  S    2.791937   1.781243   2.783714   4.087044   4.640373
    12  C    3.822001   4.367393   3.821098   2.534167   1.508516
    13  H    4.309139   4.856966   4.310851   3.061526   2.161157
    14  H    4.567620   4.880340   4.076006   2.701232   2.161118
    15  H    4.078006   4.879484   4.565464   3.393632   2.161437
                    6          7          8          9         10
     6  C    0.000000
     7  H    2.144458   0.000000
     8  H    3.845540   4.285088   0.000000
     9  H    3.371643   4.936537   2.455376   0.000000
    10  H    1.087446   2.454319   4.932935   4.276540   0.000000
    11  S    4.092331   2.933695   2.916644   4.929983   4.937579
    12  C    2.533048   4.676940   4.676657   2.734155   2.732530
    13  H    3.056981   5.120987   5.124681   3.169687   3.162042
    14  H    3.393826   5.499119   4.757403   2.495448   3.716020
    15  H    2.702724   4.759079   5.496800   3.715122   2.498106
                   11         12         13         14         15
    11  S    0.000000
    12  C    6.148563   0.000000
    13  H    6.606399   1.096060   0.000000
    14  H    6.632182   1.093150   1.763465   0.000000
    15  H    6.634822   1.093178   1.763459   1.770507   0.000000
 Stoichiometry    C7H7S(1-)
 Framework group  C1[X(C7H7S)]
 Deg. of freedom    39
 Full point group                 C1      NOp   1
 Largest Abelian subgroup         C1      NOp   1
 Largest concise Abelian subgroup C1      NOp   1
                         Standard orientation:                         
 ---------------------------------------------------------------------
 Center     Atomic      Atomic             Coordinates (Angstroms)
 Number     Number       Type             X           Y           Z
 ---------------------------------------------------------------------
      1          6           0       -0.327294    1.198336   -0.004315
      2          6           0       -1.066582    0.006591    0.000367
      3          6           0       -0.330869   -1.191585   -0.004379
      4          6           0        1.062450   -1.191403   -0.011551
      5          6           0        1.792542   -0.001313   -0.012412
      6          6           0        1.066834    1.190257   -0.011519
      7          1           0       -0.852002    2.147720   -0.005845
      8          1           0       -0.860631   -2.137360   -0.005949
      9          1           0        1.594715   -2.139800   -0.017694
     10          1           0        1.602263    2.136733   -0.017638
     11         16           0       -2.847789   -0.002450    0.007259
     12          6           0        3.300767   -0.003500    0.017146
     13          1           0        3.676300    0.000444    1.046858
     14          1           0        3.706868   -0.891661   -0.474005
     15          1           0        3.710027    0.878826   -0.481899
 ---------------------------------------------------------------------
 Rotational constants (GHZ):           5.6196959           0.9712487           0.8324245
 Standard basis: 6-311+G(d,p) (5D, 7F)
 There are   234 symmetry adapted cartesian basis functions of A   symmetry.
 There are   226 symmetry adapted basis functions of A   symmetry.
   226 basis functions,   358 primitive gaussians,   234 cartesian basis functions
    33 alpha electrons       33 beta electrons
       nuclear repulsion energy       380.7487306560 Hartrees.
 NAtoms=   15 NActive=   15 NUniq=   15 SFac= 1.00D+00 NAtFMM=   60 NAOKFM=F Big=F
 Integral buffers will be    131072 words long.
 Raffenetti 2 integral format.
 Two-electron integral symmetry is turned on.
 Nuclear repulsion after empirical dispersion term =      380.7418997751 Hartrees.
 ------------------------------------------------------------------------------
 Polarizable Continuum Model (PCM)
 =================================
 Model                : PCM.
 Atomic radii         : SMD-Coulomb.
 Polarization charges : Total charges.
 Charge compensation  : None.
 Solution method      : On-the-fly selection.
 Cavity type          : VdW (van der Waals Surface) (Alpha=1.000).
 Cavity algorithm     : GePol (No added spheres)
                        Default sphere list used, NSphG=   15.
                        Lebedev-Laikov grids with approx.  5.0 points / Ang**2.
                        Smoothing algorithm: York/Karplus (Gamma=1.0000).
                        Polarization charges: spherical gaussians, with
                                              point-specific exponents (IZeta= 3).
                        Self-potential: point-specific (ISelfS= 7).
                        Self-field    : sphere-specific E.n sum rule (ISelfD= 2).
 1st derivatives      : Analytical E(r).r(x)/FMM algorithm (CHGder, D1EAlg=3).
                        Cavity 1st derivative terms included.
 Solvent              : n,n-DiMethylAcetamide, Eps=  37.781000 Eps(inf)=   2.067844
 ------------------------------------------------------------------------------
 Spheres list:
 ISph  on   Nord     Re0    Alpha      Xe            Ye            Ze
    1   C      1    1.8500  1.000     -0.327294      1.198336     -0.004315
    2   C      2    1.8500  1.000     -1.066582      0.006591      0.000367
    3   C      3    1.8500  1.000     -0.330869     -1.191585     -0.004379
    4   C      4    1.8500  1.000      1.062450     -1.191403     -0.011551
    5   C      5    1.8500  1.000      1.792542     -0.001313     -0.012412
    6   C      6    1.8500  1.000      1.066834      1.190257     -0.011519
    7   H      7    1.2000  1.000     -0.852002      2.147720     -0.005845
    8   H      8    1.2000  1.000     -0.860631     -2.137360     -0.005949
    9   H      9    1.2000  1.000      1.594715     -2.139800     -0.017694
   10   H     10    1.2000  1.000      1.602263      2.136733     -0.017638
   11   S     11    2.4900  1.000     -2.847789     -0.002450      0.007259
   12   C     12    1.8500  1.000      3.300767     -0.003500      0.017146
   13   H     13    1.2000  1.000      3.676300      0.000444      1.046858
   14   H     14    1.2000  1.000      3.706868     -0.891661     -0.474005
   15   H     15    1.2000  1.000      3.710027      0.878826     -0.481899
 ------------------------------------------------------------------------------
 ------------------------------------------------------------------------------
 Atomic radii for non-electrostatic terms: SMD-CDS.
 ------------------------------------------------------------------------------
 Nuclear repulsion after PCM non-electrostatic terms =      380.7385616918 Hartrees.
 One-electron integrals computed using PRISM.
 NBasis=   226 RedAO= T EigKep=  2.61D-06  NBF=   226
 NBsUse=   226 1.00D-06 EigRej= -1.00D+00 NBFU=   226
 Initial guess from the checkpoint file:  "Aro_anti_DATS_NH_TS_opt.chk"
 B after Tr=     0.000000   -0.000000    0.000000
         Rot=    0.999998    0.000009   -0.000038   -0.001875 Ang=   0.21 deg.
 ExpMin= 4.05D-02 ExpMax= 9.34D+04 ExpMxC= 3.17D+03 IAcc=3 IRadAn=         5 AccDes= 0.00D+00
 Harris functional with IExCor= 4639 and IRadAn=       5 diagonalized for initial guess.
 HarFok:  IExCor= 4639 AccDes= 0.00D+00 IRadAn=         5 IDoV= 1 UseB2=F ITyADJ=14
 ICtDFT=  3500011 ScaDFX=  1.000000  1.000000  1.000000  1.000000
 FoFCou: FMM=F IPFlag=           0 FMFlag=      100000 FMFlg1=           0
         NFxFlg=           0 DoJE=T BraDBF=F KetDBF=T FulRan=T
         wScrn=  0.000000 ICntrl=       500 IOpCl=  0 I1Cent=   200000004 NGrid=           0
         NMat0=    1 NMatS0=      1 NMatT0=    0 NMatD0=    1 NMtDS0=    0 NMtDT0=    0
 Petite list used in FoFCou.
 Requested convergence on RMS density matrix=1.00D-08 within 128 cycles.
 Requested convergence on MAX density matrix=1.00D-06.
 Requested convergence on             energy=1.00D-06.
 No special actions if energy rises.
 Inv3:  Mode=1 IEnd=     5638923.
 Iteration    1 A*A^-1 deviation from unit magnitude is 4.88D-15 for    402.
 Iteration    1 A*A^-1 deviation from orthogonality  is 1.82D-15 for   1368   1228.
 Iteration    1 A^-1*A deviation from unit magnitude is 5.33D-15 for    402.
 Iteration    1 A^-1*A deviation from orthogonality  is 2.07D-15 for   1366    296.
 Error on total polarization charges =  0.04829
 SCF Done:  E(RwB97XD) =  -669.273329098     A.U. after   15 cycles
            NFock= 15  Conv=0.73D-08     -V/T= 2.0027
 SMD-CDS (non-electrostatic) energy       (kcal/mol) =      -2.09
 (included in total energy above)
 D1PCM: PCM CHGder 1st derivatives, ID1Alg=3 FixD1E=F DoIter=F DoCFld=F I1PDM=0.
 Calling FoFJK, ICntrl=      2127 FMM=F ISym2X=0 I1Cent= 0 IOpClX= 0 NMat=1 NMatS=1 NMatT=0.
 ***** Axes restored to original set *****
 -------------------------------------------------------------------
 Center     Atomic                   Forces (Hartrees/Bohr)
 Number     Number              X              Y              Z
 -------------------------------------------------------------------
      1        6           0.004500557    0.000540997   -0.000055959
      2        6          -0.008392115   -0.002855811    0.000057486
      3        6           0.004503298    0.001385615   -0.000049041
      4        6          -0.001846990   -0.000463057    0.000018627
      5        6           0.001059294   -0.000071892    0.000104512
      6        6          -0.001803965    0.000981170    0.000004209
      7        1          -0.000306661    0.000505077   -0.000007587
      8        1          -0.000562434   -0.000813324   -0.000007897
      9        1          -0.000445419   -0.000094789    0.000000239
     10        1          -0.000321568    0.000137313    0.000000075
     11       16           0.004570826    0.000801216    0.000000354
     12        6          -0.000857152   -0.000040290    0.000160062
     13        1          -0.000072786   -0.000007544   -0.000062331
     14        1           0.000001977   -0.000069170   -0.000086458
     15        1          -0.000026863    0.000064489   -0.000076290
 -------------------------------------------------------------------
 Cartesian Forces:  Max     0.008392115 RMS     0.001851762

 GradGradGradGradGradGradGradGradGradGradGradGradGradGradGradGradGradGrad
 Berny optimization.
 Using GEDIIS/GDIIS optimizer.
 FormGI is forming the generalized inverse of G from B-inverse, IUseBI=4.
 Internal  Forces:  Max     0.004580929 RMS     0.000838950
 Search for a local minimum.
 Step number   2 out of a maximum of  100
 All quantities printed in internal units (Hartrees-Bohrs-Radians)
 Mixed Optimization -- En-DIIS/RFO-DIIS
 Update second derivatives using D2CorX and points    1    2
 DE= -1.28D-03 DEPred=-1.17D-03 R= 1.10D+00
 TightC=F SS=  1.41D+00  RLast= 9.47D-02 DXNew= 5.0454D-01 2.8403D-01
 Trust test= 1.10D+00 RLast= 9.47D-02 DXMaxT set to 3.00D-01
 ITU=  1  0
 Use linear search instead of GDIIS.
     Eigenvalues ---    0.00699   0.01547   0.02153   0.02166   0.02177
     Eigenvalues ---    0.02179   0.02190   0.02191   0.02200   0.02203
     Eigenvalues ---    0.07105   0.07177   0.15837   0.16000   0.16000
     Eigenvalues ---    0.16000   0.16000   0.16000   0.16198   0.18875
     Eigenvalues ---    0.22030   0.23335   0.24696   0.24992   0.29244
     Eigenvalues ---    0.32246   0.34212   0.34510   0.34514   0.35289
     Eigenvalues ---    0.35303   0.35389   0.35634   0.42047   0.42489
     Eigenvalues ---    0.45655   0.46489   0.46893   0.50601
 RFO step:  Lambda=-1.62889197D-04 EMin= 6.99471494D-03
 Quartic linear search produced a step of  0.13236.
 Iteration  1 RMS(Cart)=  0.00351201 RMS(Int)=  0.00001684
 Iteration  2 RMS(Cart)=  0.00002150 RMS(Int)=  0.00000874
 Iteration  3 RMS(Cart)=  0.00000000 RMS(Int)=  0.00000874
 Variable       Old X    -DE/DX   Delta X   Delta X   Delta X     New X
                                 (Linear)    (Quad)   (Total)
    R1        2.65022   0.00242   0.00211   0.00501   0.00713   2.65735
    R2        2.63460  -0.00218   0.00101  -0.00560  -0.00459   2.63001
    R3        2.04985   0.00059  -0.00007   0.00192   0.00185   2.05171
    R4        2.65701   0.00057   0.00292   0.00008   0.00301   2.66002
    R5        3.36606  -0.00458  -0.00051  -0.01863  -0.01914   3.34692
    R6        2.63303  -0.00214   0.00093  -0.00561  -0.00468   2.62834
    R7        2.04854   0.00098  -0.00030   0.00329   0.00298   2.05152
    R8        2.63842   0.00046   0.00014   0.00094   0.00106   2.63948
    R9        2.05520  -0.00014   0.00044  -0.00065  -0.00020   2.05500
   R10        2.63649   0.00045  -0.00006   0.00109   0.00102   2.63751
   R11        2.85068  -0.00096   0.00087  -0.00380  -0.00292   2.84776
   R12        2.05498  -0.00004   0.00039  -0.00030   0.00010   2.05507
   R13        2.07125  -0.00008   0.00019  -0.00035  -0.00017   2.07109
   R14        2.06575   0.00009   0.00014   0.00024   0.00038   2.06614
   R15        2.06581   0.00008   0.00014   0.00019   0.00033   2.06613
    A1        2.12025   0.00089   0.00356   0.00317   0.00675   2.12700
    A2        2.08145  -0.00046  -0.00288  -0.00125  -0.00413   2.07732
    A3        2.08148  -0.00042  -0.00068  -0.00193  -0.00262   2.07886
    A4        2.03566  -0.00150  -0.00619  -0.00388  -0.01004   2.02562
    A5        2.13112  -0.00050  -0.00090  -0.00189  -0.00281   2.12831
    A6        2.11640   0.00199   0.00710   0.00577   0.01285   2.12925
    A7        2.12134   0.00074   0.00347   0.00197   0.00546   2.12681
    A8        2.08033  -0.00047  -0.00282  -0.00124  -0.00406   2.07627
    A9        2.08150  -0.00027  -0.00065  -0.00074  -0.00140   2.08010
   A10        2.12119   0.00020   0.00026   0.00035   0.00059   2.12178
   A11        2.08210  -0.00054   0.00064  -0.00366  -0.00301   2.07909
   A12        2.07989   0.00035  -0.00089   0.00331   0.00243   2.08231
   A13        2.04428   0.00003  -0.00146   0.00042  -0.00107   2.04321
   A14        2.11949  -0.00006   0.00074  -0.00039   0.00036   2.11985
   A15        2.11915   0.00003   0.00072   0.00001   0.00074   2.11989
   A16        2.12362  -0.00036   0.00037  -0.00205  -0.00169   2.12193
   A17        2.07984  -0.00018   0.00050  -0.00181  -0.00130   2.07854
   A18        2.07972   0.00054  -0.00086   0.00385   0.00300   2.08272
   A19        1.94009  -0.00004   0.00107  -0.00061   0.00045   1.94055
   A20        1.94314  -0.00003   0.00015  -0.00033  -0.00018   1.94296
   A21        1.94356  -0.00007   0.00020  -0.00068  -0.00047   1.94308
   A22        1.87312   0.00006  -0.00044   0.00073   0.00029   1.87341
   A23        1.87308   0.00007  -0.00043   0.00075   0.00032   1.87340
   A24        1.88765   0.00003  -0.00063   0.00025  -0.00038   1.88727
    D1       -0.00144  -0.00001  -0.00002  -0.00079  -0.00081  -0.00225
    D2       -3.14005  -0.00001  -0.00007  -0.00061  -0.00067  -3.14073
    D3        3.13640  -0.00001  -0.00002  -0.00059  -0.00061   3.13579
    D4       -0.00222  -0.00001  -0.00006  -0.00040  -0.00047  -0.00268
    D5       -0.00169   0.00001   0.00004   0.00029   0.00033  -0.00135
    D6        3.13878  -0.00000   0.00010  -0.00015  -0.00004   3.13874
    D7       -3.13952   0.00000   0.00005   0.00008   0.00013  -3.13939
    D8        0.00095  -0.00001   0.00010  -0.00035  -0.00025   0.00070
    D9        0.00146   0.00001   0.00001   0.00077   0.00077   0.00223
   D10       -3.13639   0.00001   0.00002   0.00062   0.00064  -3.13575
   D11        3.14010   0.00001   0.00004   0.00057   0.00060   3.14071
   D12        0.00225   0.00001   0.00005   0.00042   0.00047   0.00272
   D13        0.00163  -0.00001  -0.00001  -0.00023  -0.00025   0.00139
   D14       -3.13881   0.00000  -0.00008   0.00019   0.00011  -3.13870
   D15        3.13948  -0.00000  -0.00003  -0.00009  -0.00012   3.13936
   D16       -0.00096   0.00000  -0.00010   0.00034   0.00023  -0.00072
   D17       -0.00463  -0.00000   0.00003  -0.00031  -0.00028  -0.00491
   D18        3.11259   0.00002  -0.00048   0.00160   0.00112   3.11371
   D19        3.13581  -0.00001   0.00010  -0.00074  -0.00064   3.13518
   D20       -0.03016   0.00001  -0.00041   0.00117   0.00077  -0.02939
   D21        0.00466   0.00000  -0.00004   0.00028   0.00024   0.00489
   D22       -3.13581   0.00001  -0.00010   0.00071   0.00061  -3.13520
   D23       -3.11256  -0.00002   0.00046  -0.00163  -0.00116  -3.11373
   D24        0.03015  -0.00002   0.00041  -0.00119  -0.00079   0.02937
   D25       -1.56248  -0.00001   0.00040  -0.00029   0.00012  -1.56237
   D26        0.52490   0.00001   0.00066  -0.00000   0.00066   0.52557
   D27        2.63309  -0.00003   0.00010  -0.00038  -0.00028   2.63281
   D28        1.55368   0.00001  -0.00015   0.00171   0.00156   1.55524
   D29       -2.64211   0.00004   0.00011   0.00200   0.00211  -2.64001
   D30       -0.53393   0.00000  -0.00045   0.00162   0.00117  -0.53276
         Item               Value     Threshold  Converged?
 Maximum Force            0.004581     0.000450     NO 
 RMS     Force            0.000839     0.000300     NO 
 Maximum Displacement     0.017549     0.001800     NO 
 RMS     Displacement     0.003505     0.001200     NO 
 Predicted change in Energy=-9.786880D-05
 GradGradGradGradGradGradGradGradGradGradGradGradGradGradGradGradGradGrad

                          Input orientation:                          
 ---------------------------------------------------------------------
 Center     Atomic      Atomic             Coordinates (Angstroms)
 Number     Number       Type             X           Y           Z
 ---------------------------------------------------------------------
      1          6           0       -0.298371    1.180569   -0.004585
      2          6           0       -1.035105   -0.017187    0.000682
      3          6           0       -0.282037   -1.206418   -0.004094
      4          6           0        1.108757   -1.194594   -0.010831
      5          6           0        1.829854    0.001624   -0.011552
      6          6           0        1.093337    1.187181   -0.011307
      7          1           0       -0.831071    2.126616   -0.006742
      8          1           0       -0.803293   -2.158707   -0.005888
      9          1           0        1.646043   -2.140032   -0.017078
     10          1           0        1.617537    2.139979   -0.017910
     11         16           0       -2.806171   -0.027922    0.007936
     12          6           0        3.336519    0.011695    0.016978
     13          1           0        3.713132    0.018055    1.046190
     14          1           0        3.749414   -0.872776   -0.475616
     15          1           0        3.737836    0.897738   -0.482309
 ---------------------------------------------------------------------
                    Distance matrix (angstroms):
                    1          2          3          4          5
     1  C    0.000000
     2  C    1.406209   0.000000
     3  C    2.387042   1.407623   0.000000
     4  C    2.760697   2.445928   1.390860   0.000000
     5  C    2.432961   2.865047   2.433003   1.396753   0.000000
     6  C    1.391740   2.445590   2.760620   2.381826   1.395709
     7  H    1.085716   2.153503   3.377952   3.846217   3.405309
     8  H    3.377234   2.154040   1.085618   2.141372   3.405954
     9  H    3.848024   3.419845   2.142264   1.087460   2.149537
    10  H    2.142743   3.419097   3.847979   3.373172   2.148879
    11  S    2.783823   1.771114   2.785723   4.085112   4.636160
    12  C    3.818266   4.371750   3.818140   2.533542   1.506969
    13  H    4.306707   4.862106   4.308572   3.061140   2.160052
    14  H    4.563186   4.883699   4.072622   2.700493   2.159779
    15  H    4.074209   4.883782   4.562405   3.392964   2.159867
                    6          7          8          9         10
     6  C    0.000000
     7  H    2.141472   0.000000
     8  H    3.846063   4.285413   0.000000
     9  H    3.372813   4.933607   2.449433   0.000000
    10  H    1.087498   2.448670   4.933484   4.280106   0.000000
    11  S    4.084484   2.922887   2.924373   4.927865   4.926424
    12  C    2.532673   4.673570   4.674314   2.736567   2.736003
    13  H    3.057529   5.119030   5.122817   3.171866   3.166448
    14  H    3.393192   5.495183   4.754094   2.498072   3.719018
    15  H    2.701665   4.755124   5.494605   3.717538   2.500899
                   11         12         13         14         15
    11  S    0.000000
    12  C    6.142825   0.000000
    13  H    6.601621   1.095972   0.000000
    14  H    6.627466   1.093353   1.763743   0.000000
    15  H    6.627308   1.093350   1.763735   1.770565   0.000000
 Stoichiometry    C7H7S(1-)
 Framework group  C1[X(C7H7S)]
 Deg. of freedom    39
 Full point group                 C1      NOp   1
 Largest Abelian subgroup         C1      NOp   1
 Largest concise Abelian subgroup C1      NOp   1
                         Standard orientation:                         
 ---------------------------------------------------------------------
 Center     Atomic      Atomic             Coordinates (Angstroms)
 Number     Number       Type             X           Y           Z
 ---------------------------------------------------------------------
      1          6           0       -0.328441    1.192822   -0.004681
      2          6           0       -1.072799   -0.000213    0.000279
      3          6           0       -0.327329   -1.194221   -0.004659
      4          6           0        1.063512   -1.191266   -0.011259
      5          6           0        1.792223    0.000330   -0.011675
      6          6           0        1.063282    1.190560   -0.011267
      7          1           0       -0.855096    2.142247   -0.006702
      8          1           0       -0.854648   -2.143166   -0.006692
      9          1           0        1.594758   -2.140109   -0.017641
     10          1           0        1.593548    2.139997   -0.017631
     11         16           0       -2.843898    0.000347    0.007360
     12          6           0        3.298919    0.000787    0.017003
     13          1           0        3.675464    0.004542    1.046253
     14          1           0        3.706214   -0.886203   -0.475726
     15          1           0        3.705927    0.884351   -0.482070
 ---------------------------------------------------------------------
 Rotational constants (GHZ):           5.6235591           0.9728626           0.8336954
 Standard basis: 6-311+G(d,p) (5D, 7F)
 There are   234 symmetry adapted cartesian basis functions of A   symmetry.
 There are   226 symmetry adapted basis functions of A   symmetry.
   226 basis functions,   358 primitive gaussians,   234 cartesian basis functions
    33 alpha electrons       33 beta electrons
       nuclear repulsion energy       381.0098098223 Hartrees.
 NAtoms=   15 NActive=   15 NUniq=   15 SFac= 1.00D+00 NAtFMM=   60 NAOKFM=F Big=F
 Integral buffers will be    131072 words long.
 Raffenetti 2 integral format.
 Two-electron integral symmetry is turned on.
 Nuclear repulsion after empirical dispersion term =      381.0029769336 Hartrees.
 ------------------------------------------------------------------------------
 Polarizable Continuum Model (PCM)
 =================================
 Model                : PCM.
 Atomic radii         : SMD-Coulomb.
 Polarization charges : Total charges.
 Charge compensation  : None.
 Solution method      : On-the-fly selection.
 Cavity type          : VdW (van der Waals Surface) (Alpha=1.000).
 Cavity algorithm     : GePol (No added spheres)
                        Default sphere list used, NSphG=   15.
                        Lebedev-Laikov grids with approx.  5.0 points / Ang**2.
                        Smoothing algorithm: York/Karplus (Gamma=1.0000).
                        Polarization charges: spherical gaussians, with
                                              point-specific exponents (IZeta= 3).
                        Self-potential: point-specific (ISelfS= 7).
                        Self-field    : sphere-specific E.n sum rule (ISelfD= 2).
 1st derivatives      : Analytical E(r).r(x)/FMM algorithm (CHGder, D1EAlg=3).
                        Cavity 1st derivative terms included.
 Solvent              : n,n-DiMethylAcetamide, Eps=  37.781000 Eps(inf)=   2.067844
 ------------------------------------------------------------------------------
 Spheres list:
 ISph  on   Nord     Re0    Alpha      Xe            Ye            Ze
    1   C      1    1.8500  1.000     -0.328441      1.192822     -0.004681
    2   C      2    1.8500  1.000     -1.072799     -0.000213      0.000279
    3   C      3    1.8500  1.000     -0.327329     -1.194221     -0.004659
    4   C      4    1.8500  1.000      1.063512     -1.191266     -0.011259
    5   C      5    1.8500  1.000      1.792223      0.000330     -0.011675
    6   C      6    1.8500  1.000      1.063282      1.190560     -0.011267
    7   H      7    1.2000  1.000     -0.855096      2.142247     -0.006702
    8   H      8    1.2000  1.000     -0.854648     -2.143166     -0.006692
    9   H      9    1.2000  1.000      1.594758     -2.140109     -0.017641
   10   H     10    1.2000  1.000      1.593548      2.139997     -0.017631
   11   S     11    2.4900  1.000     -2.843898      0.000347      0.007360
   12   C     12    1.8500  1.000      3.298919      0.000787      0.017003
   13   H     13    1.2000  1.000      3.675464      0.004542      1.046253
   14   H     14    1.2000  1.000      3.706214     -0.886203     -0.475726
   15   H     15    1.2000  1.000      3.705927      0.884351     -0.482070
 ------------------------------------------------------------------------------
 ------------------------------------------------------------------------------
 Atomic radii for non-electrostatic terms: SMD-CDS.
 ------------------------------------------------------------------------------
 Nuclear repulsion after PCM non-electrostatic terms =      380.9996386935 Hartrees.
 One-electron integrals computed using PRISM.
 NBasis=   226 RedAO= T EigKep=  2.59D-06  NBF=   226
 NBsUse=   226 1.00D-06 EigRej= -1.00D+00 NBFU=   226
 Initial guess from the checkpoint file:  "Aro_anti_DATS_NH_TS_opt.chk"
 B after Tr=    -0.000000    0.000000   -0.000000
         Rot=    1.000000   -0.000002   -0.000007   -0.000320 Ang=  -0.04 deg.
 Requested convergence on RMS density matrix=1.00D-08 within 128 cycles.
 Requested convergence on MAX density matrix=1.00D-06.
 Requested convergence on             energy=1.00D-06.
 No special actions if energy rises.
 Inv3:  Mode=1 IEnd=     5622483.
 Iteration    1 A*A^-1 deviation from unit magnitude is 4.44D-15 for   1343.
 Iteration    1 A*A^-1 deviation from orthogonality  is 2.12D-15 for   1362    250.
 Iteration    1 A^-1*A deviation from unit magnitude is 4.44D-15 for   1343.
 Iteration    1 A^-1*A deviation from orthogonality  is 2.23D-15 for   1368   1066.
 Error on total polarization charges =  0.04825
 SCF Done:  E(RwB97XD) =  -669.273442388     A.U. after   14 cycles
            NFock= 14  Conv=0.63D-08     -V/T= 2.0027
 SMD-CDS (non-electrostatic) energy       (kcal/mol) =      -2.09
 (included in total energy above)
 D1PCM: PCM CHGder 1st derivatives, ID1Alg=3 FixD1E=F DoIter=F DoCFld=F I1PDM=0.
 Calling FoFJK, ICntrl=      2127 FMM=F ISym2X=0 I1Cent= 0 IOpClX= 0 NMat=1 NMatS=1 NMatT=0.
 ***** Axes restored to original set *****
 -------------------------------------------------------------------
 Center     Atomic                   Forces (Hartrees/Bohr)
 Number     Number              X              Y              Z
 -------------------------------------------------------------------
      1        6           0.000868774    0.000470980    0.000003880
      2        6          -0.001407756   -0.000527355   -0.000002240
      3        6          -0.000068835    0.000270972    0.000005818
      4        6           0.000049578    0.000343801    0.000003869
      5        6           0.000351342   -0.000405778    0.000004054
      6        6          -0.000601400    0.000092303   -0.000002594
      7        1          -0.000098802    0.000050729   -0.000001513
      8        1          -0.000059918   -0.000149754   -0.000001203
      9        1          -0.000118441    0.000021543    0.000001755
     10        1          -0.000112688   -0.000050085    0.000001467
     11       16           0.001249608   -0.000087679    0.000005819
     12        6          -0.000116288   -0.000040271   -0.000032670
     13        1           0.000021239   -0.000000451   -0.000008835
     14        1           0.000024944    0.000019620    0.000010572
     15        1           0.000018642   -0.000008576    0.000011824
 -------------------------------------------------------------------
 Cartesian Forces:  Max     0.001407756 RMS     0.000357442

 GradGradGradGradGradGradGradGradGradGradGradGradGradGradGradGradGradGrad
 Berny optimization.
 Using GEDIIS/GDIIS optimizer.
 FormGI is forming the generalized inverse of G from B-inverse, IUseBI=4.
 Internal  Forces:  Max     0.001249031 RMS     0.000189724
 Search for a local minimum.
 Step number   3 out of a maximum of  100
 All quantities printed in internal units (Hartrees-Bohrs-Radians)
 Mixed Optimization -- En-DIIS/RFO-DIIS
 Swapping is turned off.
 Update second derivatives using D2CorX and points    1    2    3
 DE= -1.13D-04 DEPred=-9.79D-05 R= 1.16D+00
 TightC=F SS=  1.41D+00  RLast= 3.05D-02 DXNew= 5.0454D-01 9.1623D-02
 Trust test= 1.16D+00 RLast= 3.05D-02 DXMaxT set to 3.00D-01
 ITU=  1  1  0
     Eigenvalues ---    0.00699   0.01546   0.02153   0.02165   0.02177
     Eigenvalues ---    0.02180   0.02190   0.02191   0.02200   0.02203
     Eigenvalues ---    0.07111   0.07174   0.15186   0.16000   0.16000
     Eigenvalues ---    0.16000   0.16000   0.16013   0.16201   0.17496
     Eigenvalues ---    0.22027   0.23335   0.24978   0.25035   0.28662
     Eigenvalues ---    0.32173   0.34212   0.34512   0.34515   0.35300
     Eigenvalues ---    0.35321   0.35390   0.35507   0.41962   0.42646
     Eigenvalues ---    0.45482   0.46507   0.47377   0.49990
 En-DIIS/RFO-DIIS/Sim-DIIS IScMMF=       -3 using points:     3    2
 RFO step:  Lambda=-1.01356853D-05.
 DidBck=F Rises=F RFO-DIIS coefs:    1.18018   -0.18018
 Iteration  1 RMS(Cart)=  0.00077914 RMS(Int)=  0.00000058
 Iteration  2 RMS(Cart)=  0.00000033 RMS(Int)=  0.00000053
 Variable       Old X    -DE/DX   Delta X   Delta X   Delta X     New X
                                 (Linear)    (Quad)   (Total)
    R1        2.65735   0.00050   0.00128   0.00042   0.00171   2.65906
    R2        2.63001  -0.00043  -0.00083  -0.00019  -0.00102   2.62899
    R3        2.05171   0.00009   0.00033   0.00001   0.00034   2.05205
    R4        2.66002  -0.00029   0.00054  -0.00083  -0.00029   2.65974
    R5        3.34692  -0.00125  -0.00345  -0.00234  -0.00578   3.34114
    R6        2.62834  -0.00005  -0.00084   0.00070  -0.00014   2.62820
    R7        2.05152   0.00016   0.00054   0.00002   0.00056   2.05208
    R8        2.63948  -0.00021   0.00019  -0.00069  -0.00049   2.63899
    R9        2.05500  -0.00008  -0.00004  -0.00016  -0.00020   2.05480
   R10        2.63751   0.00030   0.00018   0.00059   0.00077   2.63828
   R11        2.84776  -0.00005  -0.00053   0.00038  -0.00015   2.84761
   R12        2.05507  -0.00010   0.00002  -0.00029  -0.00027   2.05481
   R13        2.07109   0.00000  -0.00003   0.00005   0.00002   2.07111
   R14        2.06614  -0.00001   0.00007  -0.00008  -0.00001   2.06612
   R15        2.06613  -0.00001   0.00006  -0.00006   0.00000   2.06614
    A1        2.12700  -0.00005   0.00122  -0.00078   0.00044   2.12744
    A2        2.07732  -0.00004  -0.00074  -0.00009  -0.00083   2.07649
    A3        2.07886   0.00009  -0.00047   0.00087   0.00039   2.07925
    A4        2.02562  -0.00006  -0.00181   0.00052  -0.00128   2.02434
    A5        2.12831   0.00019  -0.00051   0.00118   0.00067   2.12898
    A6        2.12925  -0.00013   0.00231  -0.00170   0.00061   2.12986
    A7        2.12681   0.00002   0.00098  -0.00040   0.00059   2.12740
    A8        2.07627   0.00001  -0.00073   0.00041  -0.00033   2.07594
    A9        2.08010  -0.00003  -0.00025  -0.00001  -0.00026   2.07984
   A10        2.12178   0.00017   0.00011   0.00068   0.00079   2.12257
   A11        2.07909  -0.00018  -0.00054  -0.00050  -0.00105   2.07804
   A12        2.08231   0.00001   0.00044  -0.00018   0.00026   2.08257
   A13        2.04321  -0.00017  -0.00019  -0.00090  -0.00110   2.04212
   A14        2.11985   0.00005   0.00006   0.00033   0.00039   2.12024
   A15        2.11989   0.00012   0.00013   0.00057   0.00070   2.12059
   A16        2.12193   0.00010  -0.00031   0.00087   0.00056   2.12250
   A17        2.07854  -0.00013  -0.00023  -0.00057  -0.00080   2.07774
   A18        2.08272   0.00003   0.00054  -0.00031   0.00023   2.08295
   A19        1.94055   0.00001   0.00008   0.00015   0.00023   1.94078
   A20        1.94296   0.00004  -0.00003   0.00035   0.00032   1.94327
   A21        1.94308   0.00002  -0.00009   0.00025   0.00017   1.94325
   A22        1.87341  -0.00003   0.00005  -0.00031  -0.00025   1.87315
   A23        1.87340  -0.00003   0.00006  -0.00034  -0.00028   1.87312
   A24        1.88727  -0.00003  -0.00007  -0.00016  -0.00023   1.88704
    D1       -0.00225   0.00000  -0.00015   0.00017   0.00002  -0.00223
    D2       -3.14073  -0.00000  -0.00012  -0.00012  -0.00024  -3.14096
    D3        3.13579  -0.00000  -0.00011   0.00009  -0.00002   3.13577
    D4       -0.00268  -0.00000  -0.00008  -0.00020  -0.00028  -0.00297
    D5       -0.00135  -0.00000   0.00006  -0.00008  -0.00002  -0.00138
    D6        3.13874   0.00000  -0.00001   0.00005   0.00004   3.13878
    D7       -3.13939   0.00000   0.00002   0.00000   0.00003  -3.13937
    D8        0.00070   0.00000  -0.00004   0.00014   0.00009   0.00079
    D9        0.00223   0.00000   0.00014  -0.00014   0.00000   0.00224
   D10       -3.13575   0.00000   0.00012  -0.00012  -0.00000  -3.13575
   D11        3.14071   0.00000   0.00011   0.00016   0.00026   3.14097
   D12        0.00272   0.00000   0.00008   0.00018   0.00026   0.00298
   D13        0.00139   0.00000  -0.00004   0.00002  -0.00003   0.00136
   D14       -3.13870  -0.00000   0.00002  -0.00009  -0.00008  -3.13877
   D15        3.13936   0.00000  -0.00002  -0.00000  -0.00003   3.13934
   D16       -0.00072  -0.00000   0.00004  -0.00011  -0.00007  -0.00079
   D17       -0.00491  -0.00000  -0.00005   0.00008   0.00003  -0.00488
   D18        3.11371   0.00000   0.00020  -0.00033  -0.00013   3.11358
   D19        3.13518   0.00000  -0.00012   0.00019   0.00008   3.13525
   D20       -0.02939   0.00000   0.00014  -0.00023  -0.00009  -0.02948
[...]
 ! D27   D(4,5,12,15)          150.881          -DE/DX =    0.0                 !
 ! D28   D(6,5,12,13)           89.125          -DE/DX =    0.0                 !
 ! D29   D(6,5,12,14)         -151.2427         -DE/DX =    0.0                 !
 ! D30   D(6,5,12,15)          -30.5043         -DE/DX =    0.0                 !
 --------------------------------------------------------------------------------
 GradGradGradGradGradGradGradGradGradGradGradGradGradGradGradGradGradGrad


 ----------------------------------------------------------------------

 Electric dipole moment (input orientation):
 (Debye = 10**-18 statcoulomb cm , SI units = C m)
                  (au)            (Debye)         (10**-30 SI)
   Tot        0.506925D+01      0.128848D+02      0.429789D+02
   x          0.506914D+01      0.128845D+02      0.429779D+02
   y          0.329907D-01      0.838540D-01      0.279707D+00
   z          0.767508D-02      0.195081D-01      0.650720D-01

 Dipole polarizability, Alpha (input orientation).
 (esu units = cm**3 , SI units = C**2 m**2 J**-1)
 Alpha(0;0):
               (au)            (10**-24 esu)      (10**-40 SI)
   iso        0.171281D+03      0.253812D+02      0.282404D+02
   aniso      0.109336D+03      0.162019D+02      0.180270D+02
   xx         0.236160D+03      0.349953D+02      0.389376D+02
   yx         0.458846D+00      0.679940D-01      0.756535D-01
   yy         0.167607D+03      0.248367D+02      0.276346D+02
   zx         0.325524D+00      0.482377D-01      0.536717D-01
   zy        -0.128763D-01     -0.190807D-02     -0.212301D-02
   zz         0.110076D+03      0.163115D+02      0.181490D+02

 ----------------------------------------------------------------------

     6         -0.00649477          2.23481544         -0.54915162
     6         -0.00402621         -0.02026786         -1.95811431
     6          0.02173974         -2.27534789         -0.54809669
     6          0.03843007         -2.26951456          2.08004449
     6          0.02740535         -0.01918126          3.45849701
     6          0.01028709          2.23012222          2.07977634
     1         -0.01549399          4.02905268         -1.54490303
     1          0.03522124         -4.06935036         -1.54428999
     1          0.06322501         -4.06326810          3.08205942
     1          0.01260095          4.02471369          3.08060768
    16         -0.02354640         -0.01943688         -5.29919314
     6         -0.02247799         -0.01959780          6.30566898
     1         -1.96626004         -0.02564398          7.02063408
     1          0.92085385         -1.68953512          7.07398110
     1          0.91048616          1.65604321          7.07425360

 Electric dipole moment (dipole orientation):
 (Debye = 10**-18 statcoulomb cm , SI units = C m)
                  (au)            (Debye)         (10**-30 SI)
   Tot        0.506925D+01      0.128848D+02      0.429789D+02
   x          0.000000D+00      0.000000D+00      0.000000D+00
   y          0.000000D+00      0.000000D+00      0.000000D+00
   z          0.506925D+01      0.128848D+02      0.429789D+02

 Dipole polarizability, Alpha (dipole orientation).
 (esu units = cm**3 , SI units = C**2 m**2 J**-1)
 Alpha(0;0):
               (au)            (10**-24 esu)      (10**-40 SI)
   iso        0.171281D+03      0.253812D+02      0.282404D+02
   aniso      0.109336D+03      0.162019D+02      0.180270D+02
   xx         0.110077D+03      0.163118D+02      0.181493D+02
   yx        -0.359375D+00     -0.532539D-01     -0.592529D-01
   yy         0.167601D+03      0.248359D+02      0.276337D+02
   zx        -0.134609D+00     -0.199471D-01     -0.221941D-01
   zy         0.117692D-01      0.174402D-02      0.194048D-02
   zz         0.236164D+03      0.349959D+02      0.389382D+02

 ----------------------------------------------------------------------
 1\1\GINC-SHAS0108\Freq\RwB97XD\6-311+G(d,p)\C7H7S1(1-)\JVALEGRE@COLOST
 ATE.EDU\15-Mar-2019\0\\#N Geom=AllCheck Guess=TCheck SCRF=Check GenChk
  RwB97XD/6-311+G(d,p) Freq\\Title Card Required\\-1,1\C,-0.2982820309,
 1.1806945077,-0.0046996265\C,-1.0360999598,-0.0174545182,0.0006314908\
 C,-0.2821918773,-1.2059736693,-0.0041070131\C,1.1085231828,-1.19389330
 26,-0.0108533831\C,1.8302054729,0.001666581,-0.0116649605\C,1.09288564
 09,1.187207091,-0.0114575492\H,-0.8313763056,2.126725502,-0.0069144928
 \H,-0.8031629329,-2.1587558776,-0.005860761\H,1.6449432371,-2.13970109
 08,-0.0169937095\H,1.6163219693,2.1402626315,-0.0180604647\S,-2.804102
 2035,-0.028453975,0.0082811696\C,3.3367907097,0.0114230341,0.017014160
 6\H,3.7135454382,0.017369824,1.0461900122\H,3.7498740584,-0.872830133,
 -0.4757977603\H,3.7385056008,0.8975353949,-0.4818331124\\Version=ES64L
 -G16RevB.01\State=1-A\HF=-669.2734478\RMSD=7.036e-10\RMSF=7.654e-05\Ze
 roPoint=0.1179385\Thermal=0.1253297\Dipole=5.0691387,0.0329907,0.00767
 51\DipoleDeriv=-0.7170656,0.0021485,0.0015719,-0.4874396,0.0987101,-0.
 0049711,-0.0011528,-0.0087353,-0.2231813,2.1735991,0.0162317,-0.006378
 7,0.0169674,-0.2910998,0.0000037,-0.0257329,-0.0000817,-0.0931173,-0.7
 21711,-0.0131216,0.0015158,0.4750265,0.1054146,0.0048495,-0.0015189,0.
 0084964,-0.2231141,0.1184459,0.1871097,-0.0097077,-0.0347412,0.1849103
 ,-0.0079798,-0.0184997,-0.008395,-0.1671026,0.1424078,0.0030885,0.0385
 156,0.0043407,-0.3022053,0.0002694,0.1722539,0.0010056,-0.182583,0.121
 5099,-0.1876916,-0.0097407,0.0335746,0.183117,0.0076889,-0.0186796,0.0
 081489,-0.1670506,0.0346876,0.1286233,0.0006525,0.1004253,-0.0833866,0
 .0005682,0.0050941,0.0042735,0.1762708,0.0377083,-0.1272228,0.0007195,
 -0.0988157,-0.0863905,-0.0004294,0.0051953,-0.0040901,0.1763022,0.0034
 521,0.1346472,0.0024483,0.1457164,-0.1016935,-0.0005083,0.0059965,-0.0
 036547,0.1870328,0.0072682,-0.1331583,0.0025018,-0.1443419,-0.1055454,
 0.0006904,0.0060097,0.0038736,0.1870167,-1.91595,-0.0079317,0.0019321,
 -0.0074236,-0.694443,-0.0000221,0.0069179,0.0000091,-0.8060798,-0.0096
 196,-0.0010298,-0.0005274,-0.0024299,0.1362739,-0.0000063,-0.1902846,-
 0.0012511,0.1580305,-0.1622817,-0.002074,-0.0643198,-0.0021158,0.13384
 67,-0.0012921,-0.1366541,-0.0018095,-0.1344943,-0.0568009,0.0356605,0.
 020885,0.1155409,-0.0885685,-0.1047585,0.0957027,-0.1052294,0.0566938,
 -0.05565,-0.0352797,0.0199318,-0.114284,-0.08894,0.1058975,0.0953526,0
 .1074396,0.0553763\Polar=236.1603095,0.4588459,167.6065169,0.3255244,-
 0.0128763,110.0757807\Quadrupole=-15.8392623,10.6713481,5.1679141,-0.1
 725098,0.149536,-0.0003743\PG=C01 [X(C7H7S1)]\NImag=0\\0.68783695,-0.0
 4154020,0.69642636,-0.00223325,-0.00182237,0.13050418,-0.15598722,-0.0
 9947663,0.00057818,0.51284436,-0.05030071,-0.26024468,0.00082290,-0.00
 019599,0.59027183,0.00016508,0.00074974,-0.06800002,-0.00161707,-0.000
 12498,0.13920455,0.06434523,0.01916136,-0.00022559,-0.15785216,0.05128
 485,0.00014773,0.68758361,-0.01761114,-0.05036977,0.00015732,0.1004792
 4,-0.25768871,-0.00065002,0.04185378,0.69680639,-0.00021494,-0.0001328
 0,0.00537785,0.00053759,-0.00071804,-0.06804451,-0.00227372,0.00150927
 ,0.13050201,-0.05567008,-0.02680305,0.00034321,-0.02807336,0.08096219,
 0.00037805,-0.34457230,-0.03772084,0.00112578,0.69417839,-0.03424685,-
 0.02069206,0.00020640,0.02788286,0.04126031,-0.00001791,0.03355299,-0.
 13049648,-0.00023079,-0.02888314,0.71183585,0.00088836,0.00041595,-0.0
 0336861,0.00026116,-0.00116262,0.00619328,0.00055382,0.00046910,-0.059
 44985,-0.00170915,0.00252581,0.13837768,-0.02738506,0.02745146,-0.0002
 3810,0.00857957,0.00062561,-0.00043433,-0.02586953,-0.02831383,-0.0002
 3134,-0.17793357,-0.12197642,0.00014480,0.66189368,0.08335094,0.038312
 73,-0.00056909,0.00059018,-0.08350778,0.00001594,-0.08419727,0.0367983
 9,0.00055243,-0.04659754,-0.27209858,-0.00179428,-0.00041472,0.6650233
 1,0.00106078,0.00111555,0.00771720,-0.00119448,0.00001107,-0.00649351,
 0.00111750,-0.00111589,0.00771319,-0.00085518,-0.00029915,-0.06957012,
 0.00460960,-0.00009675,0.17016611,-0.34360403,0.03487251,0.00110303,-0
 .02664637,-0.08184498,0.00041884,-0.05646924,0.02630912,0.00033274,0.0
 6750995,0.02782752,-0.00113811,-0.18038064,0.04820596,-0.00088624,0.69
 256120,-0.03641436,-0.13052886,0.00028125,-0.02876513,0.03981483,0.000
 00616,0.03378073,-0.01989473,-0.00019329,-0.02611181,-0.06224693,0.000
 54449,0.12356005,-0.27044932,0.00039375,0.02818566,0.71331957,0.000575
 57,-0.00042597,-0.05951863,0.00026006,0.00114920,0.00619420,0.00087657
 ,-0.00039538,-0.00336208,-0.00111813,-0.00052449,0.00819296,0.00006118
 ,0.00189572,-0.06953125,-0.00168211,-0.00283630,0.13839279,-0.12249311
 ,0.12006499,-0.00013351,0.00791045,-0.01462349,0.00004463,-0.00087899,
 -0.00325185,0.00003028,-0.00069453,-0.00070988,0.00001151,-0.00490140,
 -0.00151713,-0.00004841,-0.01072226,0.02832519,-0.00008591,0.12915382,
 0.11880230,-0.26887912,0.00062115,0.01612556,-0.01852282,0.00004595,-0
 .00380051,-0.00354109,0.00004268,-0.00099600,0.00003682,0.00001073,-0.
 00069669,0.00208914,-0.00002133,-0.00330357,0.00334830,0.00000699,-0.1
 2801658,0.28415845,-0.00010891,0.00074416,-0.03648786,-0.00018869,0.00
 001061,0.00294195,0.00003081,0.00003963,0.00647418,0.00004036,0.000008
 60,-0.00097560,0.00023342,-0.00009628,0.00776362,0.00001005,-0.0000359
 6,0.00313605,0.00016530,-0.00067055,0.02489203,-0.00097420,0.00328930,
 0.00002914,0.00793057,0.01497286,0.00003797,-0.11946149,-0.11812792,-0
 .00006853,-0.01037739,-0.02850453,-0.00007212,-0.00492453,0.00142561,-
 0.00004968,-0.00071752,0.00069854,0.00001127,0.00070639,0.00069617,-0.
 00001129,0.12586454,0.00383400,-0.00345064,-0.00003740,-0.01577874,-0.
 01855341,-0.00003501,-0.11686902,-0.27188464,-0.00050842,0.00312252,0.
 00301929,-0.00000790,0.00060478,0.00212035,0.00002326,0.00098702,0.000
 05893,-0.00001107,-0.00067050,-0.00120039,0.00001424,0.12596684,0.2874
 0138,0.00002935,-0.00003430,0.00646887,-0.00018076,-0.00000239,0.00294
 330,-0.00004313,-0.00063101,-0.03649565,0.00000797,0.00003568,0.003140
 07,0.00023223,0.00010210,0.00777189,0.00003986,-0.00000851,-0.00097632
 ,-0.00001072,-0.00001391,-0.00029981,0.00009620,0.00054506,0.02489757,
 -0.00089058,-0.00063539,0.00000546,-0.00433897,-0.00110434,0.00004576,
 -0.01042703,0.02874844,-0.00001167,-0.12481059,0.11738841,0.00113200,0
 .00960398,-0.01358437,0.00000257,-0.00067247,-0.00340025,0.00005290,0.
 00005084,0.00015208,-0.00000693,0.00103518,-0.00039626,-0.00001839,0.1
 2958121,-0.00056391,0.00033671,-0.00000003,-0.00123255,0.00192808,-0.0
 0003505,-0.00301150,0.00299448,0.00006258,0.11706148,-0.26665214,-0.00
 144874,0.01641170,-0.01805054,-0.00025303,-0.00409859,-0.00339605,-0.0
 0005004,0.00016361,-0.00005535,0.00000919,0.00036452,0.00081796,0.0000
 2601,-0.12658777,0.28199948,0.00002172,0.00000570,-0.00098882,0.000060
 56,-0.00002303,0.00791870,0.00003941,-0.00014233,0.00374064,0.00094299
 ,-0.00179394,-0.03803853,0.00065472,0.00012489,0.00421011,-0.00005288,
 0.00013056,0.00662928,-0.00000111,-0.00000652,-0.00094157,-0.00001081,
 0.00002269,-0.00451045,-0.00110894,0.00161170,0.02582139,-0.01007530,-
 0.02892439,0.00000320,-0.00437151,0.00102043,0.00004484,-0.00090621,0.
 00062004,0.00000513,-0.00077252,0.00343511,0.00005055,0.00965551,0.013
 96007,-0.00000794,-0.12163369,-0.11539495,0.00116975,0.00103390,0.0003
 9813,-0.00001819,0.00005517,-0.00015036,-0.00000674,0.00053089,0.00074
 058,-0.00003544,0.12613482,0.00283609,0.00264314,-0.00006224,0.0011473
 9,0.00195695,0.00003856,0.00054640,0.00035163,-0.00000058,0.00413387,-
 0.00329105,0.00005582,-0.01604460,-0.01807804,0.00026382,-0.11507288,-
 0.26982139,0.00157703,-0.00036089,0.00081901,-0.00002880,-0.00016245,-
 0.00005954,-0.00000974,-0.00071711,-0.00120555,-0.00002395,0.12445795,
 0.28541730,0.00003630,0.00014344,0.00373473,0.00005974,0.00002666,0.00
 790940,0.00002144,-0.00000615,-0.00098837,-0.00005321,-0.00012648,0.00
 664308,0.00066425,-0.00010510,0.00421609,0.00097629,0.00191941,-0.0380
 4131,-0.00001032,-0.00002536,-0.00450141,-0.00000112,0.00000607,-0.000
 94294,-0.00003550,0.00002415,0.00006734,-0.00114907,-0.00175361,0.0258
 1761,-0.03530310,-0.00882121,0.00017896,-0.16179443,-0.00077899,0.0004
 6440,-0.03565984,0.00829442,0.00017589,0.00485786,0.00162338,-0.000050
 06,-0.00489968,-0.00005078,0.00121592,0.00484827,-0.00151160,-0.000048
 58,0.00161659,0.00062072,0.00004019,0.00162743,-0.00062237,0.00004044,
 -0.00095258,0.00047760,0.00000720,-0.00093789,-0.00048989,0.00000742,0
 .22913155,-0.02735791,0.00162760,0.00014140,-0.00078180,-0.03843008,0.
 00000489,0.02685144,0.00209616,-0.00013535,-0.00376865,-0.00442841,0.0
 0008134,-0.00006841,0.00533126,0.00000618,0.00388384,-0.00439280,-0.00
 007780,-0.00072495,0.00179420,-0.00001335,0.00071073,0.00179632,0.0000
 1189,0.00072957,-0.00008888,-0.00000338,-0.00074005,-0.00010516,0.0000
 0341,0.00128241,0.03458978,0.00036727,0.00014781,0.00812833,0.00052314
 ,0.00000519,-0.02978736,0.00035465,-0.00013931,0.00810081,-0.00006515,
 -0.00003823,0.00423664,0.00011580,-0.00000094,-0.00096019,-0.00006800,
 0.00004190,0.00424223,-0.00002483,-0.00002561,-0.00220778,-0.00002553,
 0.00002328,-0.00220411,0.00002743,-0.00000730,-0.00023874,0.00002766,0
 .00000759,-0.00023954,-0.00109311,-0.00001312,0.01152003,0.00239635,0.
 00144078,0.00039131,-0.00117696,-0.00001956,0.00025302,0.00240007,-0.0
 0133814,0.00040665,-0.02051436,-0.00222411,-0.00029442,-0.22521632,-0.
 00091127,-0.00368290,-0.02095080,0.00191819,-0.00030794,-0.00017226,-0
 .00014247,-0.00013446,-0.00015718,0.00014057,-0.00013563,0.00097612,0.
 00117517,-0.00041675,0.00097942,-0.00116984,-0.00040749,0.00035611,0.0
 0000107,-0.00011647,0.49542181,0.00112258,-0.00456169,0.00114086,-0.00
 000087,-0.00018882,0.00000161,-0.00103348,-0.00457619,-0.00113007,-0.0
 2989069,0.00318010,-0.00073428,-0.00085557,-0.08860723,-0.00002039,0.0
 2960379,0.00361948,0.00073225,0.00130228,-0.00002189,-0.00006457,-0.00
 130273,-0.00003790,0.00006305,-0.00075322,0.00096696,0.00069170,0.0007
 3975,0.00096421,-0.00069926,-0.00000877,0.00030448,-0.00000109,-0.0006
 1023,0.58261780,-0.00002025,-0.00105656,0.00636819,0.00085535,0.000005
 94,-0.00089202,-0.00003228,0.00106075,0.00637955,0.00142168,-0.0001910
 0,0.00322371,-0.00048904,0.00000389,-0.06817609,0.00139978,0.00021159,
 0.00321502,0.00010559,0.00003196,0.00029881,0.00010701,-0.00003035,0.0
 0029881,-0.00013289,-0.00023656,-0.00341351,-0.00013668,0.00023174,-0.
 00340879,-0.00117478,-0.00000759,-0.00057859,-0.00882757,-0.00008427,0
 .53925728,-0.00122511,-0.00071165,0.00137932,0.00152443,0.,-0.00026234
 ,-0.00125433,0.00069790,0.00137544,0.00020152,0.00155270,-0.00001118,-
 0.01407182,-0.00020160,-0.03000971,0.00022001,-0.00153981,-0.00000045,
 -0.00015441,0.00007669,0.00005271,-0.00015492,-0.00007849,0.00005384,0
 .00010964,-0.00018197,-0.00058200,0.00010803,0.00018578,-0.00058458,-0
 .00151670,-0.00000858,-0.00006641,-0.07212679,-0.00044152,-0.08245702,
 0.08156554,-0.00124287,-0.00057354,-0.00034872,0.00000176,0.00133770,-
 0.00000116,0.00122986,-0.00054975,0.00037136,-0.00200456,-0.00052097,0
 .00018558,-0.00009990,0.00043707,-0.00018383,0.00201579,-0.00051534,-0
 .00018315,0.00000390,-0.00001642,0.00003400,-0.00000631,-0.00001758,-0
 .00003404,-0.00003492,-0.00001773,-0.00013584,0.00003558,-0.00001667,0
 .00012269,-0.00000861,-0.00009533,-0.00000112,-0.00043318,-0.04523076,
 -0.00133630,0.00054499,0.04366697,-0.00053581,-0.00009002,0.00002048,0
 .00046986,0.00000400,-0.00002269,-0.00053491,0.00008297,0.00001701,0.0
 0013113,0.00050604,0.00029573,-0.00051824,0.00000696,0.00423435,0.0001
 3745,-0.00050176,0.00030821,-0.00005493,0.00001097,0.00001331,-0.00005
 466,-0.00001163,0.00001377,-0.00004507,0.00004560,-0.00020597,-0.00004
 539,-0.00004511,-0.00020924,-0.00028023,-0.00000181,-0.00003687,-0.079
 60783,-0.00131846,-0.27910010,0.08904719,0.00145826,0.30065754,-0.0005
 5827,0.00109600,-0.00086408,0.00072514,-0.00010358,0.00015543,-0.00042
 338,0.00045298,-0.00031785,0.00198042,0.00145778,-0.00044684,-0.012238
 55,0.02778805,0.01426509,-0.00532011,-0.00190004,0.00068144,-0.0004691
 9,0.00004493,-0.00008702,0.00001433,-0.00003875,-0.00001661,0.00011885
 ,-0.00074564,0.00020107,0.00008694,-0.00002927,0.00027837,-0.00068433,
 -0.00006704,0.00002220,-0.08211892,0.07699503,0.04505775,0.00345161,-0
 .00902954,-0.00402776,0.09150972,-0.00012949,-0.00017861,-0.00002357,-
 0.00020708,0.00027953,0.00008941,0.00052585,0.00014792,0.00050157,-0.0
 0181968,0.00045553,0.00035537,-0.00087851,0.00051960,0.00191259,0.0005
 9663,0.00062965,-0.00049466,0.00007903,-0.00001152,-0.00000525,0.00006
 415,0.00000311,-0.00005439,0.00012657,0.00020428,-0.00051342,-0.000071
 94,0.00021493,-0.00004889,0.00009787,0.00000081,-0.00008320,0.07983149
 ,-0.22390047,-0.09879708,-0.00083244,0.00091025,0.00061342,-0.08677147
 ,0.23907946,-0.00054677,-0.00001765,0.00007578,-0.00021454,0.00052099,
 -0.00003266,0.00051497,-0.00024930,-0.00003405,-0.00041310,0.00000053,
 0.00062038,-0.00241626,0.00278429,0.00044673,-0.00017608,0.00005400,0.
 00049144,-0.00001311,-0.00000194,-0.00006253,0.00002509,0.00000542,-0.
 00004376,0.00015473,0.00013200,-0.00007125,-0.00005919,-0.00012059,0.0
 0001843,0.00025739,-0.00003777,0.00001259,0.04681066,-0.09931386,-0.10
 106945,0.01119847,-0.02513477,-0.01290473,-0.04820458,0.10891777,0.104
 89278,-0.00041245,-0.00046389,-0.00031729,0.00072647,0.00010570,0.0001
 5799,-0.00055440,-0.00109219,-0.00087146,-0.00530945,0.00182416,0.0006
 7969,-0.01191163,-0.02784611,0.01446308,0.00197769,-0.00143044,-0.0004
 4562,0.00001416,0.00003925,-0.00001736,-0.00046639,-0.00005124,-0.0000
 8792,0.00008553,0.00002728,0.00028026,0.00011244,0.00073945,0.00019748
 ,-0.00068927,0.00005833,0.00002133,-0.08009626,-0.07486635,0.04432335,
 0.00332329,0.00902799,-0.00408081,0.00392576,0.00938901,-0.00691767,0.
 08927452,-0.00053848,0.00013243,-0.00050788,0.00021180,0.00028707,-0.0
 0008812,0.00012453,-0.00019359,0.00000944,-0.00068409,0.00063873,0.000
 50364,0.00069504,0.00015963,-0.00173584,0.00183218,0.00045465,-0.00036
 233,-0.00006374,0.00000268,0.00005433,-0.00008478,-0.00001323,0.000004
 52,0.00006855,0.00021830,0.00005518,-0.00012594,0.00021024,0.00051904,
 -0.00010419,0.00000004,0.00008417,-0.07765848,-0.22452806,0.10019386,0
 .00093800,0.00120210,-0.00075944,-0.00914943,-0.01835446,0.01246090,0.
 08453905,0.23978347,0.00051549,0.00025733,-0.00003167,-0.00021011,-0.0
 0052550,-0.00003261,-0.00054727,0.00001036,0.00006927,-0.00017725,-0.0
 0006106,0.00047918,-0.00238868,-0.00282379,0.00049188,-0.00041465,-0.0
 0000727,0.00062742,0.00002555,-0.00000520,-0.00004338,-0.00001295,0.00
 000176,-0.00006121,-0.00006146,0.00011953,0.00002138,0.00015751,-0.000
 12994,-0.00007509,0.00025894,0.00004107,0.00001254,0.04606982,0.100736
 80,-0.10240282,0.01086672,0.02518705,-0.01308080,-0.00669662,-0.012369
 67,0.00766032,-0.04738505,-0.11043147,0.10636559\\-0.00020703,-0.00015
 770,0.00000437,0.00000094,0.00005600,-0.00001304,0.00024584,0.00000291
 ,0.00000161,-0.00014930,-0.00013535,0.00000196,-0.00007731,0.00018454,
 -0.00001032,0.00018945,-0.00001801,0.00000161,0.00000547,0.00001890,-0
 .00000148,-0.00003927,-0.00000106,-0.00000153,0.00001687,0.00002989,0.
 00000087,-0.00000331,-0.00001887,0.00000133,-0.00005772,0.00006176,-0.
 00000303,0.00006219,-0.00001608,0.00001607,0.00000216,-0.00000166,-0.0
 0000078,0.00001080,-0.00000062,0.00000263,0.00000021,-0.00000467,-0.00
 000028\\\@


 Money is a good servant but a bad master.
                        -- French Proverb
 Job cpu time:       0 days  0 hours 42 minutes 39.7 seconds.
 Elapsed time:       0 days  0 hours  1 minutes 47.7 seconds.
 File lengths (MBytes):  RWF=    720 Int=      0 D2E=      0 Chk=     24 Scr=     16
 Normal termination of Gaussian 16 at Fri Mar 15 07:44:51 2019.
